 Gaussian 16, Revision A.03,
 Gaussian 16:  ES64L-G16RevA.03 25-Dec-2016

 --------------------------------
 #p wB97XD/Def2SVP td=(nstates=5)
 --------------------------------

 --------------------------------
 TDDFT excited states in gaussian
 --------------------------------
 Symbolic Z-matrix:
 Charge =  0 Multiplicity = 1

                         Standard orientation:
 ---------------------------------------------------------------------
 Center     Atomic      Atomic             Coordinates (Angstroms)
 Number     Number       Type             X           Y           Z
 ---------------------------------------------------------------------
      1         12           0       11.105035    0.135647    0.022793
      2          6           0        7.886716    1.084795    1.282930
      3          6           0       10.215890   -3.210171    0.753543
      4          6           0       13.725699   -0.868800   -1.816636
      5          6           0       11.471768    3.342386   -1.200200
      6          7           0        9.258327   -0.969545    0.932715
      7          6           0        8.118260   -0.314975    1.306834
      8          6           0        7.010061   -1.324844    1.559634
      9          6           0        7.900181   -2.634453    1.649058
     10          6           0        9.230399   -2.316805    1.080166
     11          6           0        8.078190   -3.285494    3.061751
     12          6           0        5.916635   -1.211775    0.449331
     13          6           0        4.383796   -1.217074    0.848274
     14          1           0        3.465788   -2.340735    0.334445
     15          7           0       11.967501   -1.671273   -0.314129
     16          6           0       11.480539   -2.948159    0.071111
     17          6           0       12.405986   -3.989004   -0.336742
     18          6           0       13.426131   -3.284779   -1.096962
     19          6           0       13.049656   -1.883673   -1.079510
     20          6           0       12.125734   -5.413775   -0.096630
     21          6           0       14.637239   -3.996652   -1.724505
     22          8           0       14.652402   -5.259073   -1.635451
     23          6           0       15.814373   -3.300518   -2.440074
     24          7           0       12.327577    1.009947   -1.573558
     25          6           0       13.434116    0.456378   -2.031223
     26          6           0       14.100322    1.422302   -2.956966
     27          6           0       13.381629    2.769892   -2.680188
     28          6           0       12.239088    2.347744   -1.808539
     29          6           0       15.680962    1.578760   -2.937416
     30          6           0       12.893538    3.574170   -3.993138
     31          6           0       13.532987    4.951394   -4.296139
     32          7           0       10.078703    1.890971    0.177093
     33          6           0       10.333420    3.097514   -0.356723
     34          6           0        9.337509    4.042773   -0.006681
     35          6           0        8.381047    3.291000    0.679670
     36          6           0        8.851222    1.954617    0.736925
     37          6           0        9.245019    5.493357   -0.262612
     38          6           0        7.095951    3.433774    1.291397
     39          8           0        6.391218    4.416721    1.343496
     40          6           0        6.677530    1.882823    1.699287
     41          6           0        6.449755    1.791982    3.146395
     42          8           0        7.160333    2.305058    4.020094
     43          8           0        5.327257    1.010936    3.320993
     44          6           0        4.902432    0.783696    4.701278
     45          1           0       10.002299   -4.260455    0.957795
     46          1           0       14.520173   -1.148410   -2.511170
     47          1           0       11.649056    4.407684   -1.363091
     48          1           0        6.656999   -1.141379    2.574745
     49          1           0        7.369731   -3.223594    0.900048
     50          1           0        9.149388   -3.338901    3.261334
     51          1           0        7.701179   -4.305396    3.134383
     52          1           0        7.677638   -2.712652    3.898676
     53          1           0        6.152759   -2.110692   -0.119703
     54          1           0        6.029640   -0.382161   -0.248212
     55          1           0        4.011439   -0.246947    0.519689
     56          1           0        4.317106   -1.102935    1.929801
     57          1           0       11.128538   -5.600082   -0.496059
     58          1           0       12.057314   -5.603790    0.974296
     59          1           0       12.868740   -6.142296   -0.422186
     60          1           0       15.451690   -2.929242   -3.398713
     61          1           0       16.645189   -3.994728   -2.318253
     62          1           0       16.028473   -2.458419   -1.781084
     63          1           0       13.897348    1.071679   -3.968121
     64          1           0       14.084103    3.259884   -2.005874
     65          1           0       15.933163    1.881006   -3.954161
     66          1           0       16.118607    0.624209   -2.645597
     67          1           0       15.901765    2.384860   -2.237522
     68          1           0       11.817186    3.666421   -3.848969
     69          1           0       12.971780    2.892234   -4.839761
     70          1           0       12.793536    5.723672   -4.503797
     71          1           0       14.203520    4.841781   -5.148883
     72          1           0       14.198617    5.307856   -3.509806
     73          1           0        8.534313    5.977078    0.406722
     74          1           0        8.888545    5.434202   -1.291137
     75          1           0       10.255498    5.872230   -0.415350
     76          1           0        5.867518    1.513272    1.071487
     77          1           0        4.812227    1.718457    5.255085
     78          1           0        5.604020    0.110969    5.196745
     79          1           0        3.916317    0.319368    4.689642
     80         12           0      -10.639468   -0.015688   -0.475796
     81          6           0       -8.090705   -1.096842    1.500567
     82          6           0      -10.487680    3.119406    0.933115
     83          6           0      -13.299426    0.864944   -2.375765
     84          6           0      -11.076301   -3.355864   -1.545450
     85          7           0       -9.560277    0.841714    1.213697
     86          6           0       -8.377201    0.304220    1.614299
     87          6           0       -7.508823    1.264835    2.353661
     88          6           0       -8.478755    2.557218    2.352466
     89          6           0       -9.596977    2.171837    1.440543
     90          6           0       -9.007020    2.933091    3.810439
     91          6           0       -6.174421    1.511769    1.506762
     92          6           0       -4.943776    2.011679    2.266507
     93          1           0       -4.976926    2.584092    3.705516
     94          7           0      -11.708994    1.752158   -0.800192
     95          6           0      -11.493864    2.942119   -0.085910
     96          6           0      -12.459720    3.902968   -0.566106
     97          6           0      -13.257946    3.274266   -1.543312
     98          6           0      -12.718082    1.924100   -1.625879
     99          6           0      -12.458709    5.362151   -0.053662
    100          6           0      -14.542250    3.886621   -2.312861
    101          8           0      -15.093783    3.307723   -3.257400
    102          6           0      -15.172845    5.230699   -1.987995
    103          7           0      -11.966325   -1.130832   -1.852710
    104          6           0      -13.000677   -0.503374   -2.461808
    105          6           0      -13.948718   -1.502723   -3.122604
    106          6           0      -13.035550   -2.860083   -3.135995
    107          6           0      -11.879641   -2.446333   -2.211710
    108          6           0      -15.410881   -1.610418   -2.489281
    109          6           0      -12.349347   -3.250489   -4.541795
    110          6           0      -12.470737   -4.666787   -5.073315
    111          7           0       -9.773182   -1.894261   -0.187084
    112          6           0      -10.036693   -3.129389   -0.648426
    113          6           0       -9.004239   -4.089026   -0.145684
    114          6           0       -8.193435   -3.263170    0.668580
    115          6           0       -8.802022   -1.984402    0.686715
    116          6           0       -8.793977   -5.534541   -0.428230
    117          6           0       -7.041890   -3.341723    1.486883
    118          8           0       -6.301801   -4.312477    1.747415
    119          6           0       -6.920193   -1.937176    2.072503
    120          6           0       -7.014569   -2.022439    3.511948
    121          8           0       -7.855748   -2.495134    4.210589
    122          8           0       -5.930335   -1.308558    4.013606
    123          6           0       -5.710330   -1.111570    5.497577
    124          1           0      -10.355289    4.178353    1.162833
    125          1           0      -14.213721    1.132548   -2.910178
    126          1           0      -11.266861   -4.422762   -1.674548
    127          1           0       -7.171226    1.064199    3.370264
    128          1           0       -7.969766    3.434197    1.952586
    129          1           0       -9.117481    3.997417    4.016775
    130          1           0       -8.407466    2.406706    4.552949
    131          1           0      -10.012960    2.518864    3.885676
    132          1           0       -6.344227    2.211655    0.688345
    133          1           0       -5.941078    0.545038    1.059854
    134          1           0       -4.484507    2.758013    1.617074
    135          1           0       -4.205686    1.210941    2.292853
    136          1           0      -11.649420    5.594039    0.638585
    137          1           0      -13.431757    5.529175    0.407084
    138          1           0      -12.404451    6.007326   -0.930838
    139          1           0      -14.431533    5.961813   -2.308403
    140          1           0      -15.177391    5.442702   -0.918633
    141          1           0      -16.203300    5.263411   -2.341233
    142          1           0      -14.074141   -1.198904   -4.162551
    143          1           0      -13.611494   -3.720799   -2.795492
    144          1           0      -15.624520   -2.626372   -2.156334
    145          1           0      -16.156861   -1.283789   -3.212904
    146          1           0      -15.484031   -1.003378   -1.586607
    147          1           0      -11.298132   -2.964370   -4.572934
    148          1           0      -12.790497   -2.586284   -5.284365
    149          1           0      -11.453714   -5.027304   -5.223586
    150          1           0      -13.060869   -4.729807   -5.987154
    151          1           0      -12.899483   -5.311218   -4.304584
    152          1           0       -9.466204   -5.959191   -1.173625
    153          1           0       -8.928371   -6.130671    0.474732
    154          1           0       -7.771189   -5.668722   -0.779796
    155          1           0       -5.974931   -1.461511    1.809497
    156          1           0       -6.531489   -1.550644    6.064571
    157          1           0       -5.714151   -0.045582    5.728972
    158          1           0       -4.760838   -1.600338    5.715749
 ---------------------------------------------------------------------

 SCF Done:  E(RwB97XD) =  -4070.58997948     A.U. after   19 cycles

 Excitation energies and oscillator strengths:

 Excited State   1:      Singlet-A      1.6372 eV  757.27 nm  f=0.3756  <S**2>=0.000
     309 -> 315        0.19088
     311 -> 313        0.68319
     309 <- 315        0.12119
 This state for optimization and/or second-order correction.
 Total Energy, E(TD-HF/TD-DFT) =  -4070.52981188
 Copying the excited state density for this state as the 1-particle RhoCI density.

 Excited State   2:      Singlet-A      1.6812 eV  737.47 nm  f=0.4047  <S**2>=0.000
     310 -> 316       -0.19771
     312 -> 314        0.68056
     310 <- 316       -0.11935

 Excited State   3:      Singlet-A      2.1737 eV  570.39 nm  f=0.1027  <S**2>=0.000
     310 -> 314        0.63605
     312 -> 316        0.29810

 Excited State   4:      Singlet-A      2.1989 eV  563.85 nm  f=0.1282  <S**2>=0.000
     309 -> 313        0.63798
     311 -> 315       -0.29181

 Excited State   5:      Singlet-A      3.5879 eV  345.56 nm  f=0.0000  <S**2>=0.000
     312 -> 313        0.70697

 The electronic state is 1-A.
 Alpha  occ. eigenvalues --  -46.95735 -46.95250 -19.31523 -19.28972 -19.25543
 Alpha  occ. eigenvalues --  -19.24831 -19.24558 -19.24210 -19.23920 -19.23179
 Alpha  occ. eigenvalues --  -14.47047 -14.46545 -14.46279 -14.45970 -14.44554
 Alpha  occ. eigenvalues --  -14.44427 -14.44133 -14.43995 -10.43969 -10.42517
 Alpha  occ. eigenvalues --  -10.40220 -10.39514 -10.39245 -10.38553 -10.36218
 Alpha  occ. eigenvalues --  -10.35800 -10.35713 -10.35208 -10.34786 -10.34679
 Alpha  occ. eigenvalues --  -10.34674 -10.34667 -10.34402 -10.34397 -10.34323
 Alpha  occ. eigenvalues --  -10.34216 -10.34045 -10.33898 -10.33772 -10.33731
 Alpha  occ. eigenvalues --  -10.33099 -10.33068 -10.32975 -10.32919 -10.32805
 Alpha  occ. eigenvalues --  -10.32799 -10.32719 -10.32382 -10.32350 -10.32334
 Alpha  occ. eigenvalues --  -10.32293 -10.32257 -10.32043 -10.32020 -10.31859
 Alpha  occ. eigenvalues --  -10.31831 -10.31648 -10.31635 -10.31627 -10.31603
 Alpha  occ. eigenvalues --  -10.31554 -10.31551 -10.31421 -10.31411 -10.31405
 Alpha  occ. eigenvalues --  -10.31306 -10.31237 -10.31202 -10.31108 -10.30673
 Alpha  occ. eigenvalues --  -10.30556 -10.30516 -10.30482 -10.30476 -10.30248
 Alpha  occ. eigenvalues --  -10.30145 -10.30134 -10.30051 -10.30020 -10.29963
 Alpha  occ. eigenvalues --  -10.29920 -10.29910 -10.29171 -10.28968 -10.28845
 Alpha  occ. eigenvalues --  -10.28622  -3.21591  -3.21247  -1.95201  -1.94825
 Alpha  occ. eigenvalues --   -1.94694  -1.94570  -1.94358  -1.94231  -1.18747
 Alpha  occ. eigenvalues --   -1.17821  -1.13107  -1.11718  -1.10617  -1.10391
 Alpha  occ. eigenvalues --   -1.09453  -1.09451  -1.07629  -1.07471  -1.06758
 Alpha  occ. eigenvalues --   -1.06474  -1.05748  -1.05591  -1.04653  -1.04396
 Alpha  occ. eigenvalues --   -0.95527  -0.95167  -0.91247  -0.90546  -0.90205
 Alpha  occ. eigenvalues --   -0.90127  -0.89996  -0.89888  -0.89437  -0.89415
 Alpha  occ. eigenvalues --   -0.88997  -0.88797  -0.88164  -0.87969  -0.86592
 Alpha  occ. eigenvalues --   -0.86285  -0.85765  -0.85357  -0.84612  -0.84256
 Alpha  occ. eigenvalues --   -0.83909  -0.83521  -0.83337  -0.83137  -0.82444
 Alpha  occ. eigenvalues --   -0.82276  -0.80375  -0.80192  -0.79597  -0.79409
 Alpha  occ. eigenvalues --   -0.79073  -0.78814  -0.78223  -0.78139  -0.77281
 Alpha  occ. eigenvalues --   -0.77107  -0.75203  -0.74614  -0.74194  -0.73962
 Alpha  occ. eigenvalues --   -0.71735  -0.71384  -0.71289  -0.70565  -0.70416
 Alpha  occ. eigenvalues --   -0.70161  -0.68743  -0.68074  -0.67964  -0.67622
 Alpha  occ. eigenvalues --   -0.67254  -0.67167  -0.67114  -0.66774  -0.66520
 Alpha  occ. eigenvalues --   -0.66250  -0.64968  -0.63865  -0.62470  -0.62148
 Alpha  occ. eigenvalues --   -0.61930  -0.61893  -0.61509  -0.61182  -0.60905
 Alpha  occ. eigenvalues --   -0.60812  -0.60456  -0.60399  -0.59745  -0.59599
 Alpha  occ. eigenvalues --   -0.58187  -0.58022  -0.57910  -0.57612  -0.57514
 Alpha  occ. eigenvalues --   -0.57252  -0.56854  -0.56472  -0.56172  -0.55702
 Alpha  occ. eigenvalues --   -0.55653  -0.55299  -0.54960  -0.54907  -0.54895
 Alpha  occ. eigenvalues --   -0.54711  -0.54574  -0.54122  -0.54085  -0.54064
 Alpha  occ. eigenvalues --   -0.53653  -0.53605  -0.53558  -0.53352  -0.53341
 Alpha  occ. eigenvalues --   -0.53191  -0.52776  -0.52519  -0.52480  -0.52256
 Alpha  occ. eigenvalues --   -0.51991  -0.51904  -0.51736  -0.51627  -0.51529
 Alpha  occ. eigenvalues --   -0.51376  -0.51347  -0.51078  -0.50817  -0.50732
 Alpha  occ. eigenvalues --   -0.50411  -0.50247  -0.50098  -0.49888  -0.49855
 Alpha  occ. eigenvalues --   -0.49662  -0.49599  -0.49556  -0.49539  -0.49407
 Alpha  occ. eigenvalues --   -0.49246  -0.48982  -0.48878  -0.48568  -0.48501
 Alpha  occ. eigenvalues --   -0.48408  -0.48384  -0.48151  -0.48101  -0.48094
 Alpha  occ. eigenvalues --   -0.47886  -0.47536  -0.47521  -0.47386  -0.47142
 Alpha  occ. eigenvalues --   -0.46964  -0.46647  -0.46460  -0.46276  -0.46239
 Alpha  occ. eigenvalues --   -0.45910  -0.45828  -0.45691  -0.45657  -0.45578
 Alpha  occ. eigenvalues --   -0.45529  -0.45214  -0.45076  -0.45027  -0.44909
 Alpha  occ. eigenvalues --   -0.44770  -0.44586  -0.44329  -0.44251  -0.43681
 Alpha  occ. eigenvalues --   -0.43572  -0.43493  -0.43298  -0.43145  -0.43081
 Alpha  occ. eigenvalues --   -0.43069  -0.42923  -0.42767  -0.42765  -0.42227
 Alpha  occ. eigenvalues --   -0.42144  -0.42110  -0.41655  -0.41337  -0.40848
 Alpha  occ. eigenvalues --   -0.40662  -0.40325  -0.40205  -0.39783  -0.39749
 Alpha  occ. eigenvalues --   -0.39583  -0.39527  -0.38765  -0.38583  -0.38544
 Alpha  occ. eigenvalues --   -0.38144  -0.37750  -0.37163  -0.36492  -0.36230
 Alpha  occ. eigenvalues --   -0.36100  -0.35414  -0.35294  -0.33555  -0.33395
 Alpha  occ. eigenvalues --   -0.33167  -0.33150  -0.33019  -0.32372  -0.32331
 Alpha  occ. eigenvalues --   -0.32238  -0.32233  -0.31552  -0.26087  -0.25756
 Alpha  occ. eigenvalues --   -0.23116  -0.22941
 Alpha virt. eigenvalues --   -0.07295  -0.06869   0.00178   0.00187   0.02030
 Alpha virt. eigenvalues --    0.02381   0.04438   0.04495   0.05474   0.05827
 Alpha virt. eigenvalues --    0.06386   0.07325   0.07615   0.08013   0.08341

 Mulliken charges:
               1
     1  Mg   0.980543
     2  C   -0.123944
     3  C   -0.080586
     4  C   -0.101763
     5  C   -0.096491
     6  N   -0.314530
     7  C   -0.024940
     8  C   -0.047732
     9  C   -0.085505
    10  C    0.060953
    11  C    0.030185
    12  C   -0.009434
    13  C   -0.101507
    14  H    0.051900
    15  N   -0.481299
    16  C    0.127824
    17  C   -0.142616
    18  C   -0.097893
    19  C    0.230302
    20  C    0.076959
    21  C    0.025828
    22  O   -0.277575
    23  C    0.020307
    24  N   -0.347127
    25  C    0.019160
    26  C   -0.090672
    27  C   -0.108926
    28  C    0.094187
    29  C    0.033652
    30  C    0.010074
    31  C   -0.047575
    32  N   -0.436655
    33  C    0.106327
    34  C   -0.206307
    35  C   -0.066924
    36  C    0.192757
    37  C    0.118067
    38  C    0.144018
    39  O   -0.189008
    40  C   -0.050542
    41  C    0.292183
    42  O   -0.254523
    43  O   -0.371119
    44  C    0.136642
    45  H    0.000213
    46  H   -0.036500
    47  H    0.002821
    48  H    0.018585
    49  H    0.029944
    50  H    0.037049
    51  H    0.045820
    52  H    0.037038
    53  H    0.031273
    54  H    0.053386
    55  H    0.047360
    56  H    0.042342
    57  H    0.047988
    58  H    0.033463
    59  H    0.069477
    60  H    0.083919
    61  H    0.065120
    62  H    0.043244
    63  H    0.038426
    64  H    0.032642
    65  H    0.040644
    66  H    0.041172
    67  H    0.031802
    68  H    0.033543
    69  H    0.025555
    70  H    0.046557
    71  H    0.035595
    72  H    0.033258
    73  H    0.080728
    74  H    0.046614
    75  H    0.029874
    76  H    0.059437
    77  H    0.065193
    78  H    0.053039
    79  H    0.056708
    80  Mg   0.951287
    81  C   -0.080184
    82  C   -0.064931
    83  C   -0.054549
    84  C   -0.099737
    85  N   -0.357766
    86  C    0.029395
    87  C   -0.079549
    88  C   -0.109824
    89  C    0.090003
    90  C    0.022806
    91  C   -0.013604
    92  C   -0.098932
    93  H    0.035575
    94  N   -0.438807
    95  C    0.108570
    96  C   -0.179327
    97  C   -0.083502
    98  C    0.122482
    99  C    0.062576
   100  C    0.076107
   101  O   -0.249634
   102  C    0.010246
   103  N   -0.332144
   104  C    0.030944
   105  C   -0.062679
   106  C   -0.122808
   107  C    0.110806
   108  C    0.017295
   109  C   -0.023502
   110  C   -0.037683
   111  N   -0.390806
   112  C    0.092654
   113  C   -0.157315
   114  C   -0.058496
   115  C    0.195125
   116  C    0.082453
   117  C    0.129044
   118  O   -0.229977
   119  C   -0.055491
   120  C    0.260431
   121  O   -0.202701
   122  O   -0.416603
   123  C    0.130362
   124  H   -0.007570
   125  H    0.015292
   126  H   -0.000003
   127  H    0.042060
   128  H    0.032583
   129  H    0.044650
   130  H    0.032905
   131  H    0.038455
   132  H    0.033499
   133  H    0.032371
   134  H    0.043737
   135  H    0.053003
   136  H    0.042831
   137  H    0.051394
   138  H    0.048544
   139  H    0.054999
   140  H    0.026411
   141  H    0.075617
   142  H    0.037517
   143  H    0.035275
   144  H    0.033681
   145  H    0.050477
   146  H    0.045480
   147  H    0.038398
   148  H    0.020867
   149  H    0.037065
   150  H    0.048345
   151  H    0.024399
   152  H    0.023636
   153  H    0.065228
   154  H    0.063584
   155  H    0.069525
   156  H    0.066036
   157  H    0.053585
   158  H    0.068511
 Sum of Mulliken charges =  -0.00000

 Dipole moment (field-independent basis, Debye):
    X=              0.6245    Y=              4.2426    Z=             -1.6166  Tot=              4.5829
 Quadrupole moment (field-independent basis, Debye-Ang):
   XX=           -488.6568   YY=           -524.4491   ZZ=           -499.2966
   XY=             21.3165   XZ=            -23.2989   YZ=              1.3976

 Normal termination of Gaussian 16 at Sun Sep 19 03:36:00 2021.
