 Gaussian 16, Revision A.03,
 Gaussian 16:  ES64L-G16RevA.03 25-Dec-2016

 --------------------------------
 #p wB97XD/Def2SVP td=(nstates=5)
 --------------------------------

 --------------------------------
 TDDFT excited states in gaussian
 --------------------------------
 Symbolic Z-matrix:
 Charge =  0 Multiplicity = 1

                         Standard orientation:
 ---------------------------------------------------------------------
 Center     Atomic      Atomic             Coordinates (Angstroms)
 Number     Number       Type             X           Y           Z
 ---------------------------------------------------------------------
      1         12           0      -11.593758   -0.085857   -0.074050
      2          6           0       -8.400496   -1.360060    0.952446
      3          6           0      -10.279659    3.120110    0.794740
      4          6           0      -13.982658    1.463013   -1.858152
      5          6           0      -12.280787   -3.131793   -1.469248
      6          7           0       -9.578375    0.722937    0.727549
      7          6           0       -8.459581    0.031465    1.090381
      8          6           0       -7.336312    0.981560    1.634548
      9          6           0       -8.177797    2.316178    1.920014
     10          6           0       -9.384134    2.065410    1.029246
     11          6           0       -8.609805    2.496256    3.357234
     12          6           0       -6.122721    1.067100    0.723774
     13          6           0       -4.722789    1.003264    1.387956
     14          1           0       -3.871414    2.333482    1.640025
     15          7           0      -12.158575    2.060928   -0.417923
     16          6           0      -11.513282    3.191761    0.124628
     17          6           0      -12.268160    4.391831   -0.256285
     18          6           0      -13.402731    3.893803   -1.010254
     19          6           0      -13.186046    2.475672   -1.200200
     20          6           0      -11.913035    5.801733    0.032652
     21          6           0      -14.566141    4.731355   -1.478718
     22          8           0      -14.647060    5.870710   -1.078029
     23          6           0      -15.651847    4.241059   -2.408719
     24          7           0      -12.799160   -0.750783   -1.504846
     25          6           0      -13.817927    0.075025   -1.971689
     26          6           0      -14.676545   -0.755480   -2.928418
     27          6           0      -14.256913   -2.240483   -2.625740
     28          6           0      -13.053191   -2.031894   -1.770158
     29          6           0      -16.227975   -0.497824   -2.950158
     30          6           0      -14.038289   -3.202906   -3.833303
     31          6           0      -14.805791   -4.484469   -3.855842
     32          7           0      -10.668469   -1.912901   -0.154015
     33          6           0      -11.096647   -3.112194   -0.696009
     34          6           0      -10.222011   -4.221337   -0.268844
     35          6           0       -9.108569   -3.518412    0.335549
     36          6           0       -9.448956   -2.162327    0.350559
     37          6           0      -10.360320   -5.706343   -0.478074
     38          6           0       -7.786657   -3.737855    0.993122
     39          8           0       -7.139298   -4.736937    1.127342
     40          6           0       -7.269198   -2.334603    1.292284
     41          6           0       -6.934238   -2.272225    2.752639
     42          8           0       -7.830992   -2.367817    3.562780
     43          8           0       -5.569645   -2.001367    3.071328
     44          6           0       -5.261159   -1.731743    4.508486
     45          1           0       -9.935956    4.112199    1.095410
     46          1           0      -14.816037    1.802033   -2.475757
     47          1           0      -12.637008   -4.120638   -1.764462
     48          1           0       -7.012233    0.694277    2.634408
     49          1           0       -7.674148    3.197137    1.522259
     50          1           0       -9.496886    1.886659    3.527666
     51          1           0       -8.770164    3.563251    3.511234
     52          1           0       -7.934538    2.180748    4.153258
     53          1           0       -6.177857    2.043421    0.243247
     54          1           0       -6.273123    0.365798   -0.096947
     55          1           0       -4.165482    0.348323    0.717777
     56          1           0       -4.728939    0.516781    2.363429
     57          1           0      -12.498046    6.088414    0.906014
     58          1           0      -12.291419    6.436374   -0.768755
     59          1           0      -10.872447    6.085394    0.194680
     60          1           0      -16.358282    5.000785   -2.742610
     61          1           0      -16.207795    3.497339   -1.837709
     62          1           0      -15.376168    3.701872   -3.314262
     63          1           0      -14.354425   -0.369241   -3.895889
     64          1           0      -14.962233   -2.649107   -1.902718
     65          1           0      -16.548519   -0.003904   -2.032489
     66          1           0      -16.766423   -1.427604   -3.132790
     67          1           0      -16.492571    0.127345   -3.802669
     68          1           0      -12.976843   -3.440460   -3.903247
     69          1           0      -14.210198   -2.620823   -4.738594
     70          1           0      -14.128736   -5.308689   -3.632416
     71          1           0      -15.211540   -4.649302   -4.853897
     72          1           0      -15.639908   -4.585686   -3.161842
     73          1           0       -9.771220   -6.261039    0.251963
     74          1           0      -10.024177   -5.905753   -1.495979
     75          1           0      -11.424264   -5.943942   -0.477474
     76          1           0       -6.451906   -2.134810    0.599142
     77          1           0       -5.213333   -2.678618    5.046568
     78          1           0       -6.061133   -1.158993    4.977155
     79          1           0       -4.332072   -1.170507    4.606167
     80         12           0       11.168875    0.192339   -0.533757
     81          6           0        8.485743    0.804954    1.667997
     82          6           0       10.837053   -3.153046    0.268063
     83          6           0       13.832789   -0.538604   -2.539717
     84          6           0       11.597783    3.494752   -0.957290
     85          7           0        9.773041   -1.050551    0.806292
     86          6           0        8.657832   -0.617311    1.513265
     87          6           0        7.836974   -1.801111    1.983985
     88          6           0        8.819486   -3.017790    1.824264
     89          6           0        9.841713   -2.376627    0.912837
     90          6           0        9.383895   -3.624227    3.168486
     91          6           0        6.575362   -2.036960    1.140262
     92          6           0        5.345029   -2.518070    1.916910
     93          1           0        5.358100   -3.954298    2.510334
     94          7           0       12.137633   -1.587671   -1.136014
     95          6           0       11.837131   -2.807543   -0.633913
     96          6           0       12.775655   -3.753068   -1.144847
     97          6           0       13.618553   -3.093913   -2.105093
     98          6           0       13.252763   -1.701591   -1.913480
     99          6           0       12.762328   -5.198053   -0.729604
    100          6           0       14.746025   -3.611470   -2.998491
    101          8           0       15.251999   -2.902440   -3.896163
    102          6           0       15.380000   -4.984688   -2.807666
    103          7           0       12.445979    1.301439   -1.652648
    104          6           0       13.537884    0.814611   -2.364928
    105          6           0       14.298660    1.966775   -2.936382
    106          6           0       13.595845    3.310709   -2.526314
    107          6           0       12.447193    2.713196   -1.697600
    108          6           0       15.837113    1.916227   -2.693239
    109          6           0       13.081549    4.177801   -3.695846
    110          6           0       14.056938    5.297965   -4.106093
    111          7           0       10.318077    1.822960    0.192994
    112          6           0       10.524082    3.171485   -0.094685
    113          6           0        9.534594    4.072948    0.603930
    114          6           0        8.770882    3.131401    1.312711
    115          6           0        9.229194    1.810840    1.002051
    116          6           0        9.458332    5.586137    0.513176
    117          6           0        7.647107    3.047390    2.233276
    118          8           0        6.968042    3.928520    2.761983
    119          6           0        7.362087    1.493218    2.387287
    120          6           0        7.316166    1.239147    3.906868
    121          8           0        8.046135    1.730389    4.742934
    122          8           0        6.185414    0.477253    4.194878
    123          6           0        6.042994    0.183138    5.620942
    124          1           0       10.653663   -4.208046    0.481175
    125          1           0       14.688434   -0.657273   -3.207393
    126          1           0       11.881005    4.544958   -1.050099
    127          1           0        7.534624   -1.756875    3.029990
    128          1           0        8.386052   -3.891957    1.338322
    129          1           0        8.957430   -3.214779    4.084678
    130          1           0       10.453414   -3.510421    3.343718
    131          1           0        9.153992   -4.687475    3.237609
    132          1           0        6.759626   -2.758641    0.344778
    133          1           0        6.242744   -1.108115    0.676458
    134          1           0        4.427132   -2.393426    1.342595
    135          1           0        5.133324   -1.866389    2.764354
    136          1           0       12.718405   -5.115058    0.356448
    137          1           0       13.643969   -5.798591   -0.953109
    138          1           0       11.891276   -5.761912   -1.062635
    139          1           0       15.660309   -5.141628   -1.765951
    140          1           0       16.239645   -4.929365   -3.475377
    141          1           0       14.682807   -5.779571   -3.072561
    142          1           0       14.320955    1.817414   -4.016299
    143          1           0       14.169197    3.946227   -1.850187
    144          1           0       16.045395    1.043878   -2.073400
    145          1           0       16.134940    2.809031   -2.144072
    146          1           0       16.257416    1.814930   -3.694390
    147          1           0       12.074832    4.504966   -3.436821
    148          1           0       13.027160    3.595173   -4.615718
    149          1           0       15.071230    5.030776   -3.808926
    150          1           0       13.918142    6.266802   -3.625951
    151          1           0       14.047461    5.368125   -5.194197
    152          1           0        9.069049    5.829194   -0.475658
    153          1           0       10.408126    6.112463    0.605806
    154          1           0        8.759450    5.891549    1.291724
    155          1           0        6.433217    1.137152    1.942131
    156          1           0        6.531164   -0.734712    5.949958
    157          1           0        4.963922    0.144104    5.769220
    158          1           0        6.434393    0.890882    6.351681
 ---------------------------------------------------------------------

 SCF Done:  E(RwB97XD) =  -4070.63805288     A.U. after   17 cycles

 Excitation energies and oscillator strengths:

 Excited State   1:      Singlet-A      1.6111 eV  769.57 nm  f=0.3618  <S**2>=0.000
     309 -> 316        0.17497
     311 -> 313        0.68553
     309 <- 316        0.11577
 This state for optimization and/or second-order correction.
 Total Energy, E(TD-HF/TD-DFT) =  -4070.57884653
 Copying the excited state density for this state as the 1-particle RhoCI density.

 Excited State   2:      Singlet-A      1.6478 eV  752.43 nm  f=0.4052  <S**2>=0.000
     310 -> 315        0.19155
     312 -> 314        0.68073
     310 <- 315        0.11844

 Excited State   3:      Singlet-A      2.1795 eV  568.87 nm  f=0.1208  <S**2>=0.000
     309 -> 313       -0.21026
     310 -> 314        0.59922
     312 -> 315       -0.28307

 Excited State   4:      Singlet-A      2.1830 eV  567.97 nm  f=0.1045  <S**2>=0.000
     309 -> 313        0.60366
     310 -> 314        0.20765
     311 -> 316       -0.26880

 Excited State   5:      Singlet-A      3.1499 eV  393.62 nm  f=0.0020  <S**2>=0.000
     307 -> 313       -0.11903
     308 -> 313        0.66911
     311 -> 316        0.10252

 The electronic state is 1-A.
 Alpha  occ. eigenvalues --  -46.95656 -46.93971 -19.30982 -19.30522 -19.25686
 Alpha  occ. eigenvalues --  -19.25334 -19.24800 -19.24250 -19.24125 -19.22962
 Alpha  occ. eigenvalues --  -14.47396 -14.47268 -14.46259 -14.45858 -14.44475
 Alpha  occ. eigenvalues --  -14.44082 -14.43941 -14.43740 -10.44122 -10.43534
 Alpha  occ. eigenvalues --  -10.39841 -10.39449 -10.39086 -10.38440 -10.36050
 Alpha  occ. eigenvalues --  -10.35432 -10.35420 -10.35322 -10.35234 -10.34884
 Alpha  occ. eigenvalues --  -10.34816 -10.34779 -10.34696 -10.34473 -10.34302
 Alpha  occ. eigenvalues --  -10.34296 -10.34277 -10.34263 -10.33638 -10.33503
 Alpha  occ. eigenvalues --  -10.33187 -10.33176 -10.33110 -10.33031 -10.32906
 Alpha  occ. eigenvalues --  -10.32903 -10.32869 -10.32847 -10.32820 -10.32782
 Alpha  occ. eigenvalues --  -10.32694 -10.32670 -10.32577 -10.32407 -10.32090
 Alpha  occ. eigenvalues --  -10.32042 -10.31881 -10.31807 -10.31670 -10.31627
 Alpha  occ. eigenvalues --  -10.31287 -10.31264 -10.31210 -10.31144 -10.31038
 Alpha  occ. eigenvalues --  -10.30998 -10.30825 -10.30598 -10.30494 -10.30451
 Alpha  occ. eigenvalues --  -10.30391 -10.30370 -10.30296 -10.30284 -10.30243
 Alpha  occ. eigenvalues --  -10.30238 -10.30016 -10.29957 -10.29880 -10.29733
 Alpha  occ. eigenvalues --  -10.29703 -10.29623 -10.29544 -10.29512 -10.29358
 Alpha  occ. eigenvalues --  -10.29258  -3.21691  -3.20165  -1.95223  -1.94811
 Alpha  occ. eigenvalues --   -1.94662  -1.93759  -1.93269  -1.93184  -1.18460
 Alpha  occ. eigenvalues --   -1.17538  -1.14003  -1.12390  -1.11440  -1.11146
 Alpha  occ. eigenvalues --   -1.10375  -1.10109  -1.06705  -1.06574  -1.05726
 Alpha  occ. eigenvalues --   -1.05585  -1.05058  -1.04794  -1.03533  -1.03429
 Alpha  occ. eigenvalues --   -0.94754  -0.94525  -0.91264  -0.91262  -0.90900
 Alpha  occ. eigenvalues --   -0.90744  -0.90340  -0.90195  -0.89521  -0.89381
 Alpha  occ. eigenvalues --   -0.88970  -0.88169  -0.88069  -0.87580  -0.86389
 Alpha  occ. eigenvalues --   -0.86300  -0.85852  -0.85422  -0.84398  -0.84197
 Alpha  occ. eigenvalues --   -0.83730  -0.83648  -0.82904  -0.82494  -0.82170
 Alpha  occ. eigenvalues --   -0.82031  -0.80415  -0.80085  -0.79432  -0.79369
 Alpha  occ. eigenvalues --   -0.79175  -0.78742  -0.78240  -0.78074  -0.77155
 Alpha  occ. eigenvalues --   -0.76987  -0.74657  -0.74640  -0.73745  -0.73615
 Alpha  occ. eigenvalues --   -0.71444  -0.71328  -0.70883  -0.70722  -0.70138
 Alpha  occ. eigenvalues --   -0.69906  -0.69305  -0.68674  -0.67853  -0.67697
 Alpha  occ. eigenvalues --   -0.67429  -0.67050  -0.66549  -0.66470  -0.66313
 Alpha  occ. eigenvalues --   -0.66151  -0.64547  -0.64349  -0.62341  -0.62132
 Alpha  occ. eigenvalues --   -0.61798  -0.61502  -0.61186  -0.61041  -0.60924
 Alpha  occ. eigenvalues --   -0.60459  -0.60320  -0.59694  -0.59628  -0.59482
 Alpha  occ. eigenvalues --   -0.58489  -0.58017  -0.57601  -0.57443  -0.57414
 Alpha  occ. eigenvalues --   -0.57074  -0.56537  -0.56235  -0.55829  -0.55734
 Alpha  occ. eigenvalues --   -0.55413  -0.55301  -0.55067  -0.55056  -0.54843
 Alpha  occ. eigenvalues --   -0.54805  -0.54497  -0.54165  -0.54099  -0.53765
 Alpha  occ. eigenvalues --   -0.53752  -0.53677  -0.53664  -0.53218  -0.53154
 Alpha  occ. eigenvalues --   -0.53020  -0.52834  -0.52382  -0.52339  -0.52175
 Alpha  occ. eigenvalues --   -0.51979  -0.51869  -0.51806  -0.51707  -0.51664
 Alpha  occ. eigenvalues --   -0.51251  -0.51233  -0.51011  -0.50999  -0.50833
 Alpha  occ. eigenvalues --   -0.50633  -0.50521  -0.50386  -0.50176  -0.50078
 Alpha  occ. eigenvalues --   -0.49985  -0.49597  -0.49563  -0.49312  -0.49006
 Alpha  occ. eigenvalues --   -0.48932  -0.48750  -0.48578  -0.48442  -0.48361
 Alpha  occ. eigenvalues --   -0.48338  -0.48203  -0.48124  -0.47979  -0.47888
 Alpha  occ. eigenvalues --   -0.47818  -0.47742  -0.47440  -0.47193  -0.46887
 Alpha  occ. eigenvalues --   -0.46818  -0.46581  -0.46565  -0.46438  -0.46280
 Alpha  occ. eigenvalues --   -0.46247  -0.45708  -0.45561  -0.45509  -0.45398
 Alpha  occ. eigenvalues --   -0.45358  -0.45231  -0.45134  -0.44939  -0.44808
 Alpha  occ. eigenvalues --   -0.44624  -0.44549  -0.44485  -0.44395  -0.44288
 Alpha  occ. eigenvalues --   -0.43838  -0.43827  -0.43715  -0.43540  -0.43500
 Alpha  occ. eigenvalues --   -0.43089  -0.43012  -0.42953  -0.42709  -0.42461
 Alpha  occ. eigenvalues --   -0.42383  -0.42144  -0.42131  -0.41586  -0.41178
 Alpha  occ. eigenvalues --   -0.40585  -0.40386  -0.40223  -0.39838  -0.39641
 Alpha  occ. eigenvalues --   -0.39343  -0.39283  -0.39158  -0.38832  -0.38697
 Alpha  occ. eigenvalues --   -0.38604  -0.37742  -0.37134  -0.37001  -0.36951
 Alpha  occ. eigenvalues --   -0.36380  -0.35450  -0.35081  -0.33637  -0.33488
 Alpha  occ. eigenvalues --   -0.33314  -0.33140  -0.32931  -0.32670  -0.32388
 Alpha  occ. eigenvalues --   -0.32189  -0.31858  -0.30905  -0.26218  -0.25857
 Alpha  occ. eigenvalues --   -0.22911  -0.22872
 Alpha virt. eigenvalues --   -0.07335  -0.06901   0.00154   0.00443   0.02058
 Alpha virt. eigenvalues --    0.02725   0.03862   0.04242   0.04829   0.06509
 Alpha virt. eigenvalues --    0.06799   0.06975   0.07118   0.07439   0.07991

 Mulliken charges:
               1
     1  Mg   0.981480
     2  C   -0.076419
     3  C   -0.053980
     4  C   -0.080072
     5  C   -0.124409
     6  N   -0.313038
     7  C   -0.015789
     8  C   -0.066138
     9  C   -0.119717
    10  C    0.049073
    11  C    0.041437
    12  C    0.037347
    13  C   -0.108031
    14  H    0.024959
    15  N   -0.419652
    16  C    0.112438
    17  C   -0.143655
    18  C   -0.073751
    19  C    0.168824
    20  C    0.081117
    21  C    0.035504
    22  O   -0.234816
    23  C   -0.011942
    24  N   -0.451647
    25  C    0.092124
    26  C   -0.128644
    27  C   -0.033678
    28  C    0.088918
    29  C    0.013845
    30  C    0.000976
    31  C   -0.047213
    32  N   -0.442263
    33  C    0.135401
    34  C   -0.189621
    35  C   -0.106399
    36  C    0.178099
    37  C    0.090735
    38  C    0.132554
    39  O   -0.174507
    40  C   -0.015052
    41  C    0.278218
    42  O   -0.234412
    43  O   -0.405017
    44  C    0.133338
    45  H   -0.005816
    46  H   -0.037475
    47  H   -0.012031
    48  H    0.025603
    49  H    0.029080
    50  H    0.043127
    51  H    0.042873
    52  H    0.036856
    53  H    0.037581
    54  H    0.040346
    55  H    0.055034
    56  H    0.047900
    57  H    0.055620
    58  H    0.053946
    59  H    0.037114
    60  H    0.051267
    61  H    0.050042
    62  H    0.057893
    63  H    0.051510
    64  H    0.033541
    65  H    0.044853
    66  H    0.038295
    67  H    0.031057
    68  H    0.038605
    69  H    0.025368
    70  H    0.036172
    71  H    0.036863
    72  H    0.035838
    73  H    0.071388
    74  H    0.053707
    75  H    0.034404
    76  H    0.072591
    77  H    0.063429
    78  H    0.051730
    79  H    0.065162
    80  Mg   1.001481
    81  C   -0.064895
    82  C   -0.110876
    83  C   -0.083525
    84  C   -0.100734
    85  N   -0.307789
    86  C    0.022428
    87  C   -0.031778
    88  C   -0.097725
    89  C    0.019216
    90  C    0.007918
    91  C    0.023070
    92  C   -0.123509
    93  H    0.017450
    94  N   -0.427966
    95  C    0.224156
    96  C   -0.180323
    97  C   -0.042820
    98  C    0.127683
    99  C    0.061723
   100  C    0.049278
   101  O   -0.257597
   102  C   -0.023901
   103  N   -0.456650
   104  C    0.108887
   105  C   -0.100379
   106  C   -0.055411
   107  C    0.059415
   108  C    0.015936
   109  C    0.000278
   110  C   -0.055610
   111  N   -0.483439
   112  C    0.140237
   113  C   -0.167269
   114  C   -0.071849
   115  C    0.182822
   116  C    0.080906
   117  C    0.161301
   118  O   -0.208862
   119  C   -0.105801
   120  C    0.266165
   121  O   -0.223845
   122  O   -0.369577
   123  C    0.126515
   124  H   -0.008877
   125  H    0.016374
   126  H   -0.010524
   127  H    0.030544
   128  H    0.040149
   129  H    0.034226
   130  H    0.041792
   131  H    0.034452
   132  H    0.040877
   133  H    0.036867
   134  H    0.048917
   135  H    0.049952
   136  H    0.046162
   137  H    0.026923
   138  H    0.058880
   139  H    0.061425
   140  H    0.063736
   141  H    0.063746
   142  H    0.042777
   143  H    0.042891
   144  H    0.043677
   145  H    0.034084
   146  H    0.043574
   147  H    0.037020
   148  H    0.028032
   149  H    0.024555
   150  H    0.041135
   151  H    0.040901
   152  H    0.050522
   153  H    0.047721
   154  H    0.066035
   155  H    0.072941
   156  H    0.043376
   157  H    0.055287
   158  H    0.065113
 Sum of Mulliken charges =  -0.00000

 Dipole moment (field-independent basis, Debye):
    X=             -0.8828    Y=             -4.6498    Z=             -1.7037  Tot=              5.0302
 Quadrupole moment (field-independent basis, Debye-Ang):
   XX=           -457.5868   YY=           -519.6747   ZZ=           -504.8406
   XY=             17.1143   XZ=             26.6332   YZ=            -13.3485

 Normal termination of Gaussian 16 at Sun Sep 19 15:20:32 2021.
