 Gaussian 16, Revision A.03,
 Gaussian 16:  ES64L-G16RevA.03 25-Dec-2016

 --------------------------------
 #p wB97XD/Def2SVP td=(nstates=5)
 --------------------------------

 --------------------------------
 TDDFT excited states in gaussian
 --------------------------------
 Symbolic Z-matrix:
 Charge =  0 Multiplicity = 1

                         Standard orientation:
 ---------------------------------------------------------------------
 Center     Atomic      Atomic             Coordinates (Angstroms)
 Number     Number       Type             X           Y           Z
 ---------------------------------------------------------------------
      1         12           0       22.796852   -0.716631    0.235813
      2          6           0       22.259375    2.254744   -1.585237
      3          6           0       23.622151    1.201431    2.965526
      4          6           0       23.405587   -3.498607    2.016423
      5          6           0       22.514994   -2.596497   -2.701847
      6          7           0       22.767791    1.441705    0.585132
      7          6           0       22.536646    2.493522   -0.195281
      8          6           0       22.644056    3.881971    0.468978
      9          6           0       23.364931    3.394816    1.817768
     10          6           0       23.288101    1.888377    1.768879
     11          6           0       24.787397    3.880507    1.955716
     12          6           0       21.212444    4.605711    0.745118
     13          6           0       21.309779    6.133540    0.786519
     14          1           0       20.467581    6.852320   -0.298804
     15          7           0       23.278230   -1.135560    2.296566
     16          6           0       23.631582   -0.150278    3.251528
     17          6           0       23.678692   -0.813998    4.534878
     18          6           0       23.595789   -2.183134    4.297838
     19          6           0       23.397360   -2.350394    2.823917
     20          6           0       24.011914   -0.112426    5.838028
     21          6           0       23.607067   -3.366617    5.238052
     22          8           0       23.438753   -4.469660    4.806436
     23          6           0       23.748309   -3.204412    6.718687
     24          7           0       23.139397   -2.727535   -0.278005
     25          6           0       23.302221   -3.715359    0.649040
     26          6           0       23.297702   -5.056205   -0.136369
     27          6           0       22.492594   -4.803147   -1.398387
     28          6           0       22.721823   -3.279021   -1.529784
     29          6           0       24.731158   -5.424122   -0.516742
     30          6           0       21.066944   -5.206823   -1.317298
     31          6           0       20.260588   -4.812560   -0.104684
     32          7           0       22.426730   -0.322696   -1.751788
     33          6           0       22.345862   -1.159665   -2.848795
     34          6           0       22.042666   -0.351437   -4.039993
     35          6           0       21.979449    0.971750   -3.569613
     36          6           0       22.210764    0.935075   -2.221605
     37          6           0       21.900147   -0.844493   -5.414958
     38          6           0       21.630912    2.326379   -3.904873
     39          8           0       21.240755    2.835481   -4.996459
     40          6           0       21.782363    3.199441   -2.570754
     41          6           0       22.836079    4.236996   -2.859697
     42          8           0       23.886945    3.972348   -3.364020
     43          8           0       22.527542    5.558308   -2.436772
     44          6           0       23.682324    6.507079   -2.425154
     45          1           0       23.937516    1.791872    3.827626
     46          1           0       23.695508   -4.415746    2.534094
     47          1           0       22.243289   -3.129657   -3.615577
     48          1           0       23.201990    4.562061   -0.175883
     49          1           0       22.745742    3.817759    2.609822
     50          1           0       24.744702    4.761498    2.595929
     51          1           0       25.278060    4.033809    0.994311
     52          1           0       25.259850    3.124332    2.582599
     53          1           0       20.811796    4.278343    1.705000
     54          1           0       20.474784    4.291125    0.006604
     55          1           0       22.385601    6.283066    0.692847
     56          1           0       21.070336    6.533844    1.771486
     57          1           0       23.818313    0.939450    5.631288
     58          1           0       25.091040   -0.244180    5.911628
     59          1           0       23.390776   -0.454242    6.666197
     60          1           0       22.769502   -2.780623    6.943927
     61          1           0       24.518106   -2.497563    7.027146
     62          1           0       23.905374   -4.173712    7.193099
     63          1           0       22.924481   -5.917667    0.416345
     64          1           0       22.837207   -5.333275   -2.285634
     65          1           0       25.082587   -5.251391   -1.534026
     66          1           0       24.862512   -6.483300   -0.295649
     67          1           0       25.403297   -4.891024    0.156634
     68          1           0       20.938736   -6.279161   -1.466677
     69          1           0       20.611245   -4.724008   -2.181579
     70          1           0       19.533423   -4.082352   -0.460990
     71          1           0       20.694745   -4.373525    0.794058
     72          1           0       19.684159   -5.681172    0.213268
     73          1           0       22.884510   -1.152073   -5.767680
     74          1           0       21.465736    0.001128   -5.948048
     75          1           0       21.275527   -1.737824   -5.456411
     76          1           0       20.777460    3.574791   -2.376523
     77          1           0       23.902350    6.847066   -3.437082
     78          1           0       24.587462    6.077138   -1.993813
     79          1           0       23.517981    7.452462   -1.908894
     80         12           0      -22.196764   -0.649834   -0.100837
     81          6           0      -23.633079    2.101363    1.692908
     82          6           0      -20.339177    1.475507   -1.778300
     83          6           0      -21.614287   -3.183074   -2.157010
     84          6           0      -24.655524   -2.747428    1.655105
     85          7           0      -21.986266    1.537036   -0.002970
     86          6           0      -22.678772    2.492233    0.767472
     87          6           0      -22.233859    3.977656    0.488716
     88          6           0      -21.074815    3.662715   -0.642238
     89          6           0      -21.090813    2.150050   -0.838689
     90          6           0      -21.354017    4.410195   -2.016201
     91          6           0      -21.761390    4.795992    1.740537
     92          6           0      -20.957362    6.056121    1.443438
     93          1           0      -21.658102    7.371641    1.829378
     94          7           0      -21.038605   -0.844603   -1.691488
     95          6           0      -20.277368    0.128592   -2.295080
     96          6           0      -19.509617   -0.383759   -3.410381
     97          6           0      -19.901804   -1.778605   -3.489239
     98          6           0      -20.856747   -1.995224   -2.344617
     99          6           0      -18.524209    0.342019   -4.199427
    100          6           0      -19.447441   -2.867890   -4.445215
    101          8           0      -19.752973   -4.022794   -4.342424
    102          6           0      -18.635763   -2.379644   -5.615576
    103          7           0      -23.068399   -2.669874   -0.273512
    104          6           0      -22.595389   -3.521033   -1.218443
    105          6           0      -23.235976   -4.927052   -1.070557
    106          6           0      -24.089863   -4.770589    0.235556
    107          6           0      -23.897992   -3.313308    0.609059
    108          6           0      -24.073928   -5.488011   -2.269623
    109          6           0      -23.694964   -5.701513    1.435829
    110          6           0      -24.194454   -7.154246    1.273711
    111          7           0      -23.814847   -0.451934    1.328643
    112          6           0      -24.628062   -1.353758    1.975483
    113          6           0      -25.383220   -0.672473    2.950353
    114          6           0      -25.105411    0.640358    2.867664
    115          6           0      -24.133824    0.780008    1.830688
    116          6           0      -26.275340   -1.427312    3.927223
    117          6           0      -25.379900    2.008955    3.316969
    118          8           0      -26.153502    2.421810    4.142017
    119          6           0      -24.417018    3.012807    2.520696
    120          6           0      -25.280916    3.826846    1.611089
    121          8           0      -25.687311    3.623991    0.489158
    122          8           0      -25.529697    4.989016    2.314008
    123          6           0      -26.360500    6.017065    1.643092
    124          1           0      -19.722862    2.105824   -2.422563
    125          1           0      -21.494907   -3.924170   -2.951002
    126          1           0      -25.242973   -3.519074    2.158050
    127          1           0      -23.047602    4.471466   -0.042649
    128          1           0      -20.126675    4.045463   -0.263846
    129          1           0      -20.426088    4.848277   -2.383478
    130          1           0      -22.138127    5.165682   -2.058624
    131          1           0      -21.590624    3.687650   -2.796652
    132          1           0      -21.221647    4.015020    2.277714
    133          1           0      -22.506843    5.090748    2.479456
    134          1           0      -20.739292    6.094816    0.376547
    135          1           0      -20.078947    6.067575    2.088103
    136          1           0      -17.629560   -0.211461   -3.914269
    137          1           0      -18.513690    1.400506   -3.938984
    138          1           0      -18.602877    0.295562   -5.285403
    139          1           0      -17.575487   -2.454888   -5.374592
    140          1           0      -19.069653   -1.515090   -6.118795
    141          1           0      -18.959244   -3.035746   -6.423163
    142          1           0      -22.426131   -5.568343   -0.721433
    143          1           0      -25.147093   -4.826735   -0.024645
    144          1           0      -25.114907   -5.734388   -2.058432
    145          1           0      -23.641774   -6.464996   -2.484904
    146          1           0      -24.097820   -4.857798   -3.158639
    147          1           0      -24.140069   -5.315009    2.351986
    148          1           0      -22.609732   -5.617629    1.508434
    149          1           0      -25.030314   -7.193546    0.574948
    150          1           0      -24.452839   -7.492314    2.277160
    151          1           0      -23.459585   -7.833747    0.840996
    152          1           0      -26.399727   -0.872362    4.857158
    153          1           0      -25.848535   -2.415483    4.099155
    154          1           0      -27.236680   -1.653680    3.465513
    155          1           0      -23.830853    3.633098    3.199163
    156          1           0      -27.009542    6.418705    2.421150
    157          1           0      -26.965598    5.638249    0.819542
    158          1           0      -25.572080    6.706167    1.338797
 ---------------------------------------------------------------------

 SCF Done:  E(RwB97XD) =  -4070.61366842     A.U. after   20 cycles

 Excitation energies and oscillator strengths:

 Excited State   1:      Singlet-A      1.6367 eV  757.54 nm  f=0.3860  <S**2>=0.000
     310 -> 316       -0.18387
     312 -> 314        0.68397
     310 <- 316       -0.11738
 This state for optimization and/or second-order correction.
 Total Energy, E(TD-HF/TD-DFT) =  -4070.55352166
 Copying the excited state density for this state as the 1-particle RhoCI density.

 Excited State   2:      Singlet-A      1.6528 eV  750.15 nm  f=0.3794  <S**2>=0.000
     309 -> 315       -0.17777
     311 -> 313        0.68523
     309 <- 315       -0.11376

 Excited State   3:      Singlet-A      2.1347 eV  580.81 nm  f=0.1139  <S**2>=0.000
     309 -> 313        0.64471
     311 -> 315        0.27148

 Excited State   4:      Singlet-A      2.1545 eV  575.45 nm  f=0.1362  <S**2>=0.000
     310 -> 314        0.64886
     312 -> 316        0.26861

 Excited State   5:      Singlet-A      3.3779 eV  367.05 nm  f=0.0300  <S**2>=0.000
     299 -> 313       -0.15962
     304 -> 313        0.38349
     306 -> 313        0.36716
     308 -> 313        0.34698
     311 -> 315        0.19133

 The electronic state is 1-A.
 Alpha  occ. eigenvalues --  -46.94975 -46.94897 -19.29732 -19.29082 -19.24954
 Alpha  occ. eigenvalues --  -19.24843 -19.24165 -19.24165 -19.23964 -19.23293
 Alpha  occ. eigenvalues --  -14.48049 -14.46818 -14.45948 -14.45899 -14.44361
 Alpha  occ. eigenvalues --  -14.44212 -14.43641 -14.43448 -10.43255 -10.42813
 Alpha  occ. eigenvalues --  -10.39298 -10.39200 -10.38772 -10.38718 -10.35964
 Alpha  occ. eigenvalues --  -10.35468 -10.35384 -10.35118 -10.35082 -10.34962
 Alpha  occ. eigenvalues --  -10.34934 -10.34883 -10.34772 -10.34534 -10.34380
 Alpha  occ. eigenvalues --  -10.34236 -10.34136 -10.34107 -10.33679 -10.33362
 Alpha  occ. eigenvalues --  -10.33354 -10.33107 -10.32975 -10.32973 -10.32943
 Alpha  occ. eigenvalues --  -10.32903 -10.32800 -10.32537 -10.32512 -10.32339
 Alpha  occ. eigenvalues --  -10.32337 -10.32329 -10.32267 -10.32206 -10.31801
 Alpha  occ. eigenvalues --  -10.31721 -10.31694 -10.31196 -10.31167 -10.31159
 Alpha  occ. eigenvalues --  -10.31142 -10.31040 -10.30920 -10.30883 -10.30855
 Alpha  occ. eigenvalues --  -10.30848 -10.30843 -10.30783 -10.30721 -10.30648
 Alpha  occ. eigenvalues --  -10.30634 -10.30515 -10.30319 -10.30033 -10.29728
 Alpha  occ. eigenvalues --  -10.29683 -10.29593 -10.29585 -10.29477 -10.29379
 Alpha  occ. eigenvalues --  -10.29312 -10.28976 -10.28938 -10.28746 -10.28408
 Alpha  occ. eigenvalues --  -10.28291  -3.20908  -3.20887  -1.94520  -1.94473
 Alpha  occ. eigenvalues --   -1.94008  -1.93988  -1.93895  -1.93875  -1.17853
 Alpha  occ. eigenvalues --   -1.17750  -1.14398  -1.13579  -1.13044  -1.09659
 Alpha  occ. eigenvalues --   -1.09586  -1.08864  -1.07338  -1.05817  -1.05652
 Alpha  occ. eigenvalues --   -1.05337  -1.04938  -1.04496  -1.03779  -1.03611
 Alpha  occ. eigenvalues --   -0.94998  -0.94936  -0.92012  -0.91339  -0.90825
 Alpha  occ. eigenvalues --   -0.90789  -0.90137  -0.89966  -0.89830  -0.89094
 Alpha  occ. eigenvalues --   -0.88868  -0.88759  -0.88127  -0.87971  -0.86632
 Alpha  occ. eigenvalues --   -0.85818  -0.85441  -0.85081  -0.84604  -0.84446
 Alpha  occ. eigenvalues --   -0.84066  -0.83957  -0.83064  -0.82657  -0.82036
 Alpha  occ. eigenvalues --   -0.81887  -0.80947  -0.80075  -0.79275  -0.79023
 Alpha  occ. eigenvalues --   -0.78881  -0.78564  -0.78230  -0.77469  -0.76958
 Alpha  occ. eigenvalues --   -0.76757  -0.74757  -0.74449  -0.73328  -0.73275
 Alpha  occ. eigenvalues --   -0.71626  -0.71566  -0.70866  -0.70666  -0.69839
 Alpha  occ. eigenvalues --   -0.69723  -0.69116  -0.68962  -0.67801  -0.67004
 Alpha  occ. eigenvalues --   -0.66981  -0.66565  -0.66352  -0.66223  -0.65892
 Alpha  occ. eigenvalues --   -0.65354  -0.63774  -0.63464  -0.62437  -0.62069
 Alpha  occ. eigenvalues --   -0.61928  -0.61464  -0.61171  -0.60976  -0.60804
 Alpha  occ. eigenvalues --   -0.60559  -0.60259  -0.59825  -0.59614  -0.58898
 Alpha  occ. eigenvalues --   -0.58441  -0.58092  -0.57777  -0.57665  -0.56983
 Alpha  occ. eigenvalues --   -0.56724  -0.56463  -0.56371  -0.56195  -0.56053
 Alpha  occ. eigenvalues --   -0.56025  -0.55961  -0.55695  -0.55619  -0.55608
 Alpha  occ. eigenvalues --   -0.55007  -0.54616  -0.54377  -0.54305  -0.53892
 Alpha  occ. eigenvalues --   -0.53830  -0.53644  -0.53557  -0.53469  -0.53282
 Alpha  occ. eigenvalues --   -0.52934  -0.52766  -0.52643  -0.52448  -0.52217
 Alpha  occ. eigenvalues --   -0.52097  -0.51932  -0.51724  -0.51645  -0.51612
 Alpha  occ. eigenvalues --   -0.51563  -0.51414  -0.51102  -0.51061  -0.51050
 Alpha  occ. eigenvalues --   -0.50763  -0.50340  -0.50291  -0.50174  -0.49913
 Alpha  occ. eigenvalues --   -0.49738  -0.49702  -0.49659  -0.49606  -0.49109
 Alpha  occ. eigenvalues --   -0.48963  -0.48690  -0.48674  -0.48292  -0.48284
 Alpha  occ. eigenvalues --   -0.47825  -0.47819  -0.47665  -0.47480  -0.47356
 Alpha  occ. eigenvalues --   -0.47352  -0.47216  -0.47132  -0.47114  -0.46961
 Alpha  occ. eigenvalues --   -0.46936  -0.46780  -0.46651  -0.46256  -0.46107
 Alpha  occ. eigenvalues --   -0.45958  -0.45776  -0.45667  -0.45460  -0.45457
 Alpha  occ. eigenvalues --   -0.45152  -0.45100  -0.45058  -0.44796  -0.44676
 Alpha  occ. eigenvalues --   -0.44485  -0.44476  -0.44421  -0.43993  -0.43794
 Alpha  occ. eigenvalues --   -0.43766  -0.43580  -0.43512  -0.43046  -0.42975
 Alpha  occ. eigenvalues --   -0.42916  -0.42808  -0.42693  -0.42393  -0.42307
 Alpha  occ. eigenvalues --   -0.42180  -0.41672  -0.41443  -0.41221  -0.40703
 Alpha  occ. eigenvalues --   -0.40330  -0.39988  -0.39703  -0.39673  -0.39305
 Alpha  occ. eigenvalues --   -0.39111  -0.38993  -0.38510  -0.38455  -0.38401
 Alpha  occ. eigenvalues --   -0.38245  -0.37734  -0.36646  -0.36566  -0.36525
 Alpha  occ. eigenvalues --   -0.35927  -0.35428  -0.34870  -0.33930  -0.33474
 Alpha  occ. eigenvalues --   -0.33395  -0.32831  -0.32573  -0.32357  -0.32290
 Alpha  occ. eigenvalues --   -0.32168  -0.31922  -0.31472  -0.26100  -0.25500
 Alpha  occ. eigenvalues --   -0.23229  -0.22762
 Alpha virt. eigenvalues --   -0.07319  -0.06891   0.00163   0.00801   0.02458
 Alpha virt. eigenvalues --    0.02941   0.04274   0.04727   0.05655   0.06238
 Alpha virt. eigenvalues --    0.07123   0.07494   0.07695   0.08069   0.08141

 Mulliken charges:
               1
     1  Mg   0.953927
     2  C   -0.043029
     3  C   -0.110276
     4  C   -0.074512
     5  C   -0.071295
     6  N   -0.321044
     7  C   -0.004094
     8  C   -0.076416
     9  C   -0.141359
    10  C    0.116685
    11  C    0.056691
    12  C    0.009131
    13  C   -0.101853
    14  H    0.060720
    15  N   -0.444754
    16  C    0.147240
    17  C   -0.177202
    18  C   -0.058149
    19  C    0.148343
    20  C    0.068186
    21  C    0.023031
    22  O   -0.209928
    23  C   -0.009678
    24  N   -0.406380
    25  C    0.080236
    26  C   -0.094087
    27  C   -0.044074
    28  C    0.108188
    29  C    0.034230
    30  C    0.007477
    31  C   -0.069465
    32  N   -0.442704
    33  C    0.083594
    34  C   -0.209119
    35  C    0.007033
    36  C    0.127584
    37  C    0.079118
    38  C    0.099166
    39  O   -0.251523
    40  C   -0.045709
    41  C    0.263408
    42  O   -0.210405
    43  O   -0.401525
    44  C    0.135680
    45  H    0.006458
    46  H    0.021276
    47  H   -0.000372
    48  H    0.038136
    49  H    0.035951
    50  H    0.032107
    51  H    0.057760
    52  H    0.022857
    53  H    0.027408
    54  H    0.042820
    55  H    0.027512
    56  H    0.044615
    57  H    0.032561
    58  H    0.076119
    59  H    0.059643
    60  H    0.059829
    61  H    0.052682
    62  H    0.061962
    63  H    0.025025
    64  H    0.018265
    65  H    0.045009
    66  H    0.032964
    67  H    0.031288
    68  H    0.032139
    69  H    0.016175
    70  H    0.030654
    71  H    0.056719
    72  H    0.029933
    73  H    0.053949
    74  H    0.066180
    75  H    0.035059
    76  H    0.077630
    77  H    0.056928
    78  H    0.049884
    79  H    0.051784
    80  Mg   0.976963
    81  C   -0.038746
    82  C   -0.071963
    83  C   -0.068480
    84  C   -0.096302
    85  N   -0.383248
    86  C   -0.009762
    87  C   -0.026878
    88  C   -0.121414
    89  C    0.109428
    90  C   -0.013731
    91  C   -0.019445
    92  C   -0.123071
    93  H    0.029461
    94  N   -0.491513
    95  C    0.111806
    96  C   -0.136079
    97  C   -0.128142
    98  C    0.164612
    99  C    0.081563
   100  C    0.041248
   101  O   -0.208215
   102  C   -0.027587
   103  N   -0.338824
   104  C    0.031173
   105  C   -0.031766
   106  C   -0.109799
   107  C    0.026921
   108  C    0.019867
   109  C   -0.035730
   110  C   -0.029310
   111  N   -0.401471
   112  C    0.165236
   113  C   -0.242031
   114  C    0.013977
   115  C    0.138469
   116  C    0.096262
   117  C    0.119953
   118  O   -0.173097
   119  C   -0.118241
   120  C    0.285081
   121  O   -0.233234
   122  O   -0.386733
   123  C    0.128204
   124  H   -0.028675
   125  H    0.025178
   126  H    0.001821
   127  H    0.050892
   128  H    0.047816
   129  H    0.031124
   130  H    0.050483
   131  H    0.042811
   132  H    0.033680
   133  H    0.059772
   134  H    0.061114
   135  H    0.063920
   136  H    0.057850
   137  H    0.039878
   138  H    0.047137
   139  H    0.079769
   140  H    0.047407
   141  H    0.039966
   142  H    0.038801
   143  H    0.032550
   144  H    0.032683
   145  H    0.039125
   146  H    0.051697
   147  H    0.028448
   148  H    0.032727
   149  H    0.031907
   150  H    0.042751
   151  H    0.037471
   152  H    0.058673
   153  H    0.027624
   154  H    0.045766
   155  H    0.080995
   156  H    0.063674
   157  H    0.072772
   158  H    0.054984
 Sum of Mulliken charges =  -0.00000

 Dipole moment (field-independent basis, Debye):
    X=              4.2215    Y=              0.8039    Z=              5.7159  Tot=              7.1512
 Quadrupole moment (field-independent basis, Debye-Ang):
   XX=           -615.0814   YY=           -474.7778   ZZ=           -518.6083
   XY=             15.0562   XZ=            200.8491   YZ=             17.3605

 Normal termination of Gaussian 16 at Sat Sep 18 08:21:09 2021.
