 Gaussian 16, Revision A.03,
 Gaussian 16:  ES64L-G16RevA.03 25-Dec-2016

 --------------------------------
 #p wB97XD/Def2SVP td=(nstates=5)
 --------------------------------

 --------------------------------
 TDDFT excited states in gaussian
 --------------------------------
 Symbolic Z-matrix:
 Charge =  0 Multiplicity = 1

                         Standard orientation:
 ---------------------------------------------------------------------
 Center     Atomic      Atomic             Coordinates (Angstroms)
 Number     Number       Type             X           Y           Z
 ---------------------------------------------------------------------
      1         12           0        8.968491   -0.403166   -0.120899
      2          6           0        7.069662    2.439084   -0.987059
      3          6           0       11.221515    1.675664    1.432729
      4          6           0       10.874651   -3.051324    0.675553
      5          6           0        6.972777   -2.397047   -2.190863
      6          7           0        8.975186    1.751989    0.248618
      7          6           0        8.181978    2.749597   -0.131368
      8          6           0        8.573530    4.162899    0.348041
      9          6           0       10.054206    3.793988    0.845751
     10          6           0       10.108558    2.286551    0.797441
     11          6           0       11.147856    4.422335    0.016630
     12          6           0        7.635119    4.750070    1.541432
     13          6           0        7.588813    6.280563    1.571366
     14          1           0        6.173146    6.876472    1.360064
     15          7           0       10.743102   -0.704571    1.068152
     16          6           0       11.548923    0.341637    1.581659
     17          6           0       12.506413   -0.271704    2.474271
     18          6           0       12.417188   -1.649359    2.296222
     19          6           0       11.299882   -1.883695    1.328490
     20          6           0       13.557659    0.501771    3.247614
     21          6           0       13.168055   -2.794433    2.936352
     22          8           0       12.860236   -3.922280    2.682317
     23          6           0       14.248224   -2.570564    3.947122
     24          7           0        9.068433   -2.386065   -0.816030
     25          6           0        9.903427   -3.321980   -0.278843
     26          6           0        9.501972   -4.681730   -0.914981
     27          6           0        8.039702   -4.551130   -1.301809
     28          6           0        7.975156   -3.016934   -1.488491
     29          6           0       10.337996   -4.918253   -2.171946
     30          6           0        7.082579   -5.091039   -0.304602
     31          6           0        7.263248   -4.738950    1.151241
     32          7           0        7.327192   -0.113209   -1.331185
     33          6           0        6.612767   -0.989605   -2.126174
     34          6           0        5.514614   -0.254865   -2.772958
     35          6           0        5.656884    1.070284   -2.325950
     36          6           0        6.733533    1.100921   -1.482227
     37          6           0        4.535829   -0.804442   -3.718416
     38          6           0        5.046472    2.372039   -2.284370
     39          8           0        3.979518    2.803945   -2.811659
     40          6           0        5.968236    3.299095   -1.359185
     41          6           0        6.451783    4.425800   -2.234994
     42          8           0        6.913184    4.250054   -3.323536
     43          8           0        6.381783    5.723249   -1.659102
     44          6           0        7.149523    6.781517   -2.383303
     45          1           0       11.974826    2.322378    1.886133
     46          1           0       11.522335   -3.917790    0.826954
     47          1           0        6.211579   -2.984165   -2.709376
     48          1           0        8.487680    4.873346   -0.475096
     49          1           0       10.088322    4.179328    1.865543
     50          1           0       11.461157    5.315300    0.557275
     51          1           0       10.850710    4.591824   -1.018516
     52          1           0       11.987758    3.737604    0.133683
     53          1           0        8.014140    4.416322    2.507878
     54          1           0        6.627265    4.339967    1.473936
     55          1           0        8.304116    6.532673    0.788226
     56          1           0        8.033953    6.687298    2.479195
     57          1           0       13.176298    1.521972    3.268104
     58          1           0       14.414248    0.479948    2.574510
     59          1           0       13.687465    0.127511    4.263289
     60          1           0       13.637804   -2.238565    4.787098
     61          1           0       14.954315   -1.781263    3.690585
     62          1           0       14.774068   -3.503474    4.153142
     63          1           0        9.679440   -5.557302   -0.291458
     64          1           0        7.749843   -5.073367   -2.212989
     65          1           0        9.899033   -4.745054   -3.154555
     66          1           0       10.683823   -5.951406   -2.140440
     67          1           0       11.233131   -4.299452   -2.099724
     68          1           0        6.990390   -6.175121   -0.374796
     69          1           0        6.122096   -4.684306   -0.620504
     70          1           0        6.419451   -4.096376    1.404284
     71          1           0        8.143025   -4.229858    1.545955
     72          1           0        7.134518   -5.649445    1.736285
     73          1           0        5.053879   -1.024496   -4.651791
     74          1           0        3.778228   -0.023910   -3.787576
     75          1           0        4.133263   -1.756082   -3.368800
     76          1           0        5.322450    3.579318   -0.526792
     77          1           0        6.601422    7.108231   -3.266957
     78          1           0        8.146005    6.457648   -2.687132
     79          1           0        7.284079    7.722418   -1.850498
     80         12           0       -8.416155   -0.987465    0.375695
     81          6           0      -10.533340    1.730717    0.821692
     82          6           0       -5.794863    1.244123    0.798208
     83          6           0       -6.332755   -3.507968   -0.558515
     84          6           0      -11.169961   -3.001581   -0.186252
     85          7           0       -8.199392    1.246322    0.710996
     86          6           0       -9.209928    2.176100    0.903207
     87          6           0       -8.689836    3.657896    1.069509
     88          6           0       -7.164834    3.447132    0.723644
     89          6           0       -7.023046    1.880550    0.699872
     90          6           0       -6.558593    4.022519   -0.559675
     91          6           0       -9.003321    4.195285    2.477902
     92          6           0      -10.092465    5.229252    2.591188
     93          1           0       -9.881368    6.348399    3.626328
     94          7           0       -6.355813   -1.213650    0.326102
     95          6           0       -5.506048   -0.190989    0.612005
     96          6           0       -4.149986   -0.747132    0.438241
     97          6           0       -4.258909   -2.061323   -0.042618
     98          6           0       -5.640861   -2.340617   -0.106209
     99          6           0       -2.958796    0.011657    0.863319
    100          6           0       -3.191924   -3.029659   -0.461915
    101          8           0       -3.425706   -4.230211   -0.774374
    102          6           0       -1.809298   -2.689199   -0.583969
    103          7           0       -8.693355   -2.942781   -0.185331
    104          6           0       -7.687306   -3.805004   -0.496752
    105          6           0       -8.159790   -5.149126   -0.890132
    106          6           0       -9.716834   -5.030115   -0.719029
    107          6           0       -9.861393   -3.587136   -0.411243
    108          6           0       -7.796168   -5.818279   -2.248271
    109          6           0      -10.377946   -6.062212    0.322193
    110          6           0      -10.443178   -5.798248    1.855884
    111          7           0      -10.435264   -0.756934    0.273998
    112          6           0      -11.435565   -1.664676    0.076164
    113          6           0      -12.677283   -1.076586    0.332085
    114          6           0      -12.338637    0.314918    0.546123
    115          6           0      -10.963411    0.435497    0.526040
    116          6           0      -14.046352   -1.752464    0.379777
    117          6           0      -12.934762    1.564467    0.922622
    118          8           0      -14.055949    1.916921    1.227681
    119          6           0      -11.759893    2.603679    0.885897
    120          6           0      -11.900475    3.478607   -0.294949
    121          8           0      -11.140840    3.514920   -1.287869
    122          8           0      -12.984053    4.284977   -0.268671
    123          6           0      -13.116978    5.385258   -1.283565
    124          1           0       -4.975715    1.961954    0.868190
    125          1           0       -5.720717   -4.344628   -0.902374
    126          1           0      -12.081470   -3.603707   -0.179254
    127          1           0       -8.970632    4.288748    0.225484
    128          1           0       -6.617292    3.830703    1.584502
    129          1           0       -6.311369    3.217690   -1.252348
    130          1           0       -5.576327    4.403184   -0.283673
    131          1           0       -7.162087    4.774395   -1.069352
    132          1           0       -8.087429    4.692437    2.799547
    133          1           0       -9.157160    3.342653    3.139303
    134          1           0      -11.011153    4.706126    2.857919
    135          1           0      -10.354492    5.740458    1.664739
    136          1           0       -2.512192   -0.592625    1.651877
    137          1           0       -3.070818    1.034118    1.226352
    138          1           0       -2.251281    0.071836    0.036375
    139          1           0       -1.796716   -1.728811   -1.098662
    140          1           0       -1.237452   -3.527123   -0.980593
    141          1           0       -1.380290   -2.435075    0.385329
    142          1           0       -7.715453   -5.729442   -0.082018
    143          1           0      -10.196563   -5.174340   -1.686383
    144          1           0       -7.171854   -6.701851   -2.115179
    145          1           0       -7.216553   -5.142302   -2.877835
    146          1           0       -8.666652   -6.071551   -2.853318
    147          1           0       -9.741114   -6.939061    0.203303
    148          1           0      -11.348001   -6.221933   -0.148774
    149          1           0      -10.153648   -4.795929    2.170467
    150          1           0       -9.993541   -6.560527    2.492803
    151          1           0      -11.497804   -5.937458    2.089902
    152          1           0      -14.751256   -1.294308   -0.314774
    153          1           0      -14.458526   -1.585501    1.374801
    154          1           0      -14.022423   -2.835099    0.252807
    155          1           0      -11.912524    3.293155    1.716392
    156          1           0      -13.901378    5.940714   -0.769286
    157          1           0      -13.404013    5.060110   -2.283021
    158          1           0      -12.175999    5.931101   -1.358891
 ---------------------------------------------------------------------

 SCF Done:  E(RwB97XD) =  -4070.61010291     A.U. after   19 cycles

 Excitation energies and oscillator strengths:

 Excited State   1:      Singlet-A      1.6371 eV  757.36 nm  f=0.7063  <S**2>=0.000
     310 -> 316       -0.14830
     311 -> 313       -0.39371
     312 -> 314        0.55964
 This state for optimization and/or second-order correction.
 Total Energy, E(TD-HF/TD-DFT) =  -4070.54994241
 Copying the excited state density for this state as the 1-particle RhoCI density.

 Excited State   2:      Singlet-A      1.6621 eV  745.96 nm  f=0.0830  <S**2>=0.000
     309 -> 315       -0.14694
     310 -> 316       -0.10717
     311 -> 313        0.56116
     312 -> 314        0.39087

 Excited State   3:      Singlet-A      2.1340 eV  580.98 nm  f=0.0840  <S**2>=0.000
     309 -> 313        0.64083
     311 -> 315        0.26908

 Excited State   4:      Singlet-A      2.1522 eV  576.07 nm  f=0.1593  <S**2>=0.000
     310 -> 314        0.64426
     312 -> 316        0.26331

 Excited State   5:      Singlet-A      3.3267 eV  372.70 nm  f=0.0000  <S**2>=0.000
     312 -> 313        0.70652

 The electronic state is 1-A.
 Alpha  occ. eigenvalues --  -46.95091 -46.93655 -19.29870 -19.29069 -19.25089
 Alpha  occ. eigenvalues --  -19.24264 -19.23449 -19.23062 -19.22988 -19.22751
 Alpha  occ. eigenvalues --  -14.48168 -14.46390 -14.46224 -14.46059 -14.44474
 Alpha  occ. eigenvalues --  -14.43926 -14.43767 -14.42731 -10.43392 -10.42154
 Alpha  occ. eigenvalues --  -10.39297 -10.38929 -10.38217 -10.37976 -10.36095
 Alpha  occ. eigenvalues --  -10.35596 -10.35568 -10.35496 -10.35239 -10.35200
 Alpha  occ. eigenvalues --  -10.34900 -10.34766 -10.34636 -10.34570 -10.34448
 Alpha  occ. eigenvalues --  -10.34261 -10.33933 -10.33873 -10.33793 -10.33474
 Alpha  occ. eigenvalues --  -10.33102 -10.32945 -10.32690 -10.32656 -10.32490
 Alpha  occ. eigenvalues --  -10.32453 -10.32450 -10.32366 -10.32328 -10.32305
 Alpha  occ. eigenvalues --  -10.32283 -10.32040 -10.31988 -10.31837 -10.31632
 Alpha  occ. eigenvalues --  -10.31630 -10.31502 -10.31340 -10.31278 -10.31252
 Alpha  occ. eigenvalues --  -10.31231 -10.31133 -10.31094 -10.30938 -10.30922
 Alpha  occ. eigenvalues --  -10.30805 -10.30741 -10.30629 -10.30600 -10.30571
 Alpha  occ. eigenvalues --  -10.30535 -10.30482 -10.30430 -10.30003 -10.29794
 Alpha  occ. eigenvalues --  -10.29739 -10.29602 -10.29549 -10.29390 -10.29381
 Alpha  occ. eigenvalues --  -10.29213 -10.29069 -10.29049 -10.28537 -10.28430
 Alpha  occ. eigenvalues --  -10.28382  -3.21024  -3.19783  -1.94637  -1.94124
 Alpha  occ. eigenvalues --   -1.94011  -1.93388  -1.92916  -1.92762  -1.17886
 Alpha  occ. eigenvalues --   -1.17089  -1.14495  -1.11553  -1.09901  -1.09726
 Alpha  occ. eigenvalues --   -1.09021  -1.07460  -1.07051  -1.06664  -1.05896
 Alpha  occ. eigenvalues --   -1.05769  -1.05060  -1.05023  -1.04058  -1.03887
 Alpha  occ. eigenvalues --   -0.95069  -0.94850  -0.92123  -0.91446  -0.90896
 Alpha  occ. eigenvalues --   -0.90657  -0.90120  -0.90000  -0.89950  -0.89286
 Alpha  occ. eigenvalues --   -0.88974  -0.88697  -0.88252  -0.87826  -0.86754
 Alpha  occ. eigenvalues --   -0.86046  -0.85536  -0.85356  -0.84700  -0.84564
 Alpha  occ. eigenvalues --   -0.84459  -0.84141  -0.83184  -0.82710  -0.82278
 Alpha  occ. eigenvalues --   -0.82010  -0.81057  -0.80280  -0.79396  -0.79222
 Alpha  occ. eigenvalues --   -0.79135  -0.78540  -0.78348  -0.77925  -0.77065
 Alpha  occ. eigenvalues --   -0.77007  -0.74870  -0.74569  -0.73439  -0.73089
 Alpha  occ. eigenvalues --   -0.71837  -0.71718  -0.70984  -0.70492  -0.69966
 Alpha  occ. eigenvalues --   -0.69752  -0.69240  -0.68866  -0.67926  -0.67102
 Alpha  occ. eigenvalues --   -0.66932  -0.66793  -0.66403  -0.66342  -0.66140
 Alpha  occ. eigenvalues --   -0.65450  -0.63899  -0.63271  -0.62542  -0.62052
 Alpha  occ. eigenvalues --   -0.61709  -0.61378  -0.61292  -0.61085  -0.60925
 Alpha  occ. eigenvalues --   -0.60701  -0.60367  -0.59731  -0.59510  -0.59064
 Alpha  occ. eigenvalues --   -0.58549  -0.57921  -0.57893  -0.57346  -0.56848
 Alpha  occ. eigenvalues --   -0.56633  -0.56555  -0.56142  -0.56142  -0.56073
 Alpha  occ. eigenvalues --   -0.55807  -0.55729  -0.55539  -0.55134  -0.54975
 Alpha  occ. eigenvalues --   -0.54564  -0.54482  -0.54227  -0.54156  -0.53937
 Alpha  occ. eigenvalues --   -0.53770  -0.53743  -0.53588  -0.53586  -0.52890
 Alpha  occ. eigenvalues --   -0.52785  -0.52763  -0.52578  -0.52322  -0.52048
 Alpha  occ. eigenvalues --   -0.52022  -0.51868  -0.51760  -0.51674  -0.51456
 Alpha  occ. eigenvalues --   -0.51322  -0.51232  -0.51180  -0.51126  -0.50680
 Alpha  occ. eigenvalues --   -0.50512  -0.50411  -0.50280  -0.50157  -0.49892
 Alpha  occ. eigenvalues --   -0.49825  -0.49727  -0.49596  -0.49460  -0.49218
 Alpha  occ. eigenvalues --   -0.48941  -0.48812  -0.48482  -0.48390  -0.48231
 Alpha  occ. eigenvalues --   -0.47942  -0.47937  -0.47698  -0.47604  -0.47467
 Alpha  occ. eigenvalues --   -0.47389  -0.47259  -0.47091  -0.47044  -0.46959
 Alpha  occ. eigenvalues --   -0.46881  -0.46484  -0.46370  -0.46230  -0.45941
 Alpha  occ. eigenvalues --   -0.45774  -0.45670  -0.45597  -0.45569  -0.45473
 Alpha  occ. eigenvalues --   -0.45247  -0.45169  -0.45106  -0.44923  -0.44619
 Alpha  occ. eigenvalues --   -0.44600  -0.44553  -0.44493  -0.44205  -0.43889
 Alpha  occ. eigenvalues --   -0.43625  -0.43316  -0.43206  -0.43101  -0.43032
 Alpha  occ. eigenvalues --   -0.42825  -0.42480  -0.42434  -0.42274  -0.42019
 Alpha  occ. eigenvalues --   -0.41774  -0.41759  -0.41554  -0.41391  -0.40587
 Alpha  occ. eigenvalues --   -0.40441  -0.39927  -0.39816  -0.39603  -0.39422
 Alpha  occ. eigenvalues --   -0.39238  -0.38622  -0.38532  -0.38362  -0.38326
 Alpha  occ. eigenvalues --   -0.38181  -0.37406  -0.36774  -0.36639  -0.36082
 Alpha  occ. eigenvalues --   -0.35546  -0.35223  -0.34551  -0.34042  -0.33494
 Alpha  occ. eigenvalues --   -0.32989  -0.32491  -0.32309  -0.32299  -0.31922
 Alpha  occ. eigenvalues --   -0.31717  -0.31605  -0.31268  -0.26217  -0.25331
 Alpha  occ. eigenvalues --   -0.23350  -0.22692
 Alpha virt. eigenvalues --   -0.07436  -0.06816   0.00048   0.00832   0.02335
 Alpha virt. eigenvalues --    0.02982   0.04148   0.04687   0.06107   0.06833
 Alpha virt. eigenvalues --    0.07000   0.07557   0.07689   0.07924   0.08284

 Mulliken charges:
               1
     1  Mg   0.953784
     2  C   -0.042900
     3  C   -0.110661
     4  C   -0.074450
     5  C   -0.071228
     6  N   -0.321245
     7  C   -0.004342
     8  C   -0.076283
     9  C   -0.141425
    10  C    0.117120
    11  C    0.056601
    12  C    0.009155
    13  C   -0.101617
    14  H    0.060002
    15  N   -0.444642
    16  C    0.147533
    17  C   -0.177159
    18  C   -0.058002
    19  C    0.148358
    20  C    0.068331
    21  C    0.023255
    22  O   -0.209694
    23  C   -0.009786
    24  N   -0.406386
    25  C    0.080622
    26  C   -0.094220
    27  C   -0.044058
    28  C    0.107885
    29  C    0.034139
    30  C    0.007469
    31  C   -0.069482
    32  N   -0.442552
    33  C    0.083543
    34  C   -0.209920
    35  C    0.006872
    36  C    0.127112
    37  C    0.079205
    38  C    0.098474
    39  O   -0.252761
    40  C   -0.045498
    41  C    0.263274
    42  O   -0.210064
    43  O   -0.401743
    44  C    0.135530
    45  H    0.006705
    46  H    0.021611
    47  H    0.000017
    48  H    0.038212
    49  H    0.036024
    50  H    0.032267
    51  H    0.057885
    52  H    0.023078
    53  H    0.027430
    54  H    0.042161
    55  H    0.027819
    56  H    0.044810
    57  H    0.032532
    58  H    0.076342
    59  H    0.059807
    60  H    0.059858
    61  H    0.052811
    62  H    0.062264
    63  H    0.025303
    64  H    0.018775
    65  H    0.045235
    66  H    0.033317
    67  H    0.031291
    68  H    0.032784
    69  H    0.016051
    70  H    0.030033
    71  H    0.056570
    72  H    0.030404
    73  H    0.054656
    74  H    0.065251
    75  H    0.035013
    76  H    0.076527
    77  H    0.056985
    78  H    0.050170
    79  H    0.051857
    80  Mg   0.983799
    81  C   -0.026300
    82  C   -0.064828
    83  C   -0.072578
    84  C   -0.099741
    85  N   -0.335699
    86  C   -0.019592
    87  C   -0.045872
    88  C   -0.130834
    89  C    0.025485
    90  C    0.037063
    91  C    0.055348
    92  C   -0.143739
    93  H    0.037704
    94  N   -0.481872
    95  C    0.183369
    96  C   -0.190297
    97  C   -0.022762
    98  C    0.132001
    99  C    0.055794
   100  C    0.038575
   101  O   -0.281993
   102  C    0.024404
   103  N   -0.375328
   104  C    0.076574
   105  C   -0.094247
   106  C   -0.054773
   107  C    0.063492
   108  C    0.027667
   109  C   -0.032255
   110  C   -0.043487
   111  N   -0.452797
   112  C    0.130509
   113  C   -0.169972
   114  C   -0.056476
   115  C    0.215876
   116  C    0.092356
   117  C    0.091297
   118  O   -0.190768
   119  C   -0.123816
   120  C    0.263118
   121  O   -0.290506
   122  O   -0.357117
   123  C    0.146713
   124  H   -0.007547
   125  H    0.021273
   126  H   -0.014125
   127  H    0.038471
   128  H    0.026716
   129  H    0.048431
   130  H    0.033425
   131  H    0.052202
   132  H    0.035775
   133  H    0.046678
   134  H    0.064849
   135  H    0.052703
   136  H    0.056473
   137  H    0.043986
   138  H    0.039583
   139  H    0.045592
   140  H    0.065447
   141  H    0.043535
   142  H    0.046911
   143  H    0.036012
   144  H    0.044232
   145  H    0.039615
   146  H    0.036011
   147  H    0.034840
   148  H    0.039949
   149  H    0.056510
   150  H    0.039936
   151  H    0.028693
   152  H    0.060342
   153  H    0.053284
   154  H    0.024117
   155  H    0.056138
   156  H    0.065660
   157  H    0.066947
   158  H    0.053841
 Sum of Mulliken charges =  -0.00000

 Dipole moment (field-independent basis, Debye):
    X=              8.7270    Y=              1.0213    Z=              5.2781  Tot=             10.2500
 Quadrupole moment (field-independent basis, Debye-Ang):
   XX=           -474.5651   YY=           -467.3832   ZZ=           -516.5550
   XY=             54.0951   XZ=             45.5570   YZ=             19.0978

 Normal termination of Gaussian 16 at Fri Sep 17 18:34:39 2021.
