 Gaussian 16, Revision A.03,
 Gaussian 16:  ES64L-G16RevA.03 25-Dec-2016

 --------------------------------
 #p wB97XD/Def2SVP td=(nstates=5)
 --------------------------------

 --------------------------------
 TDDFT excited states in gaussian
 --------------------------------
 Symbolic Z-matrix:
 Charge =  0 Multiplicity = 1

                         Standard orientation:
 ---------------------------------------------------------------------
 Center     Atomic      Atomic             Coordinates (Angstroms)
 Number     Number       Type             X           Y           Z
 ---------------------------------------------------------------------
      1         12           0      -10.359843    0.513435   -0.167948
      2          6           0       -7.980885   -1.093689   -2.273857
      3          6           0      -11.182665   -2.526117    1.179953
      4          6           0      -11.841326    2.168747    2.536161
      5          6           0       -9.051141    3.616467   -1.171421
      6          7           0       -9.381109   -1.592219   -0.413260
      7          6           0       -8.645265   -2.032728   -1.446814
      8          6           0       -8.825833   -3.532990   -1.588847
      9          6           0       -9.812455   -4.030958   -0.426290
     10          6           0      -10.261135   -2.558929    0.053699
     11          6           0      -10.954682   -4.854976   -1.061969
     12          6           0       -7.484148   -4.246466   -1.545035
     13          6           0       -6.428539   -3.689260   -0.560657
     14          1           0       -6.146334   -4.530093    0.714349
     15          7           0      -11.471804   -0.096846    1.605452
     16          6           0      -11.653111   -1.422057    1.936564
     17          6           0      -12.560266   -1.424859    3.041116
     18          6           0      -12.723941   -0.082010    3.554539
     19          6           0      -12.043684    0.768131    2.544942
     20          6           0      -13.028974   -2.698071    3.706661
     21          6           0      -13.319352    0.344544    4.897272
     22          8           0      -13.693738   -0.496567    5.691551
     23          6           0      -13.455624    1.711755    5.301684
     24          7           0      -10.359019    2.576684    0.644433
     25          6           0      -11.142305    2.982201    1.632978
     26          6           0      -11.027407    4.470106    1.921870
     27          6           0       -9.834418    4.839203    0.938940
     28          6           0       -9.764929    3.660206    0.036814
     29          6           0      -12.372795    5.295932    1.624872
     30          6           0       -8.509149    5.170820    1.767735
     31          6           0       -7.960180    6.569039    1.801387
     32          7           0       -9.068313    1.156489   -1.567179
     33          6           0       -8.723958    2.467824   -1.953587
     34          6           0       -7.846807    2.447256   -3.139007
     35          6           0       -7.586256    1.083141   -3.268082
     36          6           0       -8.226175    0.306292   -2.240074
     37          6           0       -7.414827    3.621666   -4.083526
     38          6           0       -6.822400    0.135681   -4.086142
     39          8           0       -6.089532    0.270016   -5.080005
     40          6           0       -7.048490   -1.299203   -3.505453
     41          6           0       -5.653022   -1.628405   -3.100824
     42          8           0       -4.984188   -0.992082   -2.327424
     43          8           0       -5.201870   -2.655998   -3.814429
     44          6           0       -3.839463   -3.220518   -3.515941
     45          1           0      -11.661767   -3.482369    1.399500
     46          1           0      -12.307514    2.817788    3.280127
     47          1           0       -8.631895    4.612926   -1.328962
     48          1           0       -9.241294   -3.545350   -2.596515
     49          1           0       -9.294111   -4.595164    0.349468
     50          1           0      -10.927785   -5.857027   -0.634335
     51          1           0      -10.871919   -4.986358   -2.141161
     52          1           0      -11.878603   -4.362726   -0.759576
     53          1           0       -7.030709   -4.229879   -2.536143
     54          1           0       -7.612474   -5.283030   -1.231961
     55          1           0       -6.653976   -2.751925   -0.052238
     56          1           0       -5.524019   -3.593289   -1.161378
     57          1           0      -12.563381   -3.580683    3.267373
     58          1           0      -14.119363   -2.696144    3.688603
     59          1           0      -12.808652   -2.606077    4.769614
     60          1           0      -12.520493    2.257057    5.431060
     61          1           0      -13.977784    1.753537    6.257372
     62          1           0      -14.007542    2.152144    4.470589
     63          1           0      -10.655317    4.701481    2.919605
     64          1           0      -10.166558    5.807027    0.562876
     65          1           0      -13.163562    4.607024    1.326462
     66          1           0      -12.166969    5.950075    0.777408
     67          1           0      -12.718955    5.951382    2.425521
     68          1           0       -7.643531    4.656695    1.349864
     69          1           0       -8.613752    4.868307    2.808776
     70          1           0       -7.110512    6.725975    1.136857
     71          1           0       -7.639360    6.609142    2.842853
     72          1           0       -8.712069    7.357911    1.774626
     73          1           0       -6.654359    4.201805   -3.561527
     74          1           0       -8.318383    4.176732   -4.336225
     75          1           0       -6.925581    3.194821   -4.958863
     76          1           0       -7.473299   -1.887527   -4.319617
     77          1           0       -3.038739   -2.684996   -4.026508
     78          1           0       -3.775106   -4.269374   -3.808374
     79          1           0       -3.743273   -3.149361   -2.432542
     80         12           0        9.850031    0.311867    0.402225
     81          6           0        7.327922   -1.949612   -0.595227
     82          6           0        9.489800    2.000579   -2.546783
     83          6           0       12.633701    1.927227    1.117679
     84          6           0       10.462136   -1.799136    3.186977
     85          7           0        8.454293    0.092595   -1.312640
     86          6           0        7.553981   -0.858068   -1.467071
     87          6           0        6.610748   -0.443363   -2.581848
     88          6           0        7.497797    0.515930   -3.465406
     89          6           0        8.578171    0.913397   -2.391633
     90          6           0        8.001062   -0.207385   -4.772039
     91          6           0        5.379776    0.340094   -2.058045
     92          6           0        4.118172    0.372540   -3.028203
     93          1           0        4.137406   -0.297316   -4.404822
     94          7           0       10.778426    1.870671   -0.458526
     95          6           0       10.459465    2.527440   -1.674689
     96          6           0       11.385991    3.671754   -1.839635
     97          6           0       12.369653    3.592131   -0.789447
     98          6           0       11.987268    2.435699    0.049625
     99          6           0       11.266454    4.685210   -2.922562
    100          6           0       13.623962    4.477928   -0.424762
    101          8           0       14.319144    4.314211    0.587140
    102          6           0       14.092111    5.493561   -1.426292
    103          7           0       11.426184    0.024237    1.892754
    104          6           0       12.430541    0.851910    2.008426
    105          6           0       13.350531    0.586732    3.167050
    106          6           0       12.660381   -0.641420    3.858168
    107          6           0       11.370637   -0.780993    2.988551
    108          6           0       14.809038    0.457418    2.718113
    109          6           0       12.314275   -0.434823    5.327410
    110          6           0       12.547048   -1.657586    6.285468
    111          7           0        9.040985   -1.507055    1.265724
    112          6           0        9.381033   -2.213581    2.435998
    113          6           0        8.411535   -3.232000    2.651522
    114          6           0        7.681072   -3.307596    1.422902
    115          6           0        8.057187   -2.233818    0.656342
    116          6           0        8.213011   -3.996962    3.928575
    117          6           0        6.571850   -3.909159    0.644320
    118          8           0        5.860494   -4.857148    0.904605
    119          6           0        6.522734   -3.178622   -0.781053
    120          6           0        5.127925   -3.155577   -1.314976
    121          8           0        4.179507   -2.627326   -0.813855
    122          8           0        5.012544   -3.938760   -2.478661
    123          6           0        3.703184   -4.583128   -2.714909
    124          1           0        9.567777    2.464351   -3.532756
    125          1           0       13.482347    2.482217    1.521448
    126          1           0       10.630716   -2.382708    4.094516
    127          1           0        6.252258   -1.399598   -2.962754
    128          1           0        6.946097    1.406442   -3.768469
    129          1           0        7.646191   -1.237230   -4.793682
    130          1           0        9.075557   -0.296819   -4.612010
    131          1           0        7.675853    0.254810   -5.704172
    132          1           0        5.747317    1.359231   -1.931365
    133          1           0        5.123648   -0.080903   -1.085866
    134          1           0        3.896420    1.434124   -3.147716
    135          1           0        3.303339   -0.040409   -2.433045
    136          1           0       10.367888    4.701619   -3.538286
    137          1           0       12.053069    4.586737   -3.670129
    138          1           0       11.304922    5.635595   -2.389636
    139          1           0       13.603859    6.463864   -1.336880
    140          1           0       13.853178    4.954745   -2.344008
    141          1           0       15.172785    5.558233   -1.302556
    142          1           0       13.217987    1.488392    3.764858
    143          1           0       13.239494   -1.562464    3.804364
    144          1           0       14.925863    0.139485    1.681619
    145          1           0       15.227232   -0.334528    3.338176
    146          1           0       15.372158    1.382350    2.844540
    147          1           0       11.268062   -0.154600    5.448771
    148          1           0       12.824364    0.492662    5.587134
    149          1           0       12.804497   -2.558095    5.728140
    150          1           0       11.581013   -1.810061    6.766292
    151          1           0       13.282102   -1.566616    7.085844
    152          1           0        9.210959   -4.335335    4.207745
    153          1           0        7.566211   -4.869959    3.839357
    154          1           0        7.871774   -3.323388    4.715322
    155          1           0        7.007512   -3.822056   -1.514580
    156          1           0        3.282299   -4.156396   -3.625446
    157          1           0        3.022430   -4.460227   -1.871830
    158          1           0        3.928456   -5.639881   -2.858302
 ---------------------------------------------------------------------

 SCF Done:  E(RwB97XD) =  -4070.55972668     A.U. after   20 cycles

 Excitation energies and oscillator strengths:

 Excited State   1:      Singlet-A      1.6283 eV  761.42 nm  f=0.3513  <S**2>=0.000
     309 -> 315        0.20684
     312 -> 313        0.67852
     309 <- 315        0.12522
 This state for optimization and/or second-order correction.
 Total Energy, E(TD-HF/TD-DFT) =  -4070.49988700
 Copying the excited state density for this state as the 1-particle RhoCI density.

 Excited State   2:      Singlet-A      1.7661 eV  702.03 nm  f=0.3691  <S**2>=0.000
     310 -> 316        0.19110
     311 -> 314        0.67834
     310 <- 316        0.11011

 Excited State   3:      Singlet-A      2.1191 eV  585.08 nm  f=0.0963  <S**2>=0.000
     310 -> 314        0.63934
     311 -> 316       -0.27430

 Excited State   4:      Singlet-A      2.1412 eV  579.04 nm  f=0.0711  <S**2>=0.000
     309 -> 313        0.61645
     312 -> 315       -0.33104

 Excited State   5:      Singlet-A      3.1866 eV  389.09 nm  f=0.0150  <S**2>=0.000
     307 -> 313        0.65675
     307 -> 318       -0.10730
     312 -> 315        0.20233

 The electronic state is 1-A.
 Alpha  occ. eigenvalues --  -46.96426 -46.94790 -19.30109 -19.28412 -19.25357
 Alpha  occ. eigenvalues --  -19.24368 -19.23785 -19.23608 -19.23250 -19.22978
 Alpha  occ. eigenvalues --  -14.46887 -14.46444 -14.46436 -14.46243 -14.44628
 Alpha  occ. eigenvalues --  -14.44359 -14.44036 -14.42490 -10.42391 -10.42286
 Alpha  occ. eigenvalues --  -10.40794 -10.38876 -10.38687 -10.38155 -10.36252
 Alpha  occ. eigenvalues --  -10.36016 -10.35985 -10.35648 -10.35267 -10.34897
 Alpha  occ. eigenvalues --  -10.34892 -10.34881 -10.34827 -10.34615 -10.34603
 Alpha  occ. eigenvalues --  -10.34576 -10.34564 -10.33972 -10.33843 -10.33791
 Alpha  occ. eigenvalues --  -10.33591 -10.33360 -10.32875 -10.32832 -10.32669
 Alpha  occ. eigenvalues --  -10.32299 -10.32166 -10.32154 -10.32116 -10.32105
 Alpha  occ. eigenvalues --  -10.32073 -10.31990 -10.31910 -10.31907 -10.31868
 Alpha  occ. eigenvalues --  -10.31752 -10.31732 -10.31672 -10.31623 -10.31588
 Alpha  occ. eigenvalues --  -10.31576 -10.31540 -10.31354 -10.31316 -10.31027
 Alpha  occ. eigenvalues --  -10.30872 -10.30771 -10.30760 -10.30636 -10.30591
 Alpha  occ. eigenvalues --  -10.30366 -10.30234 -10.30077 -10.30052 -10.29949
 Alpha  occ. eigenvalues --  -10.29897 -10.29774 -10.29705 -10.29636 -10.29621
 Alpha  occ. eigenvalues --  -10.29463 -10.29401 -10.29336 -10.29227 -10.28871
 Alpha  occ. eigenvalues --  -10.28295  -3.22220  -3.20701  -1.95764  -1.95367
 Alpha  occ. eigenvalues --   -1.95153  -1.94303  -1.93823  -1.93663  -1.19050
 Alpha  occ. eigenvalues --   -1.17237  -1.12714  -1.12318  -1.11628  -1.10909
 Alpha  occ. eigenvalues --   -1.09723  -1.09103  -1.07031  -1.06482  -1.06423
 Alpha  occ. eigenvalues --   -1.05546  -1.04307  -1.03580  -1.03541  -1.03000
 Alpha  occ. eigenvalues --   -0.93790  -0.93653  -0.91088  -0.90780  -0.90720
 Alpha  occ. eigenvalues --   -0.90527  -0.90053  -0.89586  -0.89438  -0.89098
 Alpha  occ. eigenvalues --   -0.88900  -0.87957  -0.87239  -0.87218  -0.86472
 Alpha  occ. eigenvalues --   -0.85829  -0.85811  -0.85508  -0.84777  -0.84659
 Alpha  occ. eigenvalues --   -0.84384  -0.83508  -0.82911  -0.82487  -0.82081
 Alpha  occ. eigenvalues --   -0.81726  -0.80544  -0.79718  -0.79163  -0.79019
 Alpha  occ. eigenvalues --   -0.78217  -0.78201  -0.78063  -0.77220  -0.76990
 Alpha  occ. eigenvalues --   -0.76797  -0.74731  -0.74378  -0.73609  -0.73595
 Alpha  occ. eigenvalues --   -0.71681  -0.70713  -0.70515  -0.70342  -0.69947
 Alpha  occ. eigenvalues --   -0.69143  -0.68567  -0.68541  -0.67879  -0.67384
 Alpha  occ. eigenvalues --   -0.67020  -0.66996  -0.66639  -0.66472  -0.65897
 Alpha  occ. eigenvalues --   -0.65358  -0.64258  -0.62958  -0.62195  -0.62133
 Alpha  occ. eigenvalues --   -0.61132  -0.61009  -0.60884  -0.60492  -0.60486
 Alpha  occ. eigenvalues --   -0.59935  -0.59693  -0.59455  -0.59123  -0.58698
 Alpha  occ. eigenvalues --   -0.58388  -0.58070  -0.57692  -0.57322  -0.56940
 Alpha  occ. eigenvalues --   -0.56827  -0.56716  -0.56341  -0.56083  -0.55698
 Alpha  occ. eigenvalues --   -0.55608  -0.55291  -0.55062  -0.54990  -0.54894
 Alpha  occ. eigenvalues --   -0.54658  -0.54460  -0.54326  -0.54052  -0.53840
 Alpha  occ. eigenvalues --   -0.53831  -0.53597  -0.53536  -0.53326  -0.53186
 Alpha  occ. eigenvalues --   -0.53083  -0.52793  -0.52461  -0.52384  -0.51989
 Alpha  occ. eigenvalues --   -0.51966  -0.51873  -0.51600  -0.51479  -0.51248
 Alpha  occ. eigenvalues --   -0.51105  -0.51034  -0.50810  -0.50764  -0.50568
 Alpha  occ. eigenvalues --   -0.50358  -0.50172  -0.50040  -0.49855  -0.49648
 Alpha  occ. eigenvalues --   -0.49607  -0.49404  -0.49149  -0.49119  -0.48840
 Alpha  occ. eigenvalues --   -0.48793  -0.48730  -0.48477  -0.48408  -0.48368
 Alpha  occ. eigenvalues --   -0.48092  -0.47990  -0.47604  -0.47424  -0.47423
 Alpha  occ. eigenvalues --   -0.47265  -0.47105  -0.46969  -0.46896  -0.46872
 Alpha  occ. eigenvalues --   -0.46688  -0.46644  -0.46142  -0.46089  -0.45806
 Alpha  occ. eigenvalues --   -0.45798  -0.45567  -0.45476  -0.45378  -0.45226
 Alpha  occ. eigenvalues --   -0.44984  -0.44934  -0.44713  -0.44629  -0.44453
 Alpha  occ. eigenvalues --   -0.44221  -0.44128  -0.43852  -0.43842  -0.43534
 Alpha  occ. eigenvalues --   -0.43376  -0.43346  -0.43232  -0.43176  -0.43096
 Alpha  occ. eigenvalues --   -0.42964  -0.42813  -0.42648  -0.41942  -0.41890
 Alpha  occ. eigenvalues --   -0.41832  -0.41812  -0.41603  -0.40883  -0.40542
 Alpha  occ. eigenvalues --   -0.40435  -0.39751  -0.39612  -0.39518  -0.39248
 Alpha  occ. eigenvalues --   -0.39003  -0.38681  -0.38258  -0.38191  -0.37588
 Alpha  occ. eigenvalues --   -0.37503  -0.37286  -0.36136  -0.36018  -0.35949
 Alpha  occ. eigenvalues --   -0.35697  -0.35486  -0.35131  -0.33852  -0.33468
 Alpha  occ. eigenvalues --   -0.33332  -0.32632  -0.32495  -0.32431  -0.32262
 Alpha  occ. eigenvalues --   -0.31949  -0.31000  -0.30311  -0.26076  -0.25584
 Alpha  occ. eigenvalues --   -0.23073  -0.22997
 Alpha virt. eigenvalues --   -0.06999  -0.06738  -0.00539  -0.00015   0.01964
 Alpha virt. eigenvalues --    0.02468   0.04251   0.04694   0.04960   0.06128
 Alpha virt. eigenvalues --    0.07071   0.07305   0.07798   0.08200   0.09194

 Mulliken charges:
               1
     1  Mg   0.942247
     2  C   -0.037700
     3  C   -0.073315
     4  C   -0.078506
     5  C   -0.055838
     6  N   -0.320000
     7  C   -0.052435
     8  C   -0.003445
     9  C   -0.147259
    10  C    0.056872
    11  C    0.022570
    12  C   -0.011242
    13  C   -0.138738
    14  H    0.015067
    15  N   -0.462425
    16  C    0.168189
    17  C   -0.175004
    18  C   -0.086791
    19  C    0.201929
    20  C    0.084696
    21  C    0.035933
    22  O   -0.236099
    23  C    0.005210
    24  N   -0.322811
    25  C    0.047488
    26  C   -0.151751
    27  C   -0.062252
    28  C    0.046695
    29  C    0.017306
    30  C   -0.028960
    31  C   -0.050486
    32  N   -0.501410
    33  C    0.150985
    34  C   -0.184776
    35  C   -0.035084
    36  C    0.187019
    37  C    0.087798
    38  C    0.097811
    39  O   -0.231314
    40  C   -0.050575
    41  C    0.238050
    42  O   -0.235111
    43  O   -0.347083
    44  C    0.130340
    45  H    0.013595
    46  H   -0.020193
    47  H    0.003005
    48  H    0.034929
    49  H    0.061951
    50  H    0.033458
    51  H    0.044329
    52  H    0.040121
    53  H    0.040870
    54  H    0.041336
    55  H    0.087256
    56  H    0.047978
    57  H    0.029951
    58  H    0.048336
    59  H    0.062174
    60  H    0.066470
    61  H    0.056547
    62  H    0.054574
    63  H    0.040330
    64  H    0.017764
    65  H    0.043490
    66  H    0.030976
    67  H    0.046131
    68  H    0.037807
    69  H    0.032301
    70  H    0.053077
    71  H    0.028121
    72  H    0.026332
    73  H    0.054189
    74  H    0.056312
    75  H    0.062811
    76  H    0.067660
    77  H    0.072705
    78  H    0.058749
    79  H    0.068761
    80  Mg   0.949432
    81  C    0.046169
    82  C   -0.094977
    83  C   -0.065743
    84  C   -0.086117
    85  N   -0.314076
    86  C    0.001041
    87  C   -0.120555
    88  C   -0.103124
    89  C    0.089430
    90  C    0.035037
    91  C   -0.006533
    92  C   -0.094817
    93  H    0.041031
    94  N   -0.554514
    95  C    0.176145
    96  C   -0.150943
    97  C   -0.083002
    98  C    0.208091
    99  C    0.035090
   100  C    0.082041
   101  O   -0.237437
   102  C   -0.013243
   103  N   -0.304509
   104  C   -0.029559
   105  C   -0.047693
   106  C   -0.103757
   107  C    0.058207
   108  C    0.030187
   109  C   -0.003846
   110  C   -0.057085
   111  N   -0.438283
   112  C    0.134282
   113  C   -0.193350
   114  C   -0.035371
   115  C    0.077368
   116  C    0.080619
   117  C    0.135551
   118  O   -0.202855
   119  C   -0.093495
   120  C    0.221089
   121  O   -0.207484
   122  O   -0.410334
   123  C    0.136848
   124  H    0.001515
   125  H    0.012808
   126  H   -0.022139
   127  H    0.031750
   128  H    0.036581
   129  H    0.038269
   130  H    0.032686
   131  H    0.048572
   132  H    0.023388
   133  H    0.054656
   134  H    0.042628
   135  H    0.066281
   136  H    0.043148
   137  H    0.065160
   138  H    0.060702
   139  H    0.079943
   140  H    0.041682
   141  H    0.065033
   142  H    0.042186
   143  H    0.040073
   144  H    0.046637
   145  H    0.032999
   146  H    0.056208
   147  H    0.030887
   148  H    0.022278
   149  H    0.035908
   150  H    0.038548
   151  H    0.045548
   152  H    0.035763
   153  H    0.058324
   154  H    0.051031
   155  H    0.080050
   156  H    0.051639
   157  H    0.069058
   158  H    0.055244
 Sum of Mulliken charges =  -0.00000

 Dipole moment (field-independent basis, Debye):
    X=              1.6841    Y=              5.5515    Z=             -2.8730  Tot=              6.4738
 Quadrupole moment (field-independent basis, Debye-Ang):
   XX=           -434.4141   YY=           -465.4434   ZZ=           -511.5611
   XY=              4.4525   XZ=             15.2454   YZ=             12.4295

 Normal termination of Gaussian 16 at Sat Sep 18 14:32:43 2021.
