 Gaussian 16, Revision A.03,
 Gaussian 16:  ES64L-G16RevA.03 25-Dec-2016

 --------------------------------
 #p wB97XD/Def2SVP td=(nstates=5)
 --------------------------------

 --------------------------------
 TDDFT excited states in gaussian
 --------------------------------
 Symbolic Z-matrix:
 Charge =  0 Multiplicity = 1

                         Standard orientation:
 ---------------------------------------------------------------------
 Center     Atomic      Atomic             Coordinates (Angstroms)
 Number     Number       Type             X           Y           Z
 ---------------------------------------------------------------------
      1         12           0      -20.796738    0.315713   -0.218543
      2          6           0      -17.929853   -1.514819   -0.076692
      3          6           0      -22.490396   -2.511766    0.861330
      4          6           0      -23.550959    2.222596    0.006541
      5          6           0      -18.915710    3.258551   -0.651217
      6          7           0      -20.210043   -1.712060    0.578890
      7          6           0      -18.959932   -2.205674    0.474276
      8          6           0      -18.834771   -3.566906    1.054585
      9          6           0      -20.425194   -4.014109    0.999222
     10          6           0      -21.130102   -2.656242    0.797158
     11          6           0      -20.716028   -5.078850   -0.099294
     12          6           0      -18.306776   -3.471921    2.477244
     13          6           0      -19.078834   -2.558271    3.537860
     14          1           0      -19.253923   -3.027439    4.976826
     15          7           0      -22.740062   -0.073923    0.349936
     16          6           0      -23.289544   -1.349253    0.636087
     17          6           0      -24.703988   -1.189414    0.698918
     18          6           0      -25.055758    0.141930    0.514185
     19          6           0      -23.797267    0.853471    0.234029
     20          6           0      -25.548064   -2.419791    0.962542
     21          6           0      -26.427576    0.758929    0.647059
     22          8           0      -27.353726   -0.034927    0.947485
     23          6           0      -26.722360    2.152364    0.668893
     24          7           0      -21.126249    2.474372   -0.096617
     25          6           0      -22.386923    2.994262   -0.069772
     26          6           0      -22.357208    4.540709   -0.117916
     27          6           0      -20.835767    4.843999   -0.330563
     28          6           0      -20.231711    3.450636   -0.285212
     29          6           0      -23.262275    5.129787   -1.178763
     30          6           0      -20.272038    5.845595    0.812483
     31          6           0      -19.323942    6.927628    0.283049
     32          7           0      -18.776185    0.869408   -0.361015
     33          6           0      -18.166165    2.025156   -0.730833
     34          6           0      -16.801586    1.696516   -1.041948
     35          6           0      -16.606882    0.284540   -0.852451
     36          6           0      -17.844399   -0.153797   -0.411020
     37          6           0      -15.704300    2.683783   -1.248193
     38          6           0      -15.708841   -0.824906   -0.826069
     39          8           0      -14.517899   -0.770015   -1.157733
     40          6           0      -16.532037   -2.013715   -0.365687
     41          6           0      -16.481100   -3.058662   -1.417013
     42          8           0      -15.401940   -3.489358   -1.773218
     43          8           0      -17.698102   -3.506947   -1.831171
     44          6           0      -17.660382   -4.555442   -2.852518
     45          1           0      -23.050114   -3.446946    0.927482
     46          1           0      -24.476700    2.779769   -0.150536
     47          1           0      -18.287824    4.095614   -0.964553
     48          1           0      -18.185995   -4.283792    0.551229
     49          1           0      -20.701559   -4.577024    1.891715
     50          1           0      -21.144279   -5.972644    0.352923
     51          1           0      -19.754217   -5.354549   -0.532556
     52          1           0      -21.357003   -4.732869   -0.911227
     53          1           0      -17.250230   -3.212500    2.406983
     54          1           0      -18.221872   -4.521679    2.757877
     55          1           0      -20.105219   -2.297593    3.279296
     56          1           0      -18.424017   -1.689100    3.592721
     57          1           0      -25.563936   -2.531617    2.046837
     58          1           0      -25.045747   -3.288914    0.539642
     59          1           0      -26.566712   -2.401422    0.573929
     60          1           0      -27.600948    2.371266    1.276564
     61          1           0      -26.750044    2.608694   -0.321440
     62          1           0      -25.919957    2.593015    1.259009
     63          1           0      -22.673374    4.822930    0.886928
     64          1           0      -20.677029    5.200956   -1.347969
     65          1           0      -23.885477    4.395243   -1.688131
     66          1           0      -22.880010    5.822895   -1.927660
     67          1           0      -24.020716    5.637452   -0.582107
     68          1           0      -19.731688    5.341427    1.613762
     69          1           0      -21.076780    6.326564    1.368218
     70          1           0      -19.853094    7.879876    0.307237
     71          1           0      -19.131576    6.724606   -0.770674
     72          1           0      -18.402992    7.006869    0.860901
     73          1           0      -15.729373    3.282230   -2.158073
     74          1           0      -14.784840    2.098796   -1.204523
     75          1           0      -15.673405    3.433924   -0.457908
     76          1           0      -16.045206   -2.387090    0.535723
     77          1           0      -17.084226   -5.389516   -2.450910
     78          1           0      -17.282103   -4.210473   -3.814941
     79          1           0      -18.670062   -4.837237   -3.150888
     80         12           0       20.762509    0.374635   -0.005904
     81          6           0       18.673881   -2.358763   -0.012272
     82          6           0       18.111214    2.533353    0.188963
     83          6           0       22.917657    3.128893    0.196115
     84          6           0       23.468028   -1.667820    0.653457
     85          7           0       18.644335    0.020905    0.293258
     86          6           0       17.934623   -1.164535    0.083188
     87          6           0       16.427467   -0.950684    0.244498
     88          6           0       16.376029    0.593237    0.119277
     89          6           0       17.810295    1.133094    0.294086
     90          6           0       15.636042    1.074199   -1.148075
     91          6           0       15.902267   -1.488078    1.590505
     92          6           0       14.535254   -2.254989    1.561107
     93          1           0       13.698716   -2.144728    2.775591
     94          7           0       20.531282    2.480741    0.110505
     95          6           0       19.371824    3.177141    0.088023
     96          6           0       19.567800    4.582790   -0.104729
     97          6           0       20.951532    4.779264   -0.244365
     98          6           0       21.553830    3.403325   -0.001552
     99          6           0       18.436473    5.595647   -0.292470
    100          6           0       21.694425    6.137797   -0.514080
    101          8           0       21.015356    7.196153   -0.535325
    102          6           0       23.244890    6.245401   -0.845907
    103          7           0       22.850804    0.704112    0.670306
    104          6           0       23.501784    1.882310    0.512877
    105          6           0       24.995818    1.752796    0.663321
    106          6           0       25.197733    0.234785    0.859924
    107          6           0       23.773233   -0.296759    0.682032
    108          6           0       25.827601    2.390871   -0.498332
    109          6           0       25.942343   -0.132777    2.230735
    110          6           0       27.405837   -0.559906    2.069259
    111          7           0       21.068475   -1.606837    0.215104
    112          6           0       22.240231   -2.357801    0.455108
    113          6           0       21.947185   -3.784960    0.268339
    114          6           0       20.583098   -3.795846    0.012431
    115          6           0       20.113253   -2.476623    0.120987
    116          6           0       22.844085   -4.967617    0.355135
    117          6           0       19.445197   -4.686105   -0.257954
    118          8           0       19.390909   -5.882919   -0.585582
    119          6           0       18.152567   -3.778165   -0.330390
    120          6           0       17.493846   -3.858568   -1.700984
    121          8           0       18.042787   -3.804499   -2.806029
    122          8           0       16.179557   -4.072977   -1.409164
    123          6           0       15.305893   -4.370877   -2.531707
    124          1           0       17.274046    3.232118    0.245081
    125          1           0       23.695942    3.894857    0.184417
    126          1           0       24.281522   -2.369922    0.846828
    127          1           0       15.897079   -1.476402   -0.550181
    128          1           0       15.776808    0.892275    0.979229
    129          1           0       14.936613    0.404514   -1.648449
    130          1           0       16.414862    1.247665   -1.890519
    131          1           0       15.073072    1.990802   -0.973561
    132          1           0       15.865063   -0.723632    2.366134
    133          1           0       16.712013   -2.106531    1.978459
    134          1           0       14.727178   -3.311523    1.374219
    135          1           0       13.921420   -1.833133    0.764051
    136          1           0       18.630979    6.075249   -1.251499
    137          1           0       18.326226    6.194998    0.611341
    138          1           0       17.547308    4.982025   -0.436950
    139          1           0       23.757113    6.265528    0.115315
    140          1           0       23.378630    7.197973   -1.358038
    141          1           0       23.449880    5.478206   -1.593050
    142          1           0       25.287827    2.282877    1.569969
    143          1           0       25.687659   -0.298649    0.045690
    144          1           0       26.620816    1.724689   -0.836498
    145          1           0       26.289374    3.336082   -0.213531
    146          1           0       25.152303    2.670675   -1.305846
    147          1           0       25.484657   -0.981527    2.738751
    148          1           0       25.844435    0.688892    2.940140
    149          1           0       28.000143   -0.149312    2.885730
    150          1           0       27.795185   -0.187015    1.122160
    151          1           0       27.552996   -1.639724    2.059255
    152          1           0       23.860180   -4.596252    0.488474
    153          1           0       22.612980   -5.669364   -0.446511
    154          1           0       22.618351   -5.441978    1.310790
    155          1           0       17.430393   -4.020041    0.449847
    156          1           0       15.462286   -3.725835   -3.397258
    157          1           0       14.233144   -4.372310   -2.338645
    158          1           0       15.476357   -5.394222   -2.867064
 ---------------------------------------------------------------------

 SCF Done:  E(RwB97XD) =  -4070.62722652     A.U. after   19 cycles

 Excitation energies and oscillator strengths:

 Excited State   1:      Singlet-A      1.6650 eV  744.65 nm  f=0.3611  <S**2>=0.000
     310 -> 315        0.17864
     312 -> 314        0.68378
     310 <- 315        0.11334
 This state for optimization and/or second-order correction.
 Total Energy, E(TD-HF/TD-DFT) =  -4070.56603901
 Copying the excited state density for this state as the 1-particle RhoCI density.

 Excited State   2:      Singlet-A      1.6886 eV  734.24 nm  f=0.3938  <S**2>=0.000
     309 -> 316        0.18194
     311 -> 313        0.68307
     309 <- 316        0.11274

 Excited State   3:      Singlet-A      2.1633 eV  573.12 nm  f=0.1256  <S**2>=0.000
     309 -> 313        0.64778
     311 -> 316       -0.25634

 Excited State   4:      Singlet-A      2.1964 eV  564.48 nm  f=0.0914  <S**2>=0.000
     310 -> 314        0.62329
     312 -> 315       -0.31698

 Excited State   5:      Singlet-A      3.2088 eV  386.39 nm  f=0.0008  <S**2>=0.000
     306 -> 313       -0.33745
     308 -> 313        0.59899

 The electronic state is 1-A.
 Alpha  occ. eigenvalues --  -46.95485 -46.95474 -19.31598 -19.31526 -19.25161
 Alpha  occ. eigenvalues --  -19.24754 -19.24427 -19.23430 -19.23320 -19.23246
 Alpha  occ. eigenvalues --  -14.46989 -14.46722 -14.46681 -14.46663 -14.44831
 Alpha  occ. eigenvalues --  -14.44456 -14.43630 -14.43184 -10.43760 -10.43304
 Alpha  occ. eigenvalues --  -10.40726 -10.38827 -10.38711 -10.38447 -10.36492
 Alpha  occ. eigenvalues --  -10.36283 -10.35751 -10.35729 -10.35703 -10.35346
 Alpha  occ. eigenvalues --  -10.35244 -10.35201 -10.35071 -10.34511 -10.34488
 Alpha  occ. eigenvalues --  -10.34483 -10.34393 -10.34192 -10.33600 -10.33175
 Alpha  occ. eigenvalues --  -10.33042 -10.32711 -10.32671 -10.32604 -10.32517
 Alpha  occ. eigenvalues --  -10.32517 -10.32466 -10.32447 -10.32429 -10.32360
 Alpha  occ. eigenvalues --  -10.32175 -10.32166 -10.32103 -10.32095 -10.32029
 Alpha  occ. eigenvalues --  -10.31953 -10.31932 -10.31819 -10.31748 -10.31724
 Alpha  occ. eigenvalues --  -10.31671 -10.31536 -10.31450 -10.31379 -10.31373
 Alpha  occ. eigenvalues --  -10.31353 -10.31276 -10.31199 -10.30961 -10.30941
 Alpha  occ. eigenvalues --  -10.30802 -10.30790 -10.30599 -10.30462 -10.30435
 Alpha  occ. eigenvalues --  -10.30352 -10.30223 -10.30223 -10.29888 -10.29755
 Alpha  occ. eigenvalues --  -10.29529 -10.29529 -10.29433 -10.28825 -10.28564
 Alpha  occ. eigenvalues --  -10.28527  -3.21462  -3.21381  -1.95017  -1.94942
 Alpha  occ. eigenvalues --   -1.94571  -1.94519  -1.94459  -1.94331  -1.19586
 Alpha  occ. eigenvalues --   -1.18967  -1.11245  -1.10871  -1.10643  -1.10498
 Alpha  occ. eigenvalues --   -1.10211  -1.09903  -1.06991  -1.06633  -1.06553
 Alpha  occ. eigenvalues --   -1.05987  -1.05551  -1.04751  -1.04130  -1.03610
 Alpha  occ. eigenvalues --   -0.96058  -0.93316  -0.91249  -0.90921  -0.90776
 Alpha  occ. eigenvalues --   -0.90682  -0.90643  -0.90518  -0.89720  -0.89147
 Alpha  occ. eigenvalues --   -0.88920  -0.88351  -0.88350  -0.87791  -0.87029
 Alpha  occ. eigenvalues --   -0.86193  -0.86019  -0.85732  -0.85299  -0.84712
 Alpha  occ. eigenvalues --   -0.84364  -0.83533  -0.83402  -0.83046  -0.82865
 Alpha  occ. eigenvalues --   -0.82096  -0.80579  -0.79981  -0.79829  -0.79395
 Alpha  occ. eigenvalues --   -0.78983  -0.78648  -0.78069  -0.77764  -0.77203
 Alpha  occ. eigenvalues --   -0.76941  -0.74654  -0.74489  -0.74126  -0.73677
 Alpha  occ. eigenvalues --   -0.72090  -0.71086  -0.71084  -0.70875  -0.70799
 Alpha  occ. eigenvalues --   -0.69787  -0.69242  -0.69177  -0.68491  -0.68010
 Alpha  occ. eigenvalues --   -0.67356  -0.67216  -0.67031  -0.66930  -0.66529
 Alpha  occ. eigenvalues --   -0.66371  -0.65815  -0.64621  -0.62233  -0.61872
 Alpha  occ. eigenvalues --   -0.61718  -0.61568  -0.61344  -0.60902  -0.60742
 Alpha  occ. eigenvalues --   -0.60562  -0.60386  -0.60039  -0.59654  -0.59176
 Alpha  occ. eigenvalues --   -0.58755  -0.58588  -0.57955  -0.57784  -0.57684
 Alpha  occ. eigenvalues --   -0.57192  -0.57103  -0.56918  -0.56477  -0.56225
 Alpha  occ. eigenvalues --   -0.55710  -0.55677  -0.55453  -0.55280  -0.55070
 Alpha  occ. eigenvalues --   -0.55035  -0.54729  -0.54500  -0.54469  -0.53877
 Alpha  occ. eigenvalues --   -0.53820  -0.53725  -0.53486  -0.53351  -0.53246
 Alpha  occ. eigenvalues --   -0.53131  -0.53028  -0.52997  -0.52824  -0.52742
 Alpha  occ. eigenvalues --   -0.52333  -0.51827  -0.51586  -0.51442  -0.51337
 Alpha  occ. eigenvalues --   -0.51200  -0.51057  -0.50984  -0.50709  -0.50596
 Alpha  occ. eigenvalues --   -0.50427  -0.50390  -0.50205  -0.50076  -0.50044
 Alpha  occ. eigenvalues --   -0.49706  -0.49648  -0.49557  -0.49362  -0.49079
 Alpha  occ. eigenvalues --   -0.49043  -0.48780  -0.48668  -0.48467  -0.48424
 Alpha  occ. eigenvalues --   -0.48389  -0.48249  -0.48016  -0.47938  -0.47684
 Alpha  occ. eigenvalues --   -0.47567  -0.47411  -0.47151  -0.47108  -0.46831
 Alpha  occ. eigenvalues --   -0.46697  -0.46596  -0.46530  -0.46486  -0.46307
 Alpha  occ. eigenvalues --   -0.46032  -0.45704  -0.45661  -0.45614  -0.45518
 Alpha  occ. eigenvalues --   -0.45414  -0.45165  -0.44892  -0.44757  -0.44473
 Alpha  occ. eigenvalues --   -0.44337  -0.44333  -0.44241  -0.44198  -0.44057
 Alpha  occ. eigenvalues --   -0.43853  -0.43844  -0.43750  -0.43444  -0.43313
 Alpha  occ. eigenvalues --   -0.43086  -0.43036  -0.42945  -0.42681  -0.42466
 Alpha  occ. eigenvalues --   -0.42359  -0.41570  -0.41438  -0.41234  -0.41106
 Alpha  occ. eigenvalues --   -0.40669  -0.40633  -0.40246  -0.40029  -0.39806
 Alpha  occ. eigenvalues --   -0.39714  -0.39479  -0.39372  -0.39001  -0.38872
 Alpha  occ. eigenvalues --   -0.38347  -0.37900  -0.36808  -0.36733  -0.36727
 Alpha  occ. eigenvalues --   -0.35986  -0.35305  -0.35239  -0.34003  -0.33708
 Alpha  occ. eigenvalues --   -0.33269  -0.32827  -0.32655  -0.32405  -0.32364
 Alpha  occ. eigenvalues --   -0.32320  -0.31902  -0.31144  -0.26232  -0.26094
 Alpha  occ. eigenvalues --   -0.23485  -0.22863
 Alpha virt. eigenvalues --   -0.07505  -0.06877  -0.00084   0.00042   0.02207
 Alpha virt. eigenvalues --    0.02279   0.04102   0.04114   0.04457   0.04854
 Alpha virt. eigenvalues --    0.07199   0.07351   0.07454   0.08015   0.08569

 Mulliken charges:
               1
     1  Mg   0.931435
     2  C   -0.000807
     3  C   -0.065697
     4  C   -0.091528
     5  C   -0.077544
     6  N   -0.307261
     7  C    0.003869
     8  C   -0.074460
     9  C   -0.126417
    10  C    0.080490
    11  C    0.020490
    12  C    0.008025
    13  C   -0.131207
    14  H    0.036949
    15  N   -0.514475
    16  C    0.148876
    17  C   -0.151851
    18  C   -0.055457
    19  C    0.177972
    20  C    0.087429
    21  C    0.034480
    22  O   -0.271019
    23  C    0.017038
    24  N   -0.324798
    25  C    0.043687
    26  C   -0.057454
    27  C   -0.088583
    28  C    0.106026
    29  C    0.017439
    30  C   -0.009862
    31  C   -0.055797
    32  N   -0.439749
    33  C    0.094604
    34  C   -0.179706
    35  C    0.011881
    36  C    0.117661
    37  C    0.048049
    38  C    0.071006
    39  O   -0.201961
    40  C   -0.081219
    41  C    0.257089
    42  O   -0.227877
    43  O   -0.352619
    44  C    0.138916
    45  H   -0.003838
    46  H   -0.037262
    47  H   -0.005227
    48  H    0.022135
    49  H    0.037582
    50  H    0.038121
    51  H    0.026498
    52  H    0.039078
    53  H    0.025024
    54  H    0.032738
    55  H    0.078051
    56  H    0.066413
    57  H    0.053646
    58  H    0.029914
    59  H    0.063921
    60  H    0.061112
    61  H    0.077290
    62  H    0.047636
    63  H    0.049747
    64  H    0.040774
    65  H    0.036127
    66  H    0.051918
    67  H    0.027127
    68  H    0.036482
    69  H    0.027988
    70  H    0.034959
    71  H    0.031359
    72  H    0.047274
    73  H    0.038309
    74  H    0.058146
    75  H    0.037790
    76  H    0.089630
    77  H    0.063424
    78  H    0.059048
    79  H    0.051003
    80  Mg   0.973186
    81  C   -0.080655
    82  C   -0.109998
    83  C   -0.086340
    84  C   -0.082977
    85  N   -0.404084
    86  C   -0.008338
    87  C   -0.052791
    88  C   -0.092063
    89  C    0.125820
    90  C    0.013982
    91  C    0.023119
    92  C   -0.127730
    93  H    0.043715
    94  N   -0.430163
    95  C    0.152991
    96  C   -0.190457
    97  C   -0.078553
    98  C    0.194690
    99  C    0.116131
   100  C    0.044419
   101  O   -0.256233
   102  C   -0.009360
   103  N   -0.325013
   104  C    0.023053
   105  C   -0.076383
   106  C   -0.052218
   107  C    0.038330
   108  C    0.010486
   109  C   -0.007604
   110  C   -0.058064
   111  N   -0.440667
   112  C    0.101390
   113  C   -0.206390
   114  C   -0.044087
   115  C    0.153184
   116  C    0.107354
   117  C    0.155539
   118  O   -0.229697
   119  C   -0.059882
   120  C    0.289177
   121  O   -0.247474
   122  O   -0.356431
   123  C    0.133434
   124  H    0.007855
   125  H   -0.019780
   126  H   -0.011144
   127  H    0.025118
   128  H    0.032745
   129  H    0.036928
   130  H    0.034791
   131  H    0.038455
   132  H    0.030653
   133  H    0.030095
   134  H    0.066452
   135  H    0.049683
   136  H    0.065659
   137  H    0.072151
   138  H    0.012233
   139  H    0.080676
   140  H    0.058251
   141  H    0.060710
   142  H    0.046693
   143  H    0.034019
   144  H    0.046830
   145  H    0.033523
   146  H    0.037740
   147  H    0.032987
   148  H    0.028762
   149  H    0.039060
   150  H    0.028582
   151  H    0.041125
   152  H    0.021171
   153  H    0.075379
   154  H    0.050500
   155  H    0.064502
   156  H    0.055257
   157  H    0.052317
   158  H    0.053675
 Sum of Mulliken charges =  -0.00000

 Dipole moment (field-independent basis, Debye):
    X=             -3.0979    Y=              4.2524    Z=             -0.1429  Tot=              5.2631
 Quadrupole moment (field-independent basis, Debye-Ang):
   XX=           -310.4671   YY=           -513.3637   ZZ=           -510.3090
   XY=             12.1830   XZ=             55.9831   YZ=             -6.1386

 Normal termination of Gaussian 16 at Sun Sep 19 21:13:53 2021.
