 Gaussian 16, Revision A.03,
 Gaussian 16:  ES64L-G16RevA.03 25-Dec-2016

 --------------------------------
 #p wB97XD/Def2SVP td=(nstates=5)
 --------------------------------

 --------------------------------
 TDDFT excited states in gaussian
 --------------------------------
 Symbolic Z-matrix:
 Charge =  0 Multiplicity = 1

                         Standard orientation:
 ---------------------------------------------------------------------
 Center     Atomic      Atomic             Coordinates (Angstroms)
 Number     Number       Type             X           Y           Z
 ---------------------------------------------------------------------
      1         12           0       30.370328    0.403689    0.724662
      2          6           0       30.716250   -1.889827   -1.951928
      3          6           0       29.044412    2.601951   -1.647718
      4          6           0       29.875493    2.610067    3.105117
      5          6           0       32.426942   -1.606847    2.678636
      6          7           0       29.921336    0.303775   -1.513517
      7          6           0       30.003737   -0.762413   -2.357071
      8          6           0       29.556838   -0.510202   -3.807269
      9          6           0       29.136793    1.037355   -3.641749
     10          6           0       29.406325    1.303897   -2.190371
     11          6           0       29.973134    2.037821   -4.533806
     12          6           0       28.364801   -1.421235   -4.247373
     13          6           0       28.460524   -2.523727   -5.294815
     14          1           0       27.301390   -2.822286   -6.236499
     15          7           0       29.501282    2.322357    0.774838
     16          6           0       29.076667    3.091922   -0.317884
     17          6           0       28.717915    4.398049    0.187975
     18          6           0       28.794403    4.378439    1.578439
     19          6           0       29.354942    3.047250    1.881871
     20          6           0       28.137388    5.391672   -0.759478
     21          6           0       28.520243    5.460055    2.622770
     22          8           0       28.663731    5.313058    3.840337
     23          6           0       27.908607    6.716897    2.142445
     24          7           0       31.122378    0.574551    2.601771
     25          6           0       30.618209    1.464039    3.509722
     26          6           0       30.971285    1.035652    4.974383
     27          6           0       31.832725   -0.203742    4.769724
     28          6           0       31.868902   -0.407642    3.229581
     29          6           0       31.610756    2.181828    5.824412
     30          6           0       31.222147   -1.388953    5.533013
     31          6           0       32.128973   -2.269798    6.313015
     32          7           0       31.472418   -1.330996    0.449449
     33          6           0       32.237006   -2.053170    1.330457
     34          6           0       32.749224   -3.244935    0.722988
     35          6           0       32.102698   -3.333459   -0.605853
     36          6           0       31.324167   -2.112564   -0.690023
     37          6           0       33.721791   -4.242081    1.375793
     38          6           0       31.933650   -4.106442   -1.862094
     39          8           0       32.310326   -5.254017   -2.154587
     40          6           0       31.018362   -3.181859   -2.765936
     41          6           0       31.921503   -2.999165   -3.945479
     42          8           0       32.800307   -2.161848   -4.110930
     43          8           0       31.585118   -3.804332   -4.915745
     44          6           0       32.446885   -3.907657   -6.118358
     45          1           0       28.514857    3.116347   -2.451938
     46          1           0       29.814953    3.265915    3.975749
     47          1           0       33.011445   -2.259154    3.330231
     48          1           0       30.438149   -0.598363   -4.443814
     49          1           0       28.089780    1.306615   -3.784306
     50          1           0       30.901361    1.662837   -4.964078
     51          1           0       30.257222    2.909001   -3.944558
     52          1           0       29.338481    2.378341   -5.352155
     53          1           0       27.594658   -0.751293   -4.630024
     54          1           0       27.964487   -1.958409   -3.388492
     55          1           0       28.493959   -3.401732   -4.649601
     56          1           0       29.386312   -2.259436   -5.805962
     57          1           0       27.118170    5.664265   -0.489126
     58          1           0       28.114661    4.998400   -1.776119
     59          1           0       28.691731    6.329062   -0.793919
     60          1           0       27.045446    6.485389    1.518247
     61          1           0       28.544482    7.244768    1.431585
     62          1           0       27.538373    7.368579    2.933216
     63          1           0       29.983766    0.813438    5.378437
     64          1           0       32.820497   -0.073937    5.211633
     65          1           0       31.579552    3.162416    5.349690
     66          1           0       32.659322    2.015773    6.068671
     67          1           0       31.175319    2.184906    6.823546
     68          1           0       30.756338   -1.964369    4.734017
     69          1           0       30.477808   -1.114631    6.280140
     70          1           0       31.933405   -3.270599    5.928697
     71          1           0       31.971200   -2.122376    7.381369
     72          1           0       33.191182   -2.130000    6.111184
     73          1           0       34.743329   -3.945031    1.141348
     74          1           0       33.489003   -5.239000    1.001850
     75          1           0       33.651757   -4.233614    2.463728
     76          1           0       30.144104   -3.775208   -3.033105
     77          1           0       32.556727   -2.972852   -6.666972
     78          1           0       32.136842   -4.677952   -6.824215
     79          1           0       33.474850   -4.232190   -5.959833
     80         12           0      -31.137736   -0.545254   -0.236289
     81          6           0      -28.264184    1.236811   -0.940827
     82          6           0      -29.158734   -3.016528    1.115259
     83          6           0      -33.975575   -2.035514    0.998619
     84          6           0      -33.051429    2.020466   -1.503589
     85          7           0      -29.000318   -0.764245    0.231807
     86          6           0      -28.016166    0.086418   -0.231767
     87          6           0      -26.618301   -0.415515    0.120153
     88          6           0      -26.916090   -1.922471    0.464440
     89          6           0      -28.425045   -1.886134    0.657629
     90          6           0      -26.376099   -3.027460   -0.552238
     91          6           0      -25.850293    0.382699    1.221499
     92          6           0      -24.399351    0.691683    0.918416
     93          1           0      -23.448047   -0.092317    1.809017
     94          7           0      -31.470575   -2.255656    0.895854
     95          6           0      -30.555733   -3.134486    1.320602
     96          6           0      -31.190981   -4.262328    1.979885
     97          6           0      -32.564662   -4.089041    2.010473
     98          6           0      -32.745595   -2.733094    1.334448
     99          6           0      -30.353690   -5.453852    2.648676
    100          6           0      -33.633402   -5.100275    2.546839
    101          8           0      -33.235835   -6.167461    3.094255
    102          6           0      -35.085284   -4.818009    2.476234
    103          7           0      -33.282534    0.050802   -0.028556
    104          6           0      -34.228595   -0.781384    0.341324
    105          6           0      -35.609340   -0.329371   -0.086067
    106          6           0      -35.421308    1.036107   -0.830171
    107          6           0      -33.818706    1.045701   -0.881552
    108          6           0      -36.613621   -1.357383   -0.698289
    109          6           0      -35.988344    2.352221   -0.223392
    110          6           0      -36.091804    3.474010   -1.235949
    111          7           0      -30.742175    1.306448   -1.063849
    112          6           0      -31.638539    2.241723   -1.630817
    113          6           0      -30.859378    3.285903   -2.238314
    114          6           0      -29.501800    2.938083   -2.034055
    115          6           0      -29.532622    1.763518   -1.287447
    116          6           0      -31.376458    4.389259   -3.149391
    117          6           0      -28.219450    3.354787   -2.318744
    118          8           0      -27.725300    4.331221   -2.813174
    119          6           0      -27.303818    2.322120   -1.477316
    120          6           0      -26.908748    3.114024   -0.231781
    121          8           0      -27.605238    3.286911    0.749847
    122          8           0      -25.630752    3.599569   -0.457031
    123          6           0      -25.094576    4.484488    0.572083
    124          1           0      -28.592978   -3.913829    1.373912
    125          1           0      -34.835985   -2.569525    1.406492
    126          1           0      -33.519496    2.834317   -2.061252
    127          1           0      -26.033137   -0.418859   -0.798995
    128          1           0      -26.574264   -2.079416    1.488134
    129          1           0      -27.051222   -3.858587   -0.348718
    130          1           0      -25.399677   -3.436848   -0.292011
    131          1           0      -26.354868   -2.756816   -1.607802
    132          1           0      -25.920375   -0.269467    2.092293
    133          1           0      -26.349922    1.257657    1.636823
    134          1           0      -24.262370    1.764633    1.054933
    135          1           0      -24.124559    0.442568   -0.106729
    136          1           0      -29.269504   -5.342662    2.603296
    137          1           0      -30.612774   -6.408170    2.188927
    138          1           0      -30.486374   -5.516270    3.727880
    139          1           0      -35.379846   -4.686064    1.435596
    140          1           0      -35.375858   -4.030281    3.171450
    141          1           0      -35.548282   -5.779292    2.695616
    142          1           0      -36.247464    0.050267    0.712180
    143          1           0      -35.605236    0.956239   -1.901829
    144          1           0      -36.186545   -2.342235   -0.504188
    145          1           0      -36.869530   -1.157817   -1.739496
    146          1           0      -37.588580   -1.375107   -0.211000
    147          1           0      -35.353717    2.585956    0.631322
    148          1           0      -36.950323    2.059023    0.196878
    149          1           0      -36.939907    4.096231   -0.949089
    150          1           0      -36.257841    3.158810   -2.266768
    151          1           0      -35.227677    4.129548   -1.127689
    152          1           0      -30.589900    4.946058   -3.658786
    153          1           0      -31.998507    5.049134   -2.546031
    154          1           0      -32.027694    3.988037   -3.926013
    155          1           0      -26.498686    1.914699   -2.089543
    156          1           0      -25.682116    5.402183    0.603768
    157          1           0      -24.034585    4.686142    0.421465
    158          1           0      -25.225581    4.023033    1.550450
 ---------------------------------------------------------------------

 SCF Done:  E(RwB97XD) =  -4070.60495358     A.U. after   19 cycles

 Excitation energies and oscillator strengths:

 Excited State   1:      Singlet-A      1.7237 eV  719.29 nm  f=0.3800  <S**2>=0.000
     310 -> 315        0.18636
     312 -> 313        0.68177
     310 <- 315        0.11196
 This state for optimization and/or second-order correction.
 Total Energy, E(TD-HF/TD-DFT) =  -4070.54160853
 Copying the excited state density for this state as the 1-particle RhoCI density.

 Excited State   2:      Singlet-A      1.8712 eV  662.58 nm  f=0.3749  <S**2>=0.000
     309 -> 316        0.14188
     311 -> 314        0.68597

 Excited State   3:      Singlet-A      2.1685 eV  571.75 nm  f=0.1029  <S**2>=0.000
     310 -> 313        0.63396
     312 -> 315       -0.29499

 Excited State   4:      Singlet-A      2.2255 eV  557.12 nm  f=0.1259  <S**2>=0.000
     309 -> 314        0.64385
     311 -> 316       -0.24649
     311 -> 318        0.10808

 Excited State   5:      Singlet-A      3.4479 eV  359.59 nm  f=0.0946  <S**2>=0.000
     301 -> 313       -0.10594
     304 -> 313       -0.24557
     305 -> 313        0.18579
     308 -> 313        0.57192
     310 -> 313       -0.10074
     312 -> 315       -0.18641

 The electronic state is 1-A.
 Alpha  occ. eigenvalues --  -46.95766 -46.94874 -19.30462 -19.29699 -19.25359
 Alpha  occ. eigenvalues --  -19.24742 -19.24682 -19.23878 -19.23105 -19.22664
 Alpha  occ. eigenvalues --  -14.47170 -14.46930 -14.46645 -14.46486 -14.45233
 Alpha  occ. eigenvalues --  -14.44463 -14.43550 -14.43026 -10.42902 -10.42450
 Alpha  occ. eigenvalues --  -10.41115 -10.40008 -10.39434 -10.37358 -10.37304
 Alpha  occ. eigenvalues --  -10.36540 -10.35844 -10.35752 -10.35676 -10.35469
 Alpha  occ. eigenvalues --  -10.35284 -10.35265 -10.34895 -10.34869 -10.34861
 Alpha  occ. eigenvalues --  -10.34493 -10.34363 -10.34097 -10.33784 -10.33665
 Alpha  occ. eigenvalues --  -10.33401 -10.33114 -10.32814 -10.32778 -10.32713
 Alpha  occ. eigenvalues --  -10.32651 -10.32506 -10.32427 -10.32363 -10.32314
 Alpha  occ. eigenvalues --  -10.32256 -10.32224 -10.32219 -10.32144 -10.32131
 Alpha  occ. eigenvalues --  -10.32024 -10.32009 -10.31752 -10.31581 -10.31529
 Alpha  occ. eigenvalues --  -10.31373 -10.31193 -10.31120 -10.31072 -10.31062
 Alpha  occ. eigenvalues --  -10.31051 -10.30997 -10.30958 -10.30837 -10.30799
 Alpha  occ. eigenvalues --  -10.30794 -10.30781 -10.30504 -10.30427 -10.30425
 Alpha  occ. eigenvalues --  -10.30318 -10.29901 -10.29895 -10.29730 -10.29702
 Alpha  occ. eigenvalues --  -10.29644 -10.29449 -10.29117 -10.29096 -10.28645
 Alpha  occ. eigenvalues --  -10.27006  -3.21661  -3.20902  -1.95230  -1.94784
 Alpha  occ. eigenvalues --   -1.94632  -1.94493  -1.94027  -1.93880  -1.19948
 Alpha  occ. eigenvalues --   -1.17565  -1.12362  -1.11946  -1.11455  -1.10573
 Alpha  occ. eigenvalues --   -1.10043  -1.08633  -1.07490  -1.06621  -1.06115
 Alpha  occ. eigenvalues --   -1.05886  -1.05295  -1.04778  -1.04555  -1.03332
 Alpha  occ. eigenvalues --   -0.93771  -0.93481  -0.91484  -0.91045  -0.90958
 Alpha  occ. eigenvalues --   -0.90689  -0.90366  -0.89965  -0.89704  -0.89017
 Alpha  occ. eigenvalues --   -0.88714  -0.88678  -0.87729  -0.87041  -0.86420
 Alpha  occ. eigenvalues --   -0.86206  -0.85558  -0.85355  -0.85141  -0.84769
 Alpha  occ. eigenvalues --   -0.84666  -0.84005  -0.82759  -0.82631  -0.82495
 Alpha  occ. eigenvalues --   -0.82166  -0.80790  -0.79604  -0.79407  -0.79113
 Alpha  occ. eigenvalues --   -0.78771  -0.78656  -0.78084  -0.77275  -0.77123
 Alpha  occ. eigenvalues --   -0.77103  -0.74367  -0.74189  -0.73802  -0.73691
 Alpha  occ. eigenvalues --   -0.71676  -0.71224  -0.71113  -0.70111  -0.69860
 Alpha  occ. eigenvalues --   -0.69590  -0.69383  -0.68966  -0.67768  -0.67561
 Alpha  occ. eigenvalues --   -0.67408  -0.67191  -0.66871  -0.66713  -0.66191
 Alpha  occ. eigenvalues --   -0.66043  -0.64363  -0.63682  -0.63012  -0.62046
 Alpha  occ. eigenvalues --   -0.61482  -0.61438  -0.61049  -0.60936  -0.60482
 Alpha  occ. eigenvalues --   -0.60460  -0.59774  -0.59772  -0.59640  -0.59337
 Alpha  occ. eigenvalues --   -0.58743  -0.58476  -0.57539  -0.57419  -0.56980
 Alpha  occ. eigenvalues --   -0.56927  -0.56211  -0.56119  -0.56099  -0.55928
 Alpha  occ. eigenvalues --   -0.55762  -0.55676  -0.55548  -0.55285  -0.55124
 Alpha  occ. eigenvalues --   -0.54902  -0.54710  -0.54584  -0.54487  -0.54048
 Alpha  occ. eigenvalues --   -0.53959  -0.53509  -0.53348  -0.52985  -0.52681
 Alpha  occ. eigenvalues --   -0.52551  -0.52508  -0.52408  -0.52144  -0.51974
 Alpha  occ. eigenvalues --   -0.51970  -0.51858  -0.51755  -0.51667  -0.51418
 Alpha  occ. eigenvalues --   -0.51386  -0.51041  -0.50994  -0.50624  -0.50594
 Alpha  occ. eigenvalues --   -0.50455  -0.50412  -0.50138  -0.50118  -0.50010
 Alpha  occ. eigenvalues --   -0.49727  -0.49533  -0.49329  -0.49293  -0.49179
 Alpha  occ. eigenvalues --   -0.48561  -0.48515  -0.48259  -0.48131  -0.48048
 Alpha  occ. eigenvalues --   -0.48005  -0.47930  -0.47764  -0.47524  -0.47391
 Alpha  occ. eigenvalues --   -0.47139  -0.47121  -0.47060  -0.46974  -0.46967
 Alpha  occ. eigenvalues --   -0.46809  -0.46612  -0.46549  -0.46298  -0.46269
 Alpha  occ. eigenvalues --   -0.46199  -0.45929  -0.45861  -0.45517  -0.45322
 Alpha  occ. eigenvalues --   -0.45168  -0.45096  -0.45001  -0.44782  -0.44745
 Alpha  occ. eigenvalues --   -0.44466  -0.44457  -0.44277  -0.44099  -0.43988
 Alpha  occ. eigenvalues --   -0.43968  -0.43624  -0.43513  -0.43298  -0.43146
 Alpha  occ. eigenvalues --   -0.42696  -0.42659  -0.42344  -0.42318  -0.42091
 Alpha  occ. eigenvalues --   -0.41969  -0.41776  -0.41727  -0.41404  -0.41239
 Alpha  occ. eigenvalues --   -0.40895  -0.40347  -0.40014  -0.39870  -0.39285
 Alpha  occ. eigenvalues --   -0.39275  -0.38701  -0.38608  -0.38363  -0.38327
 Alpha  occ. eigenvalues --   -0.37771  -0.37287  -0.36414  -0.36397  -0.36154
 Alpha  occ. eigenvalues --   -0.35521  -0.35346  -0.35143  -0.34488  -0.34138
 Alpha  occ. eigenvalues --   -0.34127  -0.33820  -0.33077  -0.32605  -0.32486
 Alpha  occ. eigenvalues --   -0.31612  -0.31168  -0.30824  -0.26062  -0.25860
 Alpha  occ. eigenvalues --   -0.23361  -0.23009
 Alpha virt. eigenvalues --   -0.06859  -0.06748   0.00059   0.00140   0.01856
 Alpha virt. eigenvalues --    0.02170   0.04085   0.04169   0.04922   0.05780
 Alpha virt. eigenvalues --    0.07609   0.07702   0.08173   0.08340   0.08541

 Mulliken charges:
               1
     1  Mg   0.972664
     2  C    0.039492
     3  C   -0.094696
     4  C   -0.084775
     5  C   -0.089076
     6  N   -0.279967
     7  C   -0.033751
     8  C   -0.039488
     9  C   -0.125387
    10  C    0.009484
    11  C    0.001848
    12  C   -0.006428
    13  C   -0.125486
    14  H    0.045840
    15  N   -0.445277
    16  C    0.189102
    17  C   -0.135281
    18  C   -0.078122
    19  C    0.174061
    20  C    0.050546
    21  C    0.084192
    22  O   -0.232496
    23  C   -0.006753
    24  N   -0.424774
    25  C    0.030702
    26  C   -0.065390
    27  C   -0.064810
    28  C    0.113752
    29  C    0.012663
    30  C   -0.040715
    31  C   -0.047850
    32  N   -0.454851
    33  C    0.145738
    34  C   -0.198935
    35  C   -0.045538
    36  C    0.123340
    37  C    0.077681
    38  C    0.112869
    39  O   -0.226550
    40  C   -0.112921
    41  C    0.233031
    42  O   -0.268650
    43  O   -0.310162
    44  C    0.148255
    45  H    0.001888
    46  H    0.016040
    47  H   -0.006160
    48  H    0.060629
    49  H    0.045627
    50  H    0.052691
    51  H    0.037784
    52  H    0.037501
    53  H    0.038502
    54  H    0.032716
    55  H    0.062016
    56  H    0.051801
    57  H    0.054675
    58  H    0.035501
    59  H    0.048369
    60  H    0.039624
    61  H    0.049830
    62  H    0.061288
    63  H    0.053979
    64  H    0.031665
    65  H    0.057285
    66  H    0.025266
    67  H    0.035168
    68  H    0.036536
    69  H    0.031250
    70  H    0.037263
    71  H    0.043611
    72  H    0.025476
    73  H    0.056353
    74  H    0.061405
    75  H    0.025333
    76  H    0.075627
    77  H    0.050767
    78  H    0.052460
    79  H    0.053101
    80  Mg   0.966670
    81  C   -0.041289
    82  C   -0.128801
    83  C   -0.109145
    84  C   -0.042140
    85  N   -0.333027
    86  C   -0.011571
    87  C   -0.074725
    88  C   -0.075930
    89  C    0.063547
    90  C    0.034903
    91  C    0.028367
    92  C   -0.107179
    93  H    0.024740
    94  N   -0.466081
    95  C    0.185956
    96  C   -0.152946
    97  C   -0.065496
    98  C    0.142380
    99  C    0.072148
   100  C    0.052380
   101  O   -0.253963
   102  C    0.003618
   103  N   -0.331033
   104  C    0.128597
   105  C   -0.083472
   106  C   -0.090968
   107  C    0.027372
   108  C    0.020514
   109  C    0.009844
   110  C   -0.034543
   111  N   -0.438502
   112  C    0.046341
   113  C   -0.148323
   114  C    0.002733
   115  C    0.157683
   116  C    0.059529
   117  C    0.058020
   118  O   -0.195163
   119  C   -0.117798
   120  C    0.296878
   121  O   -0.238863
   122  O   -0.364132
   123  C    0.141297
   124  H   -0.003512
   125  H   -0.019461
   126  H   -0.016851
   127  H    0.023276
   128  H    0.032773
   129  H    0.025024
   130  H    0.044676
   131  H    0.053879
   132  H    0.020250
   133  H    0.052760
   134  H    0.048259
   135  H    0.048682
   136  H    0.019586
   137  H    0.064689
   138  H    0.059505
   139  H    0.061884
   140  H    0.091276
   141  H    0.055081
   142  H    0.038399
   143  H    0.031581
   144  H    0.030255
   145  H    0.041605
   146  H    0.029166
   147  H    0.042105
   148  H    0.025824
   149  H    0.032462
   150  H    0.043076
   151  H    0.051690
   152  H    0.058562
   153  H    0.038066
   154  H    0.040757
   155  H    0.054818
   156  H    0.058152
   157  H    0.060924
   158  H    0.042353
 Sum of Mulliken charges =  -0.00000

 Dipole moment (field-independent basis, Debye):
    X=             -6.7070    Y=              0.8816    Z=             -0.9436  Tot=              6.8302
 Quadrupole moment (field-independent basis, Debye-Ang):
   XX=           -473.8992   YY=           -538.9839   ZZ=           -494.5902
   XY=            192.5042   XZ=              4.1244   YZ=             -1.9304

 Normal termination of Gaussian 16 at Mon Sep 20 13:37:57 2021.
