 Gaussian 16, Revision A.03,
 Gaussian 16:  ES64L-G16RevA.03 25-Dec-2016

 --------------------------------
 #p wB97XD/Def2SVP td=(nstates=5)
 --------------------------------

 --------------------------------
 TDDFT excited states in gaussian
 --------------------------------
 Symbolic Z-matrix:
 Charge =  0 Multiplicity = 1

                         Standard orientation:
 ---------------------------------------------------------------------
 Center     Atomic      Atomic             Coordinates (Angstroms)
 Number     Number       Type             X           Y           Z
 ---------------------------------------------------------------------
      1         12           0        0.776821    0.078024   -0.101362
      2          6           0       -2.784933    0.277494    0.192460
      3          6           0        0.503864   -3.239526    0.648586
      4          6           0        3.940377   -0.027125    0.092235
      5          6           0        0.855727    3.539396    0.296550
      6          7           0       -0.973444   -1.202864    0.341971
      7          6           0       -2.289567   -1.017075    0.363774
      8          6           0       -3.098021   -2.340783    0.510648
      9          6           0       -1.980153   -3.243069    1.202203
     10          6           0       -0.741046   -2.543340    0.672187
     11          6           0       -1.981161   -3.153857    2.724879
     12          6           0       -3.532959   -2.928542   -0.873946
     13          6           0       -4.594455   -4.030670   -0.811557
     14          1           0       -5.592615   -4.102185   -1.867924
     15          7           0        2.014285   -1.460341   -0.171825
     16          6           0        1.729530   -2.744289    0.153257
     17          6           0        2.977477   -3.506646   -0.066113
     18          6           0        4.061408   -2.529423   -0.363140
     19          6           0        3.378939   -1.282200   -0.130656
     20          6           0        3.044391   -5.002696   -0.032866
     21          6           0        5.489121   -2.693801   -0.778770
     22          8           0        6.319565   -1.721929   -0.758732
     23          6           0        5.917912   -4.059690   -1.130232
     24          7           0        2.218687    1.510122    0.375871
     25          6           0        3.523158    1.218433    0.328370
     26          6           0        4.363590    2.456704    0.429848
     27          6           0        3.353207    3.687587    0.312349
     28          6           0        2.024075    2.895951    0.241696
     29          6           0        5.193891    2.598711    1.712987
     30          6           0        3.646944    4.735690   -0.790202
     31          6           0        3.451842    4.113553   -2.154745
     32          7           0       -0.688282    1.675089    0.016531
     33          6           0       -0.433174    3.041005    0.205920
     34          6           0       -1.740560    3.711844    0.327512
     35          6           0       -2.671098    2.680549    0.216265
     36          6           0       -1.987709    1.440494    0.062862
     37          6           0       -1.946261    5.098116    0.573215
     38          6           0       -4.083264    2.334652    0.215992
     39          8           0       -5.133680    2.978172    0.216799
     40          6           0       -4.211250    0.750972    0.322778
     41          6           0       -5.198774    0.303435   -0.720206
     42          8           0       -4.937082    0.408565   -1.935867
     43          8           0       -6.184703   -0.389866   -0.130443
     44          6           0       -7.183355   -0.888313   -1.113500
     45          1           0        0.563127   -4.230501    1.102895
     46          1           0        5.031487   -0.003087    0.055641
     47          1           0        0.799948    4.628732    0.337643
     48          1           0       -3.972286   -2.269939    1.158000
     49          1           0       -2.013409   -4.273702    0.849483
     50          1           0       -2.667049   -2.384120    3.078410
     51          1           0       -0.956227   -2.907203    3.002664
     52          1           0       -2.186051   -4.127928    3.169832
     53          1           0       -2.704190   -3.493137   -1.301071
     54          1           0       -3.875518   -2.135313   -1.539353
     55          1           0       -5.071627   -4.069468    0.168091
     56          1           0       -4.092867   -4.993749   -0.906890
     57          1           0        2.130640   -5.435550    0.372400
     58          1           0        3.815469   -5.270961    0.689064
     59          1           0        3.290696   -5.424230   -1.007532
     60          1           0        5.759771   -4.717670   -0.275478
     61          1           0        6.943098   -3.970373   -1.487816
     62          1           0        5.278360   -4.435943   -1.929204
     63          1           0        5.084869    2.507623   -0.384762
     64          1           0        3.312731    4.272696    1.231415
     65          1           0        6.262791    2.714873    1.532251
     66          1           0        4.995494    1.730364    2.340604
     67          1           0        4.887432    3.413977    2.367846
     68          1           0        4.683750    5.065453   -0.733313
     69          1           0        3.013426    5.620211   -0.722909
     70          1           0        4.404274    3.615926   -2.333831
     71          1           0        3.268321    4.886031   -2.902280
     72          1           0        2.680533    3.343384   -2.134522
     73          1           0       -2.748849    5.410494   -0.094797
     74          1           0       -1.036669    5.671145    0.394656
     75          1           0       -2.226611    5.077134    1.626220
     76          1           0       -4.555251    0.531700    1.333078
     77          1           0       -8.158556   -0.519395   -0.795512
     78          1           0       -7.046079   -1.968065   -1.174303
     79          1           0       -7.122006   -0.468313   -2.118077
 ---------------------------------------------------------------------

 SCF Done:  E(RwB97XD) =  -2035.30907268     A.U. after   20 cycles

 Excitation energies and oscillator strengths:

 Excited State   1:      Singlet-A      1.6216 eV  764.59 nm  f=0.3861  <S**2>=0.000
     155 ->158         0.18185
     156 ->157         0.68328
     155 <-158         0.11455
 This state for optimization and/or second-order correction.
 Total Energy, E(TD-HF/TD-DFT) =  -2035.24948062
 Copying the excited state density for this state as the 1-particle RhoCI density.

 Excited State   2:      Singlet-A      2.1385 eV  579.76 nm  f=0.0958  <S**2>=0.000
     155 ->157         0.63837
     156 ->158        -0.28188

 Excited State   3:      Singlet-A      3.3013 eV  375.56 nm  f=0.0077  <S**2>=0.000
     153 ->157        -0.44225
     154 ->157         0.48821
     156 ->158        -0.17043

 Excited State   4:      Singlet-A      3.3543 eV  369.63 nm  f=0.0322  <S**2>=0.000
     152 ->157        -0.13052
     152 ->160        -0.11749
     153 ->157         0.38217
     154 ->157         0.43833
     156 ->158         0.29958

 Excited State   5:      Singlet-A      3.4593 eV  358.41 nm  f=0.0272  <S**2>=0.000
     152 ->157         0.55708
     152 ->159        -0.20197
     152 ->160         0.27332
     154 ->157         0.12884
     156 ->158         0.17178

 The electronic state is 1-A.
 Alpha  occ. eigenvalues --  -46.94113 -19.31483 -19.23977 -19.23871 -19.23208
 Alpha  occ. eigenvalues --  -14.47029 -14.46037 -14.44003 -14.43144 -10.42922
 Alpha  occ. eigenvalues --  -10.39416 -10.38396 -10.35438 -10.35416 -10.34893
 Alpha  occ. eigenvalues --  -10.34595 -10.34529 -10.34181 -10.33880 -10.33814
 Alpha  occ. eigenvalues --  -10.33229 -10.32800 -10.32452 -10.32317 -10.32132
 Alpha  occ. eigenvalues --  -10.31853 -10.31775 -10.31695 -10.31535 -10.31497
 Alpha  occ. eigenvalues --  -10.31459 -10.31413 -10.31174 -10.30620 -10.30262
 Alpha  occ. eigenvalues --  -10.30068 -10.30056 -10.29978 -10.29664 -10.29260
 Alpha  occ. eigenvalues --  -10.28852 -10.28790 -10.28462  -3.20272  -1.93849
 Alpha  occ. eigenvalues --   -1.93416  -1.93253  -1.18807  -1.10837  -1.09418
 Alpha  occ. eigenvalues --   -1.08820  -1.06553  -1.05754  -1.05241  -1.04421
 Alpha  occ. eigenvalues --   -0.93911  -0.91396  -0.91033  -0.90154  -0.89774
 Alpha  occ. eigenvalues --   -0.89574  -0.89214  -0.86860  -0.85798  -0.84880
 Alpha  occ. eigenvalues --   -0.84545  -0.83505  -0.82537  -0.80755  -0.79125
 Alpha  occ. eigenvalues --   -0.78832  -0.77838  -0.76796  -0.74735  -0.73613
 Alpha  occ. eigenvalues --   -0.71781  -0.70814  -0.69630  -0.69156  -0.67203
 Alpha  occ. eigenvalues --   -0.66821  -0.66576  -0.66208  -0.64262  -0.62419
 Alpha  occ. eigenvalues --   -0.61741  -0.60954  -0.60476  -0.59529  -0.59252
 Alpha  occ. eigenvalues --   -0.58276  -0.57841  -0.57477  -0.57244  -0.56450
 Alpha  occ. eigenvalues --   -0.55796  -0.55226  -0.55146  -0.54858  -0.54663
 Alpha  occ. eigenvalues --   -0.54305  -0.53817  -0.53513  -0.53113  -0.52518
 Alpha  occ. eigenvalues --   -0.51925  -0.51862  -0.51431  -0.51153  -0.50999
 Alpha  occ. eigenvalues --   -0.50497  -0.50405  -0.50366  -0.49603  -0.49225
 Alpha  occ. eigenvalues --   -0.48679  -0.48458  -0.48296  -0.48085  -0.47718
 Alpha  occ. eigenvalues --   -0.47088  -0.46485  -0.46397  -0.46034  -0.45979
 Alpha  occ. eigenvalues --   -0.45922  -0.45361  -0.45308  -0.44945  -0.44641
 Alpha  occ. eigenvalues --   -0.44545  -0.43899  -0.43694  -0.43411  -0.43012
 Alpha  occ. eigenvalues --   -0.42845  -0.42723  -0.42436  -0.42106  -0.41366
 Alpha  occ. eigenvalues --   -0.40345  -0.39672  -0.39341  -0.39173  -0.38695
 Alpha  occ. eigenvalues --   -0.38172  -0.36268  -0.35765  -0.35329  -0.33340
 Alpha  occ. eigenvalues --   -0.33171  -0.31988  -0.31602  -0.31465  -0.25990
 Alpha  occ. eigenvalues --   -0.22908
 Alpha virt. eigenvalues --   -0.07091   0.00194   0.01999   0.04326   0.06281
 Alpha virt. eigenvalues --    0.07117   0.07272   0.09166   0.09780   0.10349
 Alpha virt. eigenvalues --    0.11627   0.12195   0.12728   0.13330   0.13797

 Mulliken charges:
               1
     1  Mg   0.978385
     2  C   -0.020028
     3  C   -0.101311
     4  C   -0.061219
     5  C   -0.071045
     6  N   -0.323296
     7  C   -0.008530
     8  C   -0.058215
     9  C   -0.138103
    10  C    0.061875
    11  C    0.058277
    12  C    0.014062
    13  C   -0.126925
    14  H    0.052381
    15  N   -0.518274
    16  C    0.183476
    17  C   -0.196001
    18  C   -0.036979
    19  C    0.166546
    20  C    0.060795
    21  C    0.056720
    22  O   -0.280041
    23  C    0.001650
    24  N   -0.410029
    25  C    0.066141
    26  C   -0.084946
    27  C   -0.063862
    28  C    0.089667
    29  C    0.031886
    30  C   -0.016725
    31  C   -0.058121
    32  N   -0.398555
    33  C    0.097275
    34  C   -0.187945
    35  C   -0.040082
    36  C    0.126247
    37  C    0.081432
    38  C    0.128841
    39  O   -0.224752
    40  C   -0.076834
    41  C    0.275778
    42  O   -0.284547
    43  O   -0.335643
    44  C    0.120641
    45  H    0.007900
    46  H    0.010663
    47  H   -0.017350
    48  H    0.026018
    49  H    0.022614
    50  H    0.047115
    51  H    0.037795
    52  H    0.040090
    53  H    0.035389
    54  H    0.067677
    55  H    0.038952
    56  H    0.040611
    57  H    0.029654
    58  H    0.048961
    59  H    0.062122
    60  H    0.057832
    61  H    0.061843
    62  H    0.053053
    63  H    0.042947
    64  H    0.035667
    65  H    0.045321
    66  H    0.034329
    67  H    0.025708
    68  H    0.032616
    69  H    0.029416
    70  H    0.029209
    71  H    0.042197
    72  H    0.049658
    73  H    0.070899
    74  H    0.031401
    75  H    0.069408
    76  H    0.065869
    77  H    0.061271
    78  H    0.062821
    79  H    0.070258
 Sum of Mulliken charges =  -0.00000

 Dipole moment (field-independent basis, Debye):
    X=              1.4143    Y=             -4.1089    Z=              1.8341  Tot=              4.7168
 Quadrupole moment (field-independent basis, Debye-Ang):
   XX=           -273.2292   YY=           -220.2529   ZZ=           -257.5790
   XY=             24.4419   XZ=             -1.9029   YZ=              1.0290

 Normal termination of Gaussian 16 at Sun Sep 19 11:32:38 2021.
