 Gaussian 16, Revision A.03,
 Gaussian 16:  ES64L-G16RevA.03 25-Dec-2016

 --------------------------------
 #p wB97XD/Def2SVP td=(nstates=5)
 --------------------------------

 --------------------------------
 TDDFT excited states in gaussian
 --------------------------------
 Symbolic Z-matrix:
 Charge =  0 Multiplicity = 1

                         Standard orientation:
 ---------------------------------------------------------------------
 Center     Atomic      Atomic             Coordinates (Angstroms)
 Number     Number       Type             X           Y           Z
 ---------------------------------------------------------------------
      1         12           0      -26.534854    0.430064   -0.532838
      2          6           0      -25.078208   -1.899436    1.602768
      3          6           0      -27.039595    2.518562    2.062319
      4          6           0      -28.328016    2.414171   -2.600052
      5          6           0      -26.425473   -1.950438   -3.025033
      6          7           0      -26.098489    0.275621    1.634439
      7          6           0      -25.312939   -0.677186    2.231620
      8          6           0      -25.060765   -0.324345    3.648173
      9          6           0      -25.706837    1.047033    3.876823
     10          6           0      -26.329350    1.367048    2.449935
     11          6           0      -26.679371    1.219573    5.033248
     12          6           0      -23.467640   -0.377598    4.002033
     13          6           0      -23.002979   -1.391490    5.073655
     14          1           0      -21.939551   -1.022577    6.078604
     15          7           0      -27.437206    2.266819   -0.337065
     16          6           0      -27.561461    2.988017    0.840933
     17          6           0      -28.307946    4.168700    0.598883
     18          6           0      -28.706530    4.165930   -0.765347
     19          6           0      -28.138045    2.924367   -1.300114
     20          6           0      -28.429754    5.229193    1.762051
     21          6           0      -29.599615    5.215033   -1.425387
     22          8           0      -30.012469    5.173770   -2.594259
     23          6           0      -29.962189    6.426610   -0.685017
     24          7           0      -27.515428    0.208977   -2.469163
     25          6           0      -28.084936    1.181747   -3.150209
     26          6           0      -28.611500    0.670959   -4.510338
     27          6           0      -27.554122   -0.483155   -4.721999
     28          6           0      -27.093754   -0.765975   -3.295490
     29          6           0      -30.075986    0.111544   -4.646741
     30          6           0      -26.317920   -0.168515   -5.693716
     31          6           0      -25.429155    0.954968   -5.347376
     32          7           0      -25.925954   -1.617217   -0.763906
     33          6           0      -25.930189   -2.476173   -1.880406
     34          6           0      -25.379340   -3.739845   -1.506947
     35          6           0      -25.091413   -3.607685   -0.163124
     36          6           0      -25.346935   -2.249593    0.217533
     37          6           0      -25.412157   -4.959525   -2.290524
     38          6           0      -24.433148   -4.218066    0.894015
     39          8           0      -23.933693   -5.341661    1.012831
     40          6           0      -24.461631   -3.211610    2.133047
     41          6           0      -25.397667   -3.825866    3.120764
     42          8           0      -26.569139   -4.131342    3.042810
     43          8           0      -24.657523   -4.037973    4.210379
     44          6           0      -25.374088   -4.630562    5.386927
     45          1           0      -26.942044    3.188685    2.918953
     46          1           0      -28.774484    3.153624   -3.267078
     47          1           0      -26.337899   -2.669829   -3.841637
     48          1           0      -25.578142   -1.093065    4.220843
     49          1           0      -24.920115    1.787588    4.019155
     50          1           0      -27.583889    1.040223    4.453253
     51          1           0      -26.623546    2.171662    5.561290
     52          1           0      -26.675864    0.503213    5.854330
     53          1           0      -23.140189    0.622637    4.284046
     54          1           0      -22.845291   -0.704746    3.168733
     55          1           0      -22.539790   -2.212734    4.525975
     56          1           0      -23.842649   -1.856339    5.588634
     57          1           0      -29.484151    5.467456    1.900691
     58          1           0      -27.944586    6.051447    1.235972
     59          1           0      -28.100494    4.943536    2.761145
     60          1           0      -30.470526    6.179236    0.245886
     61          1           0      -30.792165    6.866757   -1.237241
     62          1           0      -29.162729    7.158917   -0.569476
     63          1           0      -28.331767    1.394831   -5.275882
     64          1           0      -28.137846   -1.279826   -5.182558
     65          1           0      -30.428960   -0.498604   -3.816207
     66          1           0      -30.022012   -0.448971   -5.580714
     67          1           0      -30.792252    0.927201   -4.749054
     68          1           0      -26.620576    0.062596   -6.715327
     69          1           0      -25.561574   -0.951091   -5.634267
     70          1           0      -24.766501    0.521641   -4.599543
     71          1           0      -25.854754    1.854488   -4.901553
     72          1           0      -24.770151    1.353107   -6.118234
     73          1           0      -26.411248   -5.355032   -2.103669
     74          1           0      -24.674883   -5.713520   -2.016320
     75          1           0      -25.181287   -4.804128   -3.344968
     76          1           0      -23.471597   -2.981803    2.527047
     77          1           0      -25.480355   -3.798193    6.082967
     78          1           0      -24.795639   -5.462488    5.788031
     79          1           0      -26.387629   -4.998098    5.224001
     80         12           0       26.751904   -0.671093    0.386272
     81          6           0       25.656683    2.629339    0.966107
     82          6           0       23.560733   -1.433323   -0.531655
     83          6           0       27.947746   -3.609251   -0.885988
     84          6           0       30.054699    0.566143    0.896965
     85          7           0       24.826277    0.533470    0.098513
     86          6           0       24.539849    1.798567    0.525057
     87          6           0       23.104764    2.223177    0.168516
     88          6           0       22.479490    0.746303    0.066554
     89          6           0       23.700461   -0.116716   -0.133501
     90          6           0       21.651922    0.278827    1.293798
     91          6           0       22.968217    3.005733   -1.214357
     92          6           0       21.776326    3.926988   -1.423624
     93          1           0       20.647203    3.596492   -2.422813
     94          7           0       25.911308   -2.398805   -0.579130
     95          6           0       24.560173   -2.530651   -0.717947
     96          6           0       24.219509   -3.825551   -1.112537
     97          6           0       25.479153   -4.528573   -1.208638
     98          6           0       26.546412   -3.528589   -0.922386
     99          6           0       22.798698   -4.326640   -1.341912
    100          6           0       25.567129   -5.993623   -1.571900
    101          8           0       24.512425   -6.642613   -1.793539
    102          6           0       26.908364   -6.808253   -1.585740
    103          7           0       28.696621   -1.347930    0.087050
    104          6           0       28.936958   -2.647707   -0.435091
    105          6           0       30.373586   -3.031526   -0.213553
    106          6           0       31.099782   -1.687021    0.008276
    107          6           0       29.920085   -0.765073    0.433923
    108          6           0       30.750128   -3.953752    0.968015
    109          6           0       31.781220   -1.124516   -1.347938
    110          6           0       33.163079   -1.632326   -1.731132
    111          7           0       27.636388    1.185992    1.021479
    112          6           0       28.970155    1.526441    1.189943
    113          6           0       29.119534    2.861238    1.516090
    114          6           0       27.806357    3.361733    1.499334
    115          6           0       26.947029    2.300722    1.167540
    116          6           0       30.421950    3.539276    1.803265
    117          6           0       27.041367    4.460100    1.776472
    118          8           0       27.353397    5.530899    2.258989
    119          6           0       25.658348    4.099279    1.194675
    120          6           0       25.529832    4.938317   -0.041562
    121          8           0       26.296452    4.906025   -0.953332
    122          8           0       24.439608    5.802648    0.073261
    123          6           0       24.374553    6.734341   -0.998508
    124          1           0       22.528341   -1.775006   -0.633416
    125          1           0       28.368896   -4.596973   -1.086991
    126          1           0       31.076734    0.833211    1.172874
    127          1           0       22.590174    2.696116    1.004286
    128          1           0       21.787772    0.764896   -0.775177
    129          1           0       20.627831    0.469537    0.971684
    130          1           0       21.850698    0.880757    2.180436
    131          1           0       21.774765   -0.788590    1.477917
    132          1           0       22.887706    2.301488   -2.042455
    133          1           0       23.916624    3.520304   -1.370291
    134          1           0       22.228930    4.877083   -1.711156
    135          1           0       21.317899    4.084503   -0.447470
    136          1           0       22.536098   -5.349752   -1.070788
    137          1           0       22.729307   -4.099233   -2.405410
    138          1           0       22.103171   -3.770246   -0.713569
    139          1           0       27.331676   -6.825888   -0.581815
    140          1           0       27.502739   -6.259311   -2.315875
    141          1           0       26.859771   -7.807236   -2.018863
    142          1           0       30.725212   -3.451105   -1.155551
    143          1           0       31.865611   -1.752751    0.781205
    144          1           0       31.338824   -3.482185    1.754689
    145          1           0       30.961346   -4.967854    0.628138
    146          1           0       29.800593   -4.120301    1.476434
    147          1           0       31.801494   -0.059980   -1.115461
    148          1           0       31.132549   -1.295698   -2.207230
    149          1           0       33.137251   -1.996434   -2.757841
    150          1           0       33.442367   -2.449591   -1.065589
    151          1           0       33.901019   -0.829942   -1.711208
    152          1           0       30.427929    4.442990    1.194557
    153          1           0       31.282171    2.954100    1.475823
    154          1           0       30.527182    3.830848    2.848402
    155          1           0       24.902077    4.381599    1.926292
    156          1           0       24.898317    7.648458   -0.720270
    157          1           0       23.370472    7.120356   -1.178405
    158          1           0       24.812873    6.344430   -1.915587
 ---------------------------------------------------------------------

 SCF Done:  E(RwB97XD) =  -4070.56310051     A.U. after   20 cycles

 Excitation energies and oscillator strengths:

 Excited State   1:      Singlet-A      1.6459 eV  753.29 nm  f=0.0957  <S**2>=0.000
     309 -> 315       -0.15453
     310 -> 316       -0.10676
     311 -> 313        0.55000
     312 -> 314       -0.40265
 This state for optimization and/or second-order correction.
 Total Energy, E(TD-HF/TD-DFT) =  -4070.50261457
 Copying the excited state density for this state as the 1-particle RhoCI density.

 Excited State   2:      Singlet-A      1.6465 eV  753.03 nm  f=0.6774  <S**2>=0.000
     309 -> 315       -0.11271
     310 -> 316        0.14660
     311 -> 313        0.40080
     312 -> 314        0.55248

 Excited State   3:      Singlet-A      2.0912 eV  592.88 nm  f=0.1263  <S**2>=0.000
     309 -> 313        0.64853
     311 -> 315        0.26308

 Excited State   4:      Singlet-A      2.1205 eV  584.69 nm  f=0.1344  <S**2>=0.000
     310 -> 314        0.64942
     312 -> 316       -0.26634

 Excited State   5:      Singlet-A      3.1710 eV  390.99 nm  f=0.0097  <S**2>=0.000
     307 -> 313       -0.26125
     308 -> 313        0.61002
     308 -> 317       -0.13668

 The electronic state is 1-A.
 Alpha  occ. eigenvalues --  -46.96667 -46.95694 -19.30644 -19.30289 -19.25857
 Alpha  occ. eigenvalues --  -19.24045 -19.23715 -19.23329 -19.23178 -19.22937
 Alpha  occ. eigenvalues --  -14.47790 -14.47282 -14.46597 -14.46439 -14.44419
 Alpha  occ. eigenvalues --  -14.44328 -14.43830 -14.43595 -10.43571 -10.42469
 Alpha  occ. eigenvalues --  -10.39054 -10.39032 -10.38214 -10.37366 -10.36483
 Alpha  occ. eigenvalues --  -10.36378 -10.35700 -10.35487 -10.35485 -10.35252
 Alpha  occ. eigenvalues --  -10.35004 -10.34755 -10.34739 -10.34647 -10.34317
 Alpha  occ. eigenvalues --  -10.34298 -10.34119 -10.33990 -10.33833 -10.33333
 Alpha  occ. eigenvalues --  -10.33140 -10.33093 -10.33017 -10.32824 -10.32626
 Alpha  occ. eigenvalues --  -10.32591 -10.32485 -10.32385 -10.32379 -10.32309
 Alpha  occ. eigenvalues --  -10.32303 -10.32119 -10.32104 -10.32047 -10.32022
 Alpha  occ. eigenvalues --  -10.31970 -10.31912 -10.31877 -10.31863 -10.31722
 Alpha  occ. eigenvalues --  -10.31660 -10.31618 -10.31560 -10.31541 -10.31508
 Alpha  occ. eigenvalues --  -10.31492 -10.31479 -10.31315 -10.31209 -10.30547
 Alpha  occ. eigenvalues --  -10.30483 -10.30441 -10.30358 -10.30339 -10.30333
 Alpha  occ. eigenvalues --  -10.30242 -10.30131 -10.29974 -10.29944 -10.29868
 Alpha  occ. eigenvalues --  -10.29802 -10.29474 -10.29466 -10.28720 -10.28561
 Alpha  occ. eigenvalues --  -10.28206  -3.22436  -3.21559  -1.96016  -1.95546
 Alpha  occ. eigenvalues --   -1.95394  -1.95148  -1.94655  -1.94544  -1.19812
 Alpha  occ. eigenvalues --   -1.19208  -1.12274  -1.11754  -1.11351  -1.10840
 Alpha  occ. eigenvalues --   -1.09576  -1.09540  -1.07791  -1.07448  -1.06726
 Alpha  occ. eigenvalues --   -1.06323  -1.05991  -1.05418  -1.04674  -1.03916
 Alpha  occ. eigenvalues --   -0.96386  -0.94215  -0.91141  -0.90878  -0.90645
 Alpha  occ. eigenvalues --   -0.90635  -0.90571  -0.90333  -0.89903  -0.89544
 Alpha  occ. eigenvalues --   -0.89537  -0.89041  -0.88825  -0.87878  -0.86584
 Alpha  occ. eigenvalues --   -0.86313  -0.86169  -0.85544  -0.85006  -0.84847
 Alpha  occ. eigenvalues --   -0.83953  -0.83829  -0.83531  -0.82718  -0.82664
 Alpha  occ. eigenvalues --   -0.82314  -0.80731  -0.80032  -0.79616  -0.79326
 Alpha  occ. eigenvalues --   -0.79320  -0.78908  -0.77919  -0.77912  -0.77660
 Alpha  occ. eigenvalues --   -0.77312  -0.75620  -0.75498  -0.74254  -0.73680
 Alpha  occ. eigenvalues --   -0.71490  -0.71359  -0.71059  -0.70429  -0.70404
 Alpha  occ. eigenvalues --   -0.69749  -0.69186  -0.69177  -0.68266  -0.67747
 Alpha  occ. eigenvalues --   -0.67396  -0.67337  -0.66794  -0.66724  -0.66250
 Alpha  occ. eigenvalues --   -0.65974  -0.64819  -0.64067  -0.62517  -0.62444
 Alpha  occ. eigenvalues --   -0.62172  -0.61931  -0.61598  -0.61327  -0.61203
 Alpha  occ. eigenvalues --   -0.61045  -0.60616  -0.60268  -0.60099  -0.59910
 Alpha  occ. eigenvalues --   -0.58507  -0.58439  -0.57712  -0.57706  -0.57496
 Alpha  occ. eigenvalues --   -0.57295  -0.57090  -0.57011  -0.56788  -0.56661
 Alpha  occ. eigenvalues --   -0.55822  -0.55522  -0.55311  -0.55183  -0.55135
 Alpha  occ. eigenvalues --   -0.54964  -0.54748  -0.54663  -0.54539  -0.54230
 Alpha  occ. eigenvalues --   -0.54156  -0.53864  -0.53797  -0.53368  -0.53163
 Alpha  occ. eigenvalues --   -0.53140  -0.53036  -0.52802  -0.52559  -0.52347
 Alpha  occ. eigenvalues --   -0.52080  -0.51793  -0.51745  -0.51678  -0.51677
 Alpha  occ. eigenvalues --   -0.51404  -0.51348  -0.51149  -0.50977  -0.50946
 Alpha  occ. eigenvalues --   -0.50753  -0.50458  -0.50429  -0.50295  -0.50045
 Alpha  occ. eigenvalues --   -0.49883  -0.49329  -0.49290  -0.49168  -0.49117
 Alpha  occ. eigenvalues --   -0.48976  -0.48780  -0.48628  -0.48555  -0.48357
 Alpha  occ. eigenvalues --   -0.48269  -0.48193  -0.47984  -0.47932  -0.47774
 Alpha  occ. eigenvalues --   -0.47735  -0.47248  -0.47194  -0.47016  -0.46678
 Alpha  occ. eigenvalues --   -0.46579  -0.46525  -0.46409  -0.46098  -0.46049
 Alpha  occ. eigenvalues --   -0.45830  -0.45728  -0.45639  -0.45312  -0.45298
 Alpha  occ. eigenvalues --   -0.45184  -0.45164  -0.44945  -0.44908  -0.44566
 Alpha  occ. eigenvalues --   -0.44483  -0.44451  -0.44168  -0.44161  -0.44078
 Alpha  occ. eigenvalues --   -0.43763  -0.43633  -0.43462  -0.43305  -0.43186
 Alpha  occ. eigenvalues --   -0.43028  -0.42928  -0.42855  -0.42659  -0.42405
 Alpha  occ. eigenvalues --   -0.42214  -0.42103  -0.41421  -0.41371  -0.40867
 Alpha  occ. eigenvalues --   -0.40452  -0.40054  -0.39993  -0.39835  -0.39655
 Alpha  occ. eigenvalues --   -0.39592  -0.39145  -0.39099  -0.38911  -0.38644
 Alpha  occ. eigenvalues --   -0.38446  -0.38066  -0.37505  -0.37073  -0.36490
 Alpha  occ. eigenvalues --   -0.36269  -0.35762  -0.35683  -0.33703  -0.33668
 Alpha  occ. eigenvalues --   -0.32988  -0.32726  -0.32526  -0.32474  -0.32170
 Alpha  occ. eigenvalues --   -0.32167  -0.31993  -0.31649  -0.26248  -0.25949
 Alpha  occ. eigenvalues --   -0.23849  -0.23274
 Alpha virt. eigenvalues --   -0.07966  -0.07360  -0.00594   0.00271   0.01994
 Alpha virt. eigenvalues --    0.02315   0.04334   0.04552   0.04685   0.05281
 Alpha virt. eigenvalues --    0.06740   0.07428   0.07729   0.07980   0.08604

 Mulliken charges:
               1
     1  Mg   0.939132
     2  C   -0.014676
     3  C   -0.073739
     4  C   -0.062169
     5  C   -0.108125
     6  N   -0.378544
     7  C    0.014417
     8  C   -0.066747
     9  C   -0.052554
    10  C   -0.019005
    11  C    0.003407
    12  C    0.004018
    13  C   -0.135816
    14  H    0.038441
    15  N   -0.463582
    16  C    0.198234
    17  C   -0.182473
    18  C   -0.073616
    19  C    0.131007
    20  C    0.082896
    21  C    0.052780
    22  O   -0.248053
    23  C   -0.010110
    24  N   -0.296358
    25  C    0.020118
    26  C   -0.042509
    27  C   -0.112730
    28  C    0.095747
    29  C    0.041908
    30  C    0.013765
    31  C   -0.088532
    32  N   -0.408967
    33  C    0.114935
    34  C   -0.133397
    35  C    0.022732
    36  C    0.108499
    37  C    0.062407
    38  C    0.079715
    39  O   -0.226667
    40  C   -0.091688
    41  C    0.269379
    42  O   -0.244558
    43  O   -0.346885
    44  C    0.120688
    45  H   -0.007352
    46  H    0.014663
    47  H   -0.002400
    48  H    0.047165
    49  H    0.033934
    50  H    0.048101
    51  H    0.042010
    52  H    0.040863
    53  H    0.041741
    54  H    0.042496
    55  H    0.057958
    56  H    0.038080
    57  H    0.037977
    58  H    0.060557
    59  H    0.052918
    60  H    0.039100
    61  H    0.045931
    62  H    0.075431
    63  H    0.019752
    64  H    0.023023
    65  H    0.050113
    66  H    0.040569
    67  H    0.051587
    68  H    0.036083
    69  H    0.028690
    70  H    0.022179
    71  H    0.034917
    72  H    0.039566
    73  H    0.074338
    74  H    0.055813
    75  H    0.035988
    76  H    0.056664
    77  H    0.046823
    78  H    0.068348
    79  H    0.073647
    80  Mg   0.948403
    81  C    0.000546
    82  C   -0.064855
    83  C   -0.087339
    84  C   -0.085787
    85  N   -0.297905
    86  C   -0.038010
    87  C   -0.036647
    88  C   -0.151823
    89  C    0.082352
    90  C    0.029903
    91  C   -0.001078
    92  C   -0.097708
    93  H    0.043754
    94  N   -0.426074
    95  C    0.122669
    96  C   -0.157833
    97  C   -0.085188
    98  C    0.169013
    99  C    0.086476
   100  C    0.032115
   101  O   -0.271708
   102  C   -0.011494
   103  N   -0.428107
   104  C    0.087183
   105  C   -0.092072
   106  C   -0.113404
   107  C    0.082454
   108  C    0.055273
   109  C   -0.033208
   110  C   -0.022710
   111  N   -0.388476
   112  C    0.120857
   113  C   -0.174837
   114  C    0.038933
   115  C    0.121308
   116  C    0.098372
   117  C    0.025976
   118  O   -0.206353
   119  C   -0.074551
   120  C    0.254167
   121  O   -0.209775
   122  O   -0.358110
   123  C    0.118660
   124  H   -0.004330
   125  H   -0.015880
   126  H    0.009957
   127  H    0.028197
   128  H    0.041458
   129  H    0.039138
   130  H    0.042955
   131  H    0.043396
   132  H    0.044054
   133  H    0.047742
   134  H    0.049681
   135  H    0.043068
   136  H    0.069583
   137  H    0.065456
   138  H    0.029138
   139  H    0.067728
   140  H    0.050366
   141  H    0.051463
   142  H    0.031771
   143  H    0.027924
   144  H    0.049153
   145  H    0.044404
   146  H    0.015812
   147  H    0.024910
   148  H    0.036999
   149  H    0.036031
   150  H    0.032855
   151  H    0.043095
   152  H    0.055724
   153  H    0.023779
   154  H    0.063710
   155  H    0.047899
   156  H    0.048933
   157  H    0.048431
   158  H    0.062034
 Sum of Mulliken charges =  -0.00000

 Dipole moment (field-independent basis, Debye):
    X=              1.5568    Y=              2.1022    Z=              2.0060  Tot=              3.2965
 Quadrupole moment (field-independent basis, Debye-Ang):
   XX=           -483.9399   YY=           -559.2348   ZZ=           -482.7911
   XY=           -146.9040   XZ=            -31.0822   YZ=              2.0043

 Normal termination of Gaussian 16 at Sat Sep 18 20:01:17 2021.
