 Gaussian 16, Revision A.03,
 Gaussian 16:  ES64L-G16RevA.03 25-Dec-2016

 --------------------------------
 #p wB97XD/Def2SVP td=(nstates=5)
 --------------------------------

 --------------------------------
 TDDFT excited states in gaussian
 --------------------------------
 Symbolic Z-matrix:
 Charge =  0 Multiplicity = 1

                         Standard orientation:
 ---------------------------------------------------------------------
 Center     Atomic      Atomic             Coordinates (Angstroms)
 Number     Number       Type             X           Y           Z
 ---------------------------------------------------------------------
      1         12           0      -23.867768    0.355071    0.196966
      2          6           0      -22.392453   -1.906308   -1.944446
      3          6           0      -22.630413    2.844821   -1.797311
      4          6           0      -25.058256    2.580499    2.440761
      5          6           0      -24.561736   -2.212930    2.435919
      6          7           0      -22.506111    0.372846   -1.621411
      7          6           0      -22.220816   -0.604923   -2.392173
      8          6           0      -21.476328   -0.238830   -3.777848
      9          6           0      -21.308613    1.312652   -3.532107
     10          6           0      -22.130429    1.564790   -2.180325
     11          6           0      -19.788371    1.807722   -3.285412
     12          6           0      -22.280449   -0.598707   -5.101550
     13          6           0      -21.451892   -0.985973   -6.377534
     14          1           0      -19.974863   -0.737479   -6.320435
     15          7           0      -23.920878    2.367853    0.278079
     16          6           0      -23.411715    3.292349   -0.716523
     17          6           0      -23.759659    4.639964   -0.278168
     18          6           0      -24.363734    4.587572    1.002768
     19          6           0      -24.513212    3.140304    1.276070
     20          6           0      -23.452557    5.754038   -1.212927
     21          6           0      -24.906807    5.708817    1.919364
     22          8           0      -25.311763    5.563861    3.034361
     23          6           0      -24.730655    7.138836    1.369740
     24          7           0      -24.613289    0.277329    2.231553
     25          6           0      -25.029861    1.278543    2.940292
     26          6           0      -25.318984    0.862774    4.410591
     27          6           0      -25.268902   -0.683513    4.374342
     28          6           0      -24.801953   -0.927725    2.920010
     29          6           0      -24.300000    1.501281    5.378308
     30          6           0      -26.633806   -1.334963    4.754895
     31          6           0      -27.014158   -1.224692    6.240275
     32          7           0      -23.559254   -1.683378    0.275903
     33          6           0      -23.995486   -2.600133    1.215851
     34          6           0      -23.642457   -3.901730    0.713220
     35          6           0      -22.958493   -3.734791   -0.528085
     36          6           0      -22.996139   -2.326648   -0.719162
     37          6           0      -23.879552   -5.125177    1.387322
     38          6           0      -22.353349   -4.350584   -1.665813
     39          8           0      -22.094650   -5.576762   -1.853276
     40          6           0      -21.861083   -3.153307   -2.568051
     41          6           0      -20.424000   -3.270573   -2.693856
     42          8           0      -19.617583   -2.876323   -1.851830
     43          8           0      -20.176788   -4.020038   -3.815780
     44          6           0      -18.764875   -4.442260   -3.931323
     45          1           0      -22.227107    3.660771   -2.399895
     46          1           0      -25.442691    3.356799    3.106630
     47          1           0      -24.865327   -2.989421    3.141803
     48          1           0      -20.511828   -0.738755   -3.685302
     49          1           0      -21.682056    1.870047   -4.390919
     50          1           0      -19.197041    0.940609   -2.989862
     51          1           0      -19.770261    2.555347   -2.492574
     52          1           0      -19.288555    2.276606   -4.133643
     53          1           0      -22.823430    0.319106   -5.325567
     54          1           0      -23.151299   -1.243554   -4.978758
     55          1           0      -21.800953   -0.504647   -7.291009
     56          1           0      -21.508689   -2.064939   -6.521729
     57          1           0      -22.420453    6.084112   -1.091545
     58          1           0      -24.203641    6.543907   -1.196186
     59          1           0      -23.555240    5.353891   -2.221330
     60          1           0      -25.415418    7.403731    0.563512
     61          1           0      -23.689997    7.115758    1.047903
     62          1           0      -24.782249    7.940470    2.105901
     63          1           0      -26.338514    1.218809    4.556632
     64          1           0      -24.471432   -1.037855    5.027435
     65          1           0      -23.339486    1.775329    4.941399
     66          1           0      -23.943501    0.901287    6.216234
     67          1           0      -24.791485    2.395404    5.761720
     68          1           0      -26.582762   -2.402080    4.543142
     69          1           0      -27.428954   -0.907873    4.142867
     70          1           0      -26.262390   -0.602922    6.726451
     71          1           0      -26.823075   -2.183180    6.723094
     72          1           0      -28.032822   -0.942505    6.505256
     73          1           0      -24.900641   -5.036933    1.758591
     74          1           0      -23.251288   -5.329299    2.254185
     75          1           0      -23.671655   -5.944779    0.698705
     76          1           0      -22.321314   -3.372301   -3.531908
     77          1           0      -18.588389   -5.131354   -3.104948
     78          1           0      -18.089549   -3.590430   -4.004288
     79          1           0      -18.671173   -5.000945   -4.862685
     80         12           0       23.539338    0.570144   -0.450872
     81          6           0       22.352996   -2.689857    0.110543
     82          6           0       20.323357    1.534327   -1.192466
     83          6           0       24.595860    3.696204   -0.212011
     84          6           0       26.762747   -0.499878    0.589575
     85          7           0       21.561822   -0.399450   -0.280521
     86          6           0       21.292906   -1.770499   -0.033510
     87          6           0       19.928373   -2.165154   -0.423794
     88          6           0       19.316238   -0.791962   -0.939971
     89          6           0       20.476259    0.185783   -0.837774
     90          6           0       18.631161   -0.928642   -2.321278
     91          6           0       19.066849   -2.641483    0.705726
     92          6           0       19.238644   -1.927639    2.054827
     93          1           0       18.011353   -1.677721    3.015288
     94          7           0       22.614107    2.413227   -0.704663
     95          6           0       21.342087    2.561719   -1.121289
     96          6           0       21.107204    3.960845   -1.376710
     97          6           0       22.347593    4.614764   -1.174541
     98          6           0       23.282293    3.579723   -0.704352
     99          6           0       19.787463    4.581235   -1.749088
    100          6           0       22.618374    6.101960   -1.400217
    101          8           0       21.736697    6.850003   -1.775106
    102          6           0       23.882549    6.853499   -1.104949
    103          7           0       25.317576    1.488756    0.348545
    104          6           0       25.540653    2.838397    0.284801
    105          6           0       27.045173    3.182735    0.538461
    106          6           0       27.599002    1.833388    1.088163
    107          6           0       26.515667    0.877537    0.638788
    108          6           0       27.843493    3.636375   -0.707576
    109          6           0       27.632027    1.683579    2.682175
    110          6           0       28.881140    1.144670    3.279619
    111          7           0       24.433236   -1.157790    0.102149
    112          6           0       25.728438   -1.442252    0.293854
    113          6           0       25.955926   -2.931674    0.172408
    114          6           0       24.618603   -3.425737    0.046260
    115          6           0       23.726002   -2.322183    0.156278
    116          6           0       27.242543   -3.743261    0.219400
    117          6           0       23.858625   -4.642306    0.036102
    118          8           0       24.221494   -5.806884    0.087361
    119          6           0       22.340849   -4.196275    0.046045
    120          6           0       21.758423   -4.645287    1.370162
    121          8           0       22.012209   -4.230208    2.452425
    122          8           0       20.769887   -5.569292    1.106087
    123          6           0       19.926168   -5.877186    2.265252
    124          1           0       19.349095    1.787941   -1.615044
    125          1           0       25.010298    4.702015   -0.298428
    126          1           0       27.806439   -0.767806    0.766641
    127          1           0       20.014625   -2.955150   -1.169821
    128          1           0       18.617320   -0.296314   -0.266293
    129          1           0       17.685672   -0.424117   -2.121474
    130          1           0       18.533348   -1.995464   -2.522658
    131          1           0       19.146859   -0.380048   -3.109692
    132          1           0       19.041993   -3.725924    0.816061
    133          1           0       17.995444   -2.520098    0.544660
    134          1           0       19.712772   -0.977282    1.807289
    135          1           0       20.004540   -2.536555    2.535487
    136          1           0       19.595236    5.477154   -1.157837
    137          1           0       18.994075    3.838174   -1.669418
    138          1           0       19.915234    4.862171   -2.794757
    139          1           0       24.150653    6.924178   -0.051293
    140          1           0       23.583160    7.870014   -1.360663
    141          1           0       24.685457    6.637685   -1.810644
    142          1           0       27.080496    3.991843    1.267868
    143          1           0       28.561357    1.552921    0.659232
    144          1           0       28.575718    2.865926   -0.948476
    145          1           0       28.170656    4.672607   -0.623789
    146          1           0       27.164222    3.669491   -1.558643
    147          1           0       26.783141    1.100249    3.038107
    148          1           0       27.480739    2.702307    3.039525
    149          1           0       29.315514    1.806399    4.028689
    150          1           0       29.645998    0.899248    2.542467
    151          1           0       28.701904    0.216992    3.822442
    152          1           0       27.132041   -4.445564    1.045650
    153          1           0       28.077454   -3.041455    0.223036
    154          1           0       27.230146   -4.357253   -0.681042
    155          1           0       21.784631   -4.602110   -0.798656
    156          1           0       19.833570   -5.041796    2.959125
    157          1           0       20.444796   -6.710210    2.739903
    158          1           0       19.011268   -6.306338    1.857633
 ---------------------------------------------------------------------

 SCF Done:  E(RwB97XD) =  -4070.61509353     A.U. after   20 cycles

 Excitation energies and oscillator strengths:

 Excited State   1:      Singlet-A      1.6067 eV  771.69 nm  f=0.3712  <S**2>=0.000
     309 -> 315        0.17859
     312 -> 313        0.68544
     309 <- 315        0.11728
 This state for optimization and/or second-order correction.
 Total Energy, E(TD-HF/TD-DFT) =  -4070.55605014
 Copying the excited state density for this state as the 1-particle RhoCI density.

 Excited State   2:      Singlet-A      1.7222 eV  719.91 nm  f=0.3817  <S**2>=0.000
     310 -> 316        0.20374
     311 -> 314        0.67764
     310 <- 316        0.11867

 Excited State   3:      Singlet-A      2.1613 eV  573.65 nm  f=0.1083  <S**2>=0.000
     310 -> 314        0.64085
     311 -> 316       -0.28351

 Excited State   4:      Singlet-A      2.2111 eV  560.74 nm  f=0.0983  <S**2>=0.000
     309 -> 313        0.62754
     312 -> 315       -0.31204

 Excited State   5:      Singlet-A      3.4114 eV  363.44 nm  f=0.0006  <S**2>=0.000
     300 -> 313        0.11536
     306 -> 313       -0.17856
     307 -> 313        0.64815

 The electronic state is 1-A.
 Alpha  occ. eigenvalues --  -46.94933 -46.94735 -19.29997 -19.29837 -19.25328
 Alpha  occ. eigenvalues --  -19.25192 -19.24224 -19.24178 -19.23277 -19.23248
 Alpha  occ. eigenvalues --  -14.46987 -14.46781 -14.46481 -14.46092 -14.44330
 Alpha  occ. eigenvalues --  -14.44178 -14.44107 -14.43491 -10.43076 -10.42368
 Alpha  occ. eigenvalues --  -10.40259 -10.39003 -10.38768 -10.38561 -10.35922
 Alpha  occ. eigenvalues --  -10.35239 -10.35194 -10.34978 -10.34967 -10.34831
 Alpha  occ. eigenvalues --  -10.34801 -10.34754 -10.34651 -10.34597 -10.34504
 Alpha  occ. eigenvalues --  -10.34454 -10.34427 -10.34297 -10.33991 -10.33615
 Alpha  occ. eigenvalues --  -10.33321 -10.33141 -10.33053 -10.32995 -10.32871
 Alpha  occ. eigenvalues --  -10.32860 -10.32557 -10.32548 -10.32452 -10.32286
 Alpha  occ. eigenvalues --  -10.32233 -10.32173 -10.32124 -10.32101 -10.31878
 Alpha  occ. eigenvalues --  -10.31872 -10.31836 -10.31723 -10.31629 -10.31573
 Alpha  occ. eigenvalues --  -10.31518 -10.31141 -10.31138 -10.31135 -10.31065
 Alpha  occ. eigenvalues --  -10.31022 -10.30853 -10.30657 -10.30536 -10.30488
 Alpha  occ. eigenvalues --  -10.30472 -10.30418 -10.30361 -10.30298 -10.30155
 Alpha  occ. eigenvalues --  -10.30019 -10.29951 -10.29511 -10.29432 -10.29366
 Alpha  occ. eigenvalues --  -10.29363 -10.29187 -10.29178 -10.29152 -10.28457
 Alpha  occ. eigenvalues --  -10.28449  -3.21003  -3.20777  -1.94556  -1.94361
 Alpha  occ. eigenvalues --   -1.94133  -1.93991  -1.93909  -1.93750  -1.19402
 Alpha  occ. eigenvalues --   -1.17661  -1.14753  -1.12607  -1.12187  -1.11152
 Alpha  occ. eigenvalues --   -1.09386  -1.08932  -1.07383  -1.06587  -1.06290
 Alpha  occ. eigenvalues --   -1.06030  -1.05460  -1.05324  -1.04646  -1.02931
 Alpha  occ. eigenvalues --   -0.95154  -0.94479  -0.91738  -0.91307  -0.91182
 Alpha  occ. eigenvalues --   -0.90293  -0.90260  -0.89710  -0.89445  -0.89376
 Alpha  occ. eigenvalues --   -0.88881  -0.88783  -0.88280  -0.87751  -0.86642
 Alpha  occ. eigenvalues --   -0.86048  -0.85839  -0.85333  -0.84626  -0.84211
 Alpha  occ. eigenvalues --   -0.83634  -0.83596  -0.82976  -0.82813  -0.82462
 Alpha  occ. eigenvalues --   -0.82229  -0.80522  -0.79880  -0.79436  -0.79284
 Alpha  occ. eigenvalues --   -0.78774  -0.78277  -0.77974  -0.77650  -0.77089
 Alpha  occ. eigenvalues --   -0.76756  -0.74687  -0.74178  -0.73649  -0.73431
 Alpha  occ. eigenvalues --   -0.71552  -0.71299  -0.70806  -0.70720  -0.70567
 Alpha  occ. eigenvalues --   -0.70148  -0.69086  -0.68992  -0.67785  -0.67737
 Alpha  occ. eigenvalues --   -0.67295  -0.67070  -0.66755  -0.66516  -0.66363
 Alpha  occ. eigenvalues --   -0.66064  -0.64092  -0.63525  -0.62033  -0.61972
 Alpha  occ. eigenvalues --   -0.61421  -0.61354  -0.61071  -0.61001  -0.60920
 Alpha  occ. eigenvalues --   -0.60253  -0.60100  -0.59841  -0.59614  -0.59393
 Alpha  occ. eigenvalues --   -0.58532  -0.58012  -0.57976  -0.57579  -0.57357
 Alpha  occ. eigenvalues --   -0.57152  -0.57049  -0.56556  -0.56436  -0.56019
 Alpha  occ. eigenvalues --   -0.55873  -0.55302  -0.55103  -0.54986  -0.54899
 Alpha  occ. eigenvalues --   -0.54800  -0.54671  -0.54295  -0.54204  -0.54014
 Alpha  occ. eigenvalues --   -0.54001  -0.53789  -0.53526  -0.53336  -0.53236
 Alpha  occ. eigenvalues --   -0.53072  -0.53060  -0.52867  -0.52839  -0.52644
 Alpha  occ. eigenvalues --   -0.52347  -0.52095  -0.51546  -0.51332  -0.51308
 Alpha  occ. eigenvalues --   -0.51208  -0.51051  -0.50840  -0.50828  -0.50684
 Alpha  occ. eigenvalues --   -0.50547  -0.50475  -0.50362  -0.50279  -0.50118
 Alpha  occ. eigenvalues --   -0.49744  -0.49690  -0.49459  -0.49125  -0.49039
 Alpha  occ. eigenvalues --   -0.48959  -0.48819  -0.48732  -0.48561  -0.48356
 Alpha  occ. eigenvalues --   -0.48305  -0.48140  -0.47947  -0.47943  -0.47818
 Alpha  occ. eigenvalues --   -0.47525  -0.47419  -0.47162  -0.47063  -0.46756
 Alpha  occ. eigenvalues --   -0.46597  -0.46299  -0.46291  -0.46196  -0.46070
 Alpha  occ. eigenvalues --   -0.46018  -0.45830  -0.45727  -0.45530  -0.45448
 Alpha  occ. eigenvalues --   -0.45155  -0.45145  -0.44873  -0.44691  -0.44660
 Alpha  occ. eigenvalues --   -0.44543  -0.44517  -0.44375  -0.44203  -0.44107
 Alpha  occ. eigenvalues --   -0.44076  -0.43785  -0.43647  -0.43620  -0.43372
 Alpha  occ. eigenvalues --   -0.43078  -0.43052  -0.42667  -0.42514  -0.42290
 Alpha  occ. eigenvalues --   -0.42104  -0.41758  -0.41692  -0.41256  -0.41026
 Alpha  occ. eigenvalues --   -0.40402  -0.40122  -0.39878  -0.39804  -0.39521
 Alpha  occ. eigenvalues --   -0.39308  -0.39070  -0.39039  -0.38544  -0.38468
 Alpha  occ. eigenvalues --   -0.38220  -0.37703  -0.37041  -0.36279  -0.36210
 Alpha  occ. eigenvalues --   -0.35859  -0.35606  -0.35292  -0.33806  -0.33573
 Alpha  occ. eigenvalues --   -0.33334  -0.33114  -0.32461  -0.32430  -0.32259
 Alpha  occ. eigenvalues --   -0.32067  -0.31820  -0.31293  -0.26222  -0.25582
 Alpha  occ. eigenvalues --   -0.23042  -0.22846
 Alpha virt. eigenvalues --   -0.07114  -0.06753   0.00133   0.00235   0.02039
 Alpha virt. eigenvalues --    0.02304   0.04214   0.04498   0.04658   0.05715
 Alpha virt. eigenvalues --    0.07585   0.07664   0.07780   0.08162   0.08301

 Mulliken charges:
               1
     1  Mg   0.972807
     2  C    0.036594
     3  C   -0.076533
     4  C   -0.083436
     5  C   -0.099877
     6  N   -0.274824
     7  C   -0.097086
     8  C   -0.014252
     9  C   -0.137621
    10  C    0.065917
    11  C    0.000632
    12  C    0.023587
    13  C   -0.131687
    14  H    0.035215
    15  N   -0.532111
    16  C    0.160526
    17  C   -0.146772
    18  C   -0.099950
    19  C    0.147789
    20  C    0.050251
    21  C    0.084722
    22  O   -0.192561
    23  C   -0.045299
    24  N   -0.332342
    25  C    0.040134
    26  C   -0.054383
    27  C   -0.067565
    28  C    0.054656
    29  C    0.016551
    30  C   -0.022568
    31  C   -0.039116
    32  N   -0.427644
    33  C    0.163738
    34  C   -0.180249
    35  C    0.016128
    36  C    0.116453
    37  C    0.057370
    38  C    0.086160
    39  O   -0.253863
    40  C   -0.075411
    41  C    0.267841
    42  O   -0.262089
    43  O   -0.366879
    44  C    0.144971
    45  H   -0.003037
    46  H    0.012722
    47  H   -0.006247
    48  H    0.049136
    49  H    0.040268
    50  H    0.048174
    51  H    0.038275
    52  H    0.039837
    53  H    0.016300
    54  H    0.039548
    55  H    0.057654
    56  H    0.064724
    57  H    0.067852
    58  H    0.043830
    59  H    0.042682
    60  H    0.070914
    61  H    0.053273
    62  H    0.049678
    63  H    0.038217
    64  H    0.035331
    65  H    0.043610
    66  H    0.034032
    67  H    0.050543
    68  H    0.028773
    69  H    0.032089
    70  H    0.024468
    71  H    0.026119
    72  H    0.050560
    73  H    0.038282
    74  H    0.050037
    75  H    0.057921
    76  H    0.063341
    77  H    0.068097
    78  H    0.056057
    79  H    0.049014
    80  Mg   0.971271
    81  C   -0.073453
    82  C   -0.088787
    83  C   -0.070276
    84  C   -0.087647
    85  N   -0.366546
    86  C    0.021238
    87  C   -0.041245
    88  C   -0.131863
    89  C    0.060082
    90  C    0.036724
    91  C   -0.026199
    92  C   -0.106306
    93  H    0.042111
    94  N   -0.438584
    95  C    0.155140
    96  C   -0.199167
    97  C   -0.050432
    98  C    0.165459
    99  C    0.110819
   100  C    0.017484
   101  O   -0.237357
   102  C   -0.009488
   103  N   -0.356818
   104  C    0.045950
   105  C   -0.080154
   106  C   -0.111514
   107  C    0.037260
   108  C    0.042930
   109  C    0.014732
   110  C   -0.045862
   111  N   -0.434750
   112  C    0.148038
   113  C   -0.205198
   114  C   -0.044333
   115  C    0.163083
   116  C    0.102117
   117  C    0.124255
   118  O   -0.206562
   119  C   -0.072936
   120  C    0.257924
   121  O   -0.210134
   122  O   -0.374923
   123  C    0.128889
   124  H   -0.001774
   125  H   -0.030305
   126  H    0.001591
   127  H    0.040536
   128  H    0.052540
   129  H    0.037918
   130  H    0.045557
   131  H    0.046119
   132  H    0.018139
   133  H    0.023474
   134  H    0.051751
   135  H    0.057256
   136  H    0.065723
   137  H    0.021452
   138  H    0.056257
   139  H    0.066102
   140  H    0.044665
   141  H    0.054444
   142  H    0.033927
   143  H    0.029531
   144  H    0.040556
   145  H    0.046090
   146  H    0.027735
   147  H    0.057245
   148  H    0.024513
   149  H    0.038658
   150  H    0.024904
   151  H    0.035860
   152  H    0.069388
   153  H    0.037712
   154  H    0.057394
   155  H    0.064967
   156  H    0.073199
   157  H    0.055945
   158  H    0.055958
 Sum of Mulliken charges =  -0.00000

 Dipole moment (field-independent basis, Debye):
    X=              0.0965    Y=              5.3985    Z=             -3.2084  Tot=              6.2807
 Quadrupole moment (field-independent basis, Debye-Ang):
   XX=           -355.8546   YY=           -554.4852   ZZ=           -487.0525
   XY=            -35.0342   XZ=              7.4925   YZ=            -13.4789

 Normal termination of Gaussian 16 at Mon Sep 20 08:31:02 2021.
