 Gaussian 16, Revision A.03,
 Gaussian 16:  ES64L-G16RevA.03 25-Dec-2016

 --------------------------------
 #p wB97XD/Def2SVP td=(nstates=5)
 --------------------------------

 --------------------------------
 TDDFT excited states in gaussian
 --------------------------------
 Symbolic Z-matrix:
 Charge =  0 Multiplicity = 1

                         Standard orientation:
 ---------------------------------------------------------------------
 Center     Atomic      Atomic             Coordinates (Angstroms)
 Number     Number       Type             X           Y           Z
 ---------------------------------------------------------------------
      1         12           0      -29.114187    0.205072    0.386164
      2          6           0      -26.968535   -1.710009   -1.754306
      3          6           0      -29.507996    2.440326   -2.210004
      4          6           0      -30.531204    2.217971    2.534537
      5          6           0      -28.379292   -2.075672    2.889875
      6          7           0      -28.073087    0.492345   -1.715948
      7          6           0      -27.358681   -0.496824   -2.335857
      8          6           0      -27.246031   -0.181648   -3.851566
      9          6           0      -28.015260    1.197053   -4.002495
     10          6           0      -28.578113    1.456180   -2.557499
     11          6           0      -27.189627    2.456278   -4.502372
     12          6           0      -27.829673   -1.265568   -4.796706
     13          6           0      -27.028216   -1.651053   -5.988815
     14          1           0      -25.871881   -0.760839   -6.585135
     15          7           0      -29.933944    2.132736    0.219995
     16          6           0      -30.138490    2.858536   -0.953194
     17          6           0      -30.769881    4.147495   -0.611104
     18          6           0      -31.172822    4.024230    0.773981
     19          6           0      -30.542950    2.767559    1.241438
     20          6           0      -31.008104    5.290274   -1.551063
     21          6           0      -32.023940    4.953950    1.670674
     22          8           0      -32.562817    4.615317    2.745492
     23          6           0      -32.364976    6.287160    1.137458
     24          7           0      -29.337463    0.093735    2.367303
     25          6           0      -29.928140    1.137363    3.045311
     26          6           0      -30.230797    0.749162    4.519127
     27          6           0      -29.853189   -0.798103    4.502506
     28          6           0      -29.154755   -0.960647    3.163589
     29          6           0      -29.511731    1.563978    5.670339
     30          6           0      -30.996160   -1.790546    4.645746
     31          6           0      -30.982911   -2.642883    5.931987
     32          7           0      -28.088324   -1.637960    0.526498
     33          6           0      -27.853804   -2.431310    1.624558
     34          6           0      -26.974263   -3.548925    1.257655
     35          6           0      -26.668826   -3.312069   -0.070871
     36          6           0      -27.359443   -2.147646   -0.474684
     37          6           0      -26.444868   -4.651922    2.113486
     38          6           0      -25.942672   -3.870320   -1.154273
     39          8           0      -25.312076   -4.958273   -1.281666
     40          6           0      -26.088119   -2.900643   -2.249417
     41          6           0      -24.735469   -2.515963   -2.784918
     42          8           0      -23.938349   -1.849031   -2.218849
     43          8           0      -24.590201   -2.979313   -4.026156
     44          6           0      -23.294593   -3.007176   -4.615332
     45          1           0      -29.677119    3.203545   -2.972678
     46          1           0      -31.013926    2.761673    3.350371
     47          1           0      -28.091801   -2.743211    3.703857
     48          1           0      -26.179795   -0.071798   -4.052932
     49          1           0      -28.863390    1.076457   -4.675793
     50          1           0      -26.180224    2.243250   -4.853147
     51          1           0      -27.051507    3.103327   -3.634919
     52          1           0      -27.752790    3.005686   -5.257368
     53          1           0      -28.790829   -0.980242   -5.225932
     54          1           0      -27.993199   -2.218690   -4.294620
     55          1           0      -27.680124   -1.730716   -6.859268
     56          1           0      -26.600677   -2.632478   -5.785469
     57          1           0      -30.568057    6.196966   -1.136462
     58          1           0      -32.089083    5.418803   -1.606498
     59          1           0      -30.735402    5.031593   -2.574727
     60          1           0      -31.432222    6.836191    1.008105
     61          1           0      -32.918244    6.782390    1.935053
     62          1           0      -33.035755    6.227140    0.280828
     63          1           0      -31.312700    0.836882    4.623588
     64          1           0      -29.166131   -0.960790    5.332859
     65          1           0      -28.874696    2.336397    5.240949
     66          1           0      -28.997148    0.925966    6.389863
     67          1           0      -30.294929    2.024509    6.272724
     68          1           0      -31.199832   -2.429011    3.785990
     69          1           0      -31.910338   -1.202495    4.719688
     70          1           0      -31.200902   -3.705140    5.823407
     71          1           0      -31.859544   -2.346400    6.508561
     72          1           0      -30.065570   -2.594732    6.517173
     73          1           0      -27.010596   -4.774196    3.037566
     74          1           0      -25.459334   -4.386872    2.496057
     75          1           0      -26.335273   -5.519975    1.463547
     76          1           0      -26.660180   -3.411660   -3.023380
     77          1           0      -22.760011   -3.826869   -4.133236
     78          1           0      -22.726110   -2.115677   -4.350044
     79          1           0      -23.350721   -3.232963   -5.680544
     80         12           0       28.777452    0.562397   -0.376237
     81          6           0       26.935487   -2.316562    0.503049
     82          6           0       25.851506    2.443611   -0.116318
     83          6           0       30.728850    3.351128   -0.204759
     84          6           0       31.709704   -1.471658   -0.069028
     85          7           0       26.687067    0.092681    0.092993
     86          6           0       26.183007   -1.110859    0.439022
     87          6           0       24.679229   -0.993034    0.850058
     88          6           0       24.336999    0.452865    0.262723
     89          6           0       25.744959    1.083187    0.010860
     90          6           0       23.539716    0.605799   -1.052444
     91          6           0       24.569492   -1.101756    2.417976
     92          6           0       23.300362   -1.848840    2.913811
     93          1           0       22.596517   -1.228033    4.188508
     94          7           0       28.345622    2.682381   -0.389277
     95          6           0       27.075504    3.191377   -0.328205
     96          6           0       27.198378    4.596783   -0.417291
     97          6           0       28.581270    4.944783   -0.376843
     98          6           0       29.319619    3.637588   -0.372724
     99          6           0       26.041019    5.566850   -0.447946
    100          6           0       29.155676    6.310055   -0.208530
    101          8           0       28.450481    7.288291   -0.020119
    102          6           0       30.562811    6.613290   -0.179455
    103          7           0       30.953764    0.855912   -0.051660
    104          6           0       31.486566    2.145160   -0.198608
    105          6           0       32.980894    2.092488   -0.265725
    106          6           0       33.331943    0.562443   -0.157726
    107          6           0       31.955455   -0.075823   -0.086150
    108          6           0       33.445838    2.758595   -1.567028
    109          6           0       34.416312    0.236231    0.937159
    110          6           0       35.651166   -0.477007    0.476267
    111          7           0       29.288083   -1.516653    0.083745
    112          6           0       30.503474   -2.155635    0.105332
    113          6           0       30.316461   -3.615370    0.256769
    114          6           0       28.914734   -3.665547    0.479258
    115          6           0       28.356382   -2.416893    0.279700
    116          6           0       31.357166   -4.718578    0.367431
    117          6           0       27.864950   -4.554241    0.901573
    118          8           0       27.918193   -5.749179    1.231946
    119          6           0       26.544564   -3.784784    0.927722
    120          6           0       25.529666   -4.434868    0.077733
    121          8           0       24.499152   -4.816245    0.501025
    122          8           0       25.810937   -4.371945   -1.256399
    123          6           0       24.644157   -4.800186   -2.058112
    124          1           0       24.943566    3.051071   -0.119897
    125          1           0       31.291896    4.284859   -0.245936
    126          1           0       32.475812   -2.233235    0.094276
    127          1           0       24.132060   -1.800786    0.363696
    128          1           0       24.019180    1.190722    0.999197
    129          1           0       23.669528   -0.276890   -1.679667
    130          1           0       23.754090    1.492414   -1.649237
    131          1           0       22.491374    0.634588   -0.757290
    132          1           0       24.639665   -0.116679    2.880153
    133          1           0       25.459444   -1.656899    2.714616
    134          1           0       23.670231   -2.850383    3.134079
    135          1           0       22.684815   -1.893905    2.015111
    136          1           0       26.244311    6.548867   -0.875240
    137          1           0       25.763045    5.660057    0.601536
    138          1           0       25.088390    5.178749   -0.808523
    139          1           0       30.968928    6.310549   -1.145456
    140          1           0       31.054830    6.122284    0.660639
    141          1           0       30.680558    7.688787   -0.046691
    142          1           0       33.420501    2.523993    0.633206
    143          1           0       33.609852    0.041882   -1.074442
    144          1           0       32.669204    3.353891   -2.047812
    145          1           0       33.750517    2.022422   -2.310884
    146          1           0       34.155366    3.552273   -1.334942
    147          1           0       33.883396   -0.361301    1.676802
    148          1           0       34.879566    1.118499    1.377349
    149          1           0       35.750710   -1.372312    1.089371
    150          1           0       36.550168    0.115286    0.647817
    151          1           0       35.670636   -0.651240   -0.599585
    152          1           0       31.757746   -4.819883    1.376285
    153          1           0       32.160372   -4.627638   -0.364877
    154          1           0       30.735406   -5.600731    0.215224
    155          1           0       26.099182   -3.856119    1.919183
    156          1           0       24.922605   -4.730159   -3.109940
    157          1           0       23.778857   -4.172640   -1.845155
    158          1           0       24.395223   -5.856308   -1.960396
 ---------------------------------------------------------------------

 SCF Done:  E(RwB97XD) =  -4070.57898834     A.U. after   19 cycles

 Excitation energies and oscillator strengths:

 Excited State   1:      Singlet-A      1.6192 eV  765.70 nm  f=0.4045  <S**2>=0.000
     309 -> 315       -0.17887
     311 -> 313        0.68466
     309 <- 315       -0.11646
 This state for optimization and/or second-order correction.
 Total Energy, E(TD-HF/TD-DFT) =  -4070.51948321
 Copying the excited state density for this state as the 1-particle RhoCI density.

 Excited State   2:      Singlet-A      1.6708 eV  742.05 nm  f=0.4222  <S**2>=0.000
     310 -> 316        0.18119
     312 -> 314        0.68456
     310 <- 316        0.11413

 Excited State   3:      Singlet-A      2.1451 eV  577.99 nm  f=0.1104  <S**2>=0.000
     309 -> 313        0.63987
     311 -> 315        0.28457

 Excited State   4:      Singlet-A      2.1576 eV  574.65 nm  f=0.1254  <S**2>=0.000
     310 -> 314        0.64762
     312 -> 316       -0.26958

 Excited State   5:      Singlet-A      3.2206 eV  384.97 nm  f=0.0033  <S**2>=0.000
     304 -> 313       -0.13590
     306 -> 313       -0.11685
     308 -> 313        0.65568
     308 -> 318        0.10332

 The electronic state is 1-A.
 Alpha  occ. eigenvalues --  -46.97168 -46.95245 -19.30348 -19.30240 -19.24854
 Alpha  occ. eigenvalues --  -19.24609 -19.24185 -19.23952 -19.23512 -19.22312
 Alpha  occ. eigenvalues --  -14.47611 -14.47280 -14.46648 -14.46217 -14.44483
 Alpha  occ. eigenvalues --  -14.44330 -14.44099 -14.43897 -10.42908 -10.42571
 Alpha  occ. eigenvalues --  -10.38863 -10.38830 -10.38790 -10.37410 -10.36308
 Alpha  occ. eigenvalues --  -10.36016 -10.35887 -10.35773 -10.35579 -10.35250
 Alpha  occ. eigenvalues --  -10.35098 -10.35073 -10.35007 -10.34932 -10.34673
 Alpha  occ. eigenvalues --  -10.34246 -10.34116 -10.33868 -10.33655 -10.33526
 Alpha  occ. eigenvalues --  -10.33469 -10.33378 -10.33117 -10.33113 -10.33076
 Alpha  occ. eigenvalues --  -10.32990 -10.32802 -10.32762 -10.32583 -10.32545
 Alpha  occ. eigenvalues --  -10.32503 -10.32496 -10.32358 -10.32303 -10.32295
 Alpha  occ. eigenvalues --  -10.32283 -10.32199 -10.32164 -10.31847 -10.31602
 Alpha  occ. eigenvalues --  -10.31576 -10.31559 -10.31558 -10.31246 -10.31074
 Alpha  occ. eigenvalues --  -10.30978 -10.30909 -10.30860 -10.30786 -10.30758
 Alpha  occ. eigenvalues --  -10.30739 -10.30717 -10.30416 -10.30392 -10.30255
 Alpha  occ. eigenvalues --  -10.30146 -10.29753 -10.29731 -10.29568 -10.29537
 Alpha  occ. eigenvalues --  -10.29390 -10.29312 -10.29274 -10.29168 -10.29154
 Alpha  occ. eigenvalues --  -10.29135  -3.22812  -3.21265  -1.96405  -1.95903
 Alpha  occ. eigenvalues --   -1.95764  -1.94836  -1.94400  -1.94234  -1.20829
 Alpha  occ. eigenvalues --   -1.20147  -1.11929  -1.11730  -1.11267  -1.11226
 Alpha  occ. eigenvalues --   -1.10449  -1.10376  -1.07180  -1.06910  -1.05803
 Alpha  occ. eigenvalues --   -1.05755  -1.05447  -1.04566  -1.04507  -1.03768
 Alpha  occ. eigenvalues --   -0.95638  -0.94640  -0.91294  -0.91031  -0.90961
 Alpha  occ. eigenvalues --   -0.90407  -0.90241  -0.90127  -0.89963  -0.89737
 Alpha  occ. eigenvalues --   -0.89000  -0.88766  -0.88206  -0.87759  -0.86789
 Alpha  occ. eigenvalues --   -0.86604  -0.86520  -0.85397  -0.84638  -0.84515
 Alpha  occ. eigenvalues --   -0.84406  -0.83960  -0.83652  -0.82898  -0.82529
 Alpha  occ. eigenvalues --   -0.82474  -0.80618  -0.80245  -0.79665  -0.79561
 Alpha  occ. eigenvalues --   -0.79089  -0.78810  -0.78418  -0.78273  -0.77369
 Alpha  occ. eigenvalues --   -0.77117  -0.75190  -0.75162  -0.74505  -0.73470
 Alpha  occ. eigenvalues --   -0.71382  -0.71367  -0.71207  -0.70933  -0.69934
 Alpha  occ. eigenvalues --   -0.69434  -0.68854  -0.68299  -0.68207  -0.67847
 Alpha  occ. eigenvalues --   -0.67658  -0.67017  -0.66867  -0.66823  -0.66659
 Alpha  occ. eigenvalues --   -0.66465  -0.65320  -0.65031  -0.62310  -0.62098
 Alpha  occ. eigenvalues --   -0.62034  -0.61882  -0.61304  -0.61138  -0.60995
 Alpha  occ. eigenvalues --   -0.60878  -0.60287  -0.60190  -0.59734  -0.59060
 Alpha  occ. eigenvalues --   -0.58460  -0.58430  -0.58085  -0.58033  -0.57547
 Alpha  occ. eigenvalues --   -0.57130  -0.57086  -0.56895  -0.56517  -0.55700
 Alpha  occ. eigenvalues --   -0.55501  -0.55332  -0.55324  -0.55225  -0.55101
 Alpha  occ. eigenvalues --   -0.54918  -0.54779  -0.54668  -0.54577  -0.54352
 Alpha  occ. eigenvalues --   -0.54216  -0.53680  -0.53642  -0.53497  -0.53443
 Alpha  occ. eigenvalues --   -0.53414  -0.53287  -0.53034  -0.52831  -0.52025
 Alpha  occ. eigenvalues --   -0.51975  -0.51945  -0.51793  -0.51789  -0.51546
 Alpha  occ. eigenvalues --   -0.51260  -0.51245  -0.51037  -0.51005  -0.50693
 Alpha  occ. eigenvalues --   -0.50571  -0.50536  -0.50330  -0.50209  -0.50144
 Alpha  occ. eigenvalues --   -0.50110  -0.49614  -0.49466  -0.49334  -0.49263
 Alpha  occ. eigenvalues --   -0.48947  -0.48858  -0.48717  -0.48701  -0.48629
 Alpha  occ. eigenvalues --   -0.48274  -0.48255  -0.48164  -0.48069  -0.47981
 Alpha  occ. eigenvalues --   -0.47750  -0.47687  -0.47182  -0.47102  -0.47043
 Alpha  occ. eigenvalues --   -0.46805  -0.46747  -0.46642  -0.46499  -0.46419
 Alpha  occ. eigenvalues --   -0.46304  -0.45999  -0.45622  -0.45535  -0.45358
 Alpha  occ. eigenvalues --   -0.45309  -0.44932  -0.44898  -0.44821  -0.44585
 Alpha  occ. eigenvalues --   -0.44556  -0.44516  -0.44346  -0.44131  -0.43831
 Alpha  occ. eigenvalues --   -0.43703  -0.43546  -0.43401  -0.43307  -0.43130
 Alpha  occ. eigenvalues --   -0.42908  -0.42888  -0.42651  -0.42177  -0.42068
 Alpha  occ. eigenvalues --   -0.41991  -0.41567  -0.41546  -0.41134  -0.41025
 Alpha  occ. eigenvalues --   -0.40592  -0.40078  -0.39928  -0.39841  -0.39664
 Alpha  occ. eigenvalues --   -0.39246  -0.39092  -0.38942  -0.38567  -0.38339
 Alpha  occ. eigenvalues --   -0.38251  -0.37759  -0.36911  -0.36664  -0.36138
 Alpha  occ. eigenvalues --   -0.36114  -0.35758  -0.35155  -0.33718  -0.33715
 Alpha  occ. eigenvalues --   -0.33564  -0.32983  -0.32861  -0.32612  -0.32600
 Alpha  occ. eigenvalues --   -0.31916  -0.31588  -0.31335  -0.26432  -0.26041
 Alpha  occ. eigenvalues --   -0.23371  -0.23109
 Alpha virt. eigenvalues --   -0.07761  -0.07280  -0.00346   0.00453   0.01853
 Alpha virt. eigenvalues --    0.02326   0.04126   0.04408   0.04544   0.05407
 Alpha virt. eigenvalues --    0.07272   0.07818   0.08000   0.08206   0.08355

 Mulliken charges:
               1
     1  Mg   0.968222
     2  C   -0.020825
     3  C   -0.037241
     4  C   -0.069041
     5  C   -0.100307
     6  N   -0.318630
     7  C   -0.004938
     8  C   -0.025507
     9  C   -0.108452
    10  C    0.038742
    11  C    0.011071
    12  C    0.006996
    13  C   -0.131879
    14  H    0.014339
    15  N   -0.444873
    16  C    0.109585
    17  C   -0.188485
    18  C   -0.082225
    19  C    0.150557
    20  C    0.090975
    21  C    0.056903
    22  O   -0.260102
    23  C   -0.010305
    24  N   -0.428966
    25  C    0.096466
    26  C   -0.123028
    27  C   -0.081953
    28  C    0.106411
    29  C    0.027988
    30  C    0.012427
    31  C   -0.064924
    32  N   -0.411402
    33  C    0.113779
    34  C   -0.170857
    35  C   -0.051493
    36  C    0.143966
    37  C    0.088537
    38  C    0.114929
    39  O   -0.251346
    40  C   -0.028747
    41  C    0.225552
    42  O   -0.205785
    43  O   -0.332380
    44  C    0.138723
    45  H   -0.013862
    46  H    0.020122
    47  H   -0.001512
    48  H    0.046114
    49  H    0.041906
    50  H    0.041064
    51  H    0.040370
    52  H    0.039976
    53  H    0.033342
    54  H    0.031218
    55  H    0.045756
    56  H    0.057644
    57  H    0.058241
    58  H    0.041342
    59  H    0.035347
    60  H    0.054157
    61  H    0.046938
    62  H    0.066253
    63  H    0.046345
    64  H    0.023305
    65  H    0.051626
    66  H    0.034847
    67  H    0.038263
    68  H    0.040935
    69  H    0.022556
    70  H    0.029648
    71  H    0.032287
    72  H    0.037099
    73  H    0.030960
    74  H    0.058241
    75  H    0.072586
    76  H    0.069234
    77  H    0.047672
    78  H    0.056351
    79  H    0.061158
    80  Mg   0.930733
    81  C   -0.012449
    82  C   -0.078702
    83  C   -0.029742
    84  C   -0.055309
    85  N   -0.359366
    86  C   -0.011221
    87  C   -0.090462
    88  C   -0.100381
    89  C    0.079358
    90  C    0.033001
    91  C    0.011812
    92  C   -0.106991
    93  H    0.041722
    94  N   -0.446480
    95  C    0.131656
    96  C   -0.166271
    97  C   -0.071323
    98  C    0.121554
    99  C    0.092339
   100  C   -0.000454
   101  O   -0.245894
   102  C    0.011339
   103  N   -0.354378
   104  C    0.049160
   105  C   -0.068689
   106  C   -0.054137
   107  C    0.053465
   108  C    0.028778
   109  C   -0.008405
   110  C   -0.059112
   111  N   -0.368055
   112  C    0.038710
   113  C   -0.158692
   114  C   -0.038434
   115  C    0.117496
   116  C    0.062063
   117  C    0.094504
   118  O   -0.225708
   119  C   -0.017571
   120  C    0.221642
   121  O   -0.212644
   122  O   -0.366523
   123  C    0.140012
   124  H    0.006054
   125  H   -0.031101
   126  H   -0.001363
   127  H    0.037968
   128  H    0.035494
   129  H    0.032295
   130  H    0.046115
   131  H    0.040166
   132  H    0.042480
   133  H    0.036081
   134  H    0.065970
   135  H    0.053267
   136  H    0.070776
   137  H    0.039809
   138  H    0.017345
   139  H    0.051112
   140  H    0.064322
   141  H    0.052283
   142  H    0.047989
   143  H    0.037675
   144  H    0.035142
   145  H    0.041428
   146  H    0.037077
   147  H    0.041965
   148  H    0.039577
   149  H    0.042345
   150  H    0.030771
   151  H    0.032994
   152  H    0.064842
   153  H    0.051566
   154  H    0.065776
   155  H    0.062067
   156  H    0.046740
   157  H    0.053345
   158  H    0.057673
 Sum of Mulliken charges =  -0.00000

 Dipole moment (field-independent basis, Debye):
    X=              1.7375    Y=              1.8332    Z=             -4.9203  Tot=              5.5307
 Quadrupole moment (field-independent basis, Debye-Ang):
   XX=           -166.2873   YY=           -572.1452   ZZ=           -476.9702
   XY=             19.7335   XZ=            -25.8695   YZ=             -6.3833

 Normal termination of Gaussian 16 at Mon Sep 20 08:46:15 2021.
