 Gaussian 16, Revision A.03,
 Gaussian 16:  ES64L-G16RevA.03 25-Dec-2016

 --------------------------------
 #p wB97XD/Def2SVP td=(nstates=5)
 --------------------------------

 --------------------------------
 TDDFT excited states in gaussian
 --------------------------------
 Symbolic Z-matrix:
 Charge =  0 Multiplicity = 1

                         Standard orientation:
 ---------------------------------------------------------------------
 Center     Atomic      Atomic             Coordinates (Angstroms)
 Number     Number       Type             X           Y           Z
 ---------------------------------------------------------------------
      1         12           0      -24.721731   -0.438562   -0.247397
      2          6           0      -22.490442    2.096670   -0.472492
      3          6           0      -26.668742    1.466279    1.907939
      4          6           0      -26.950129   -2.976847   -0.017578
      5          6           0      -22.554627   -2.502355   -1.987359
      6          7           0      -24.593845    1.536493    0.471183
      7          6           0      -23.585009    2.428048    0.301577
      8          6           0      -23.928264    3.794049    0.836010
      9          6           0      -25.123587    3.503859    1.821151
     10          6           0      -25.511655    2.066011    1.343915
     11          6           0      -24.928833    3.663751    3.386803
     12          6           0      -24.403111    4.780877   -0.323493
     13          6           0      -24.191680    6.279067    0.044692
     14          1           0      -24.189855    6.764456    1.503986
     15          7           0      -26.547295   -0.790225    0.862570
     16          6           0      -27.169131    0.177306    1.694675
     17          6           0      -28.384868   -0.361759    2.225417
     18          6           0      -28.492138   -1.692793    1.685237
     19          6           0      -27.290275   -1.837606    0.788320
     20          6           0      -29.346582    0.391380    3.076074
     21          6           0      -29.575940   -2.741605    1.908283
     22          8           0      -29.544967   -3.935960    1.489549
     23          6           0      -30.810911   -2.376418    2.714314
     24          7           0      -24.729910   -2.460611   -0.839298
     25          6           0      -25.858580   -3.280835   -0.800460
     26          6           0      -25.766999   -4.552610   -1.692353
     27          6           0      -24.297877   -4.291648   -2.349131
     28          6           0      -23.824178   -3.022959   -1.740249
     29          6           0      -25.852148   -5.797410   -0.799791
     30          6           0      -24.279422   -4.306194   -3.849255
     31          6           0      -23.308291   -5.295645   -4.427050
     32          7           0      -22.906744   -0.385919   -0.977765
     33          6           0      -22.110128   -1.265905   -1.699774
     34          6           0      -20.877591   -0.651367   -2.028623
     35          6           0      -20.920284    0.681552   -1.538568
     36          6           0      -22.212732    0.844734   -0.996824
     37          6           0      -19.729784   -1.205136   -2.782146
     38          6           0      -20.149234    1.886659   -1.324950
     39          8           0      -19.003446    2.225911   -1.547521
     40          6           0      -21.227954    2.873682   -0.670215
     41          6           0      -20.647142    3.707742    0.414311
     42          8           0      -19.901762    3.338169    1.285309
     43          8           0      -21.000845    5.000123    0.337794
     44          6           0      -20.443677    5.856777    1.423023
     45          1           0      -27.107754    2.073948    2.702113
     46          1           0      -27.607427   -3.827727    0.172813
     47          1           0      -21.864491   -3.047299   -2.634703
     48          1           0      -23.146140    4.198515    1.478278
     49          1           0      -25.966641    4.128023    1.526618
     50          1           0      -23.934089    4.079728    3.547068
     51          1           0      -25.044718    2.774434    4.004278
     52          1           0      -25.718278    4.333273    3.728822
     53          1           0      -25.448616    4.517993   -0.485415
     54          1           0      -23.818827    4.538106   -1.211144
     55          1           0      -24.997646    6.765641   -0.504945
     56          1           0      -23.287109    6.592832   -0.475601
     57          1           0      -30.041219    1.042339    2.545101
     58          1           0      -28.730101    0.948269    3.780598
     59          1           0      -29.878573   -0.241586    3.785693
     60          1           0      -30.530340   -2.500074    3.760192
     61          1           0      -31.550661   -3.130618    2.447015
     62          1           0      -31.157577   -1.354678    2.558487
     63          1           0      -26.647964   -4.532246   -2.334014
     64          1           0      -23.631884   -5.094359   -2.030778
     65          1           0      -25.814483   -5.616792    0.274684
     66          1           0      -25.128627   -6.532663   -1.151159
     67          1           0      -26.853253   -6.201550   -0.952748
     68          1           0      -23.965027   -3.357717   -4.284941
     69          1           0      -25.246109   -4.499015   -4.314656
     70          1           0      -23.745985   -5.921207   -5.204468
     71          1           0      -22.924632   -5.969168   -3.661173
     72          1           0      -22.458357   -4.684632   -4.732403
     73          1           0      -19.568190   -2.279385   -2.688004
     74          1           0      -18.868729   -0.851544   -2.214266
     75          1           0      -19.789235   -0.902327   -3.827607
     76          1           0      -21.354092    3.516148   -1.542150
     77          1           0      -19.394675    6.103506    1.253198
     78          1           0      -20.664492    5.456412    2.412634
     79          1           0      -20.972745    6.809937    1.406410
     80         12           0       23.960251   -0.842156    0.349016
     81          6           0       24.123026    2.177945   -1.571223
     82          6           0       24.116014    1.229541    3.199872
     83          6           0       24.537110   -3.462531    2.221189
     84          6           0       24.179752   -2.632861   -2.533285
     85          7           0       24.050303    1.438843    0.726317
     86          6           0       23.994224    2.390343   -0.236387
     87          6           0       23.839975    3.747110    0.430867
     88          6           0       23.801197    3.524234    1.969043
     89          6           0       23.963884    1.992161    1.990566
     90          6           0       24.944623    4.358206    2.780897
     91          6           0       22.528607    4.514772   -0.032634
     92          6           0       22.700066    5.979300   -0.437241
     93          1           0       23.777092    6.898642    0.266796
     94          7           0       24.337835   -1.077971    2.439840
     95          6           0       24.325200   -0.149528    3.372684
     96          6           0       24.603040   -0.795725    4.624356
     97          6           0       24.594482   -2.203377    4.453878
     98          6           0       24.527036   -2.294749    3.018874
     99          6           0       24.565938   -0.056779    5.961047
    100          6           0       24.558189   -3.389357    5.404941
    101          8           0       24.625522   -4.544483    5.026567
    102          6           0       24.369702   -3.063497    6.861042
    103          7           0       24.658072   -2.707848   -0.129654
    104          6           0       24.619875   -3.702476    0.849301
    105          6           0       24.615756   -5.138608    0.258530
    106          6           0       24.335569   -4.787223   -1.251231
    107          6           0       24.387946   -3.261434   -1.328367
    108          6           0       25.944056   -5.852925    0.547198
    109          6           0       22.884426   -5.240110   -1.755565
    110          6           0       22.781685   -6.427920   -2.652536
    111          7           0       24.002922   -0.380029   -1.615150
    112          6           0       24.127190   -1.235796   -2.688259
    113          6           0       24.277919   -0.532303   -3.959333
    114          6           0       24.277381    0.854787   -3.570538
    115          6           0       24.235858    0.881288   -2.156518
    116          6           0       24.203965   -1.187255   -5.291064
    117          6           0       24.254837    2.226624   -4.054371
    118          8           0       24.256441    2.604725   -5.240061
    119          6           0       24.182074    3.187195   -2.735503
    120          6           0       25.404388    3.973986   -2.780844
    121          8           0       26.514739    3.490999   -2.823142
    122          8           0       25.144269    5.286529   -2.757653
    123          6           0       26.225222    6.317147   -2.853142
    124          1           0       24.088461    1.822487    4.116353
    125          1           0       24.308422   -4.390537    2.750594
    126          1           0       24.163651   -3.250082   -3.433671
    127          1           0       24.732502    4.324111    0.188807
    128          1           0       22.884110    3.910385    2.414271
    129          1           0       25.281542    5.218513    2.202492
    130          1           0       25.741462    3.635345    2.957795
    131          1           0       24.548285    4.682475    3.742978
    132          1           0       21.691986    4.462203    0.662729
    133          1           0       22.136819    4.040645   -0.932446
    134          1           0       21.759688    6.526910   -0.371221
    135          1           0       22.900148    5.908199   -1.506364
    136          1           0       23.619963   -0.147241    6.495206
    137          1           0       24.898098    0.976749    5.858576
    138          1           0       25.346600   -0.507088    6.573728
    139          1           0       23.648046   -2.273471    7.070998
    140          1           0       25.277902   -2.768744    7.384917
    141          1           0       23.850800   -3.892447    7.342449
    142          1           0       23.799575   -5.681202    0.734762
    143          1           0       25.098063   -5.279765   -1.854787
    144          1           0       26.590215   -5.336216    1.256705
    145          1           0       26.547306   -5.959389   -0.353703
    146          1           0       25.737057   -6.854899    0.924523
    147          1           0       22.333276   -4.478331   -2.306922
    148          1           0       22.191064   -5.414476   -0.933622
    149          1           0       22.223928   -7.223852   -2.160734
    150          1           0       23.824011   -6.708640   -2.804847
    151          1           0       22.265607   -6.165525   -3.576019
    152          1           0       23.727613   -0.539456   -6.026179
    153          1           0       23.732774   -2.156262   -5.127460
    154          1           0       25.232923   -1.363370   -5.607606
    155          1           0       23.324732    3.858009   -2.771031
    156          1           0       26.869466    6.087094   -3.701947
    157          1           0       26.850706    6.353047   -1.960848
    158          1           0       25.853811    7.341380   -2.871581
 ---------------------------------------------------------------------

 SCF Done:  E(RwB97XD) =  -4070.60549517     A.U. after   20 cycles

 Excitation energies and oscillator strengths:

 Excited State   1:      Singlet-A      1.5874 eV  781.06 nm  f=0.3883  <S**2>=0.000
     309 -> 315       -0.17574
     311 -> 313        0.68654
     309 <- 315       -0.11663
 This state for optimization and/or second-order correction.
 Total Energy, E(TD-HF/TD-DFT) =  -4070.54716002
 Copying the excited state density for this state as the 1-particle RhoCI density.

 Excited State   2:      Singlet-A      1.6236 eV  763.66 nm  f=0.4045  <S**2>=0.000
     310 -> 316       -0.17887
     312 -> 314        0.68452
     310 <- 316       -0.11640

 Excited State   3:      Singlet-A      2.1424 eV  578.72 nm  f=0.1277  <S**2>=0.000
     310 -> 314        0.64801
     312 -> 316        0.26642

 Excited State   4:      Singlet-A      2.1692 eV  571.58 nm  f=0.1102  <S**2>=0.000
     309 -> 313        0.63606
     311 -> 315        0.29406

 Excited State   5:      Singlet-A      3.3097 eV  374.61 nm  f=0.0147  <S**2>=0.000
     306 -> 313        0.10107
     307 -> 313        0.67096
     311 -> 315       -0.11051

 The electronic state is 1-A.
 Alpha  occ. eigenvalues --  -46.94951 -46.93524 -19.30446 -19.30390 -19.24534
 Alpha  occ. eigenvalues --  -19.24300 -19.24092 -19.23713 -19.23569 -19.23432
 Alpha  occ. eigenvalues --  -14.47480 -14.46472 -14.46319 -14.46288 -14.44128
 Alpha  occ. eigenvalues --  -14.43982 -14.43638 -14.43420 -10.42437 -10.42292
 Alpha  occ. eigenvalues --  -10.39733 -10.39517 -10.39237 -10.39192 -10.36264
 Alpha  occ. eigenvalues --  -10.35834 -10.35399 -10.35356 -10.34968 -10.34773
 Alpha  occ. eigenvalues --  -10.34735 -10.34536 -10.34486 -10.34253 -10.34139
 Alpha  occ. eigenvalues --  -10.33915 -10.33657 -10.33592 -10.33349 -10.33191
 Alpha  occ. eigenvalues --  -10.33003 -10.32980 -10.32910 -10.32853 -10.32724
 Alpha  occ. eigenvalues --  -10.32612 -10.32324 -10.32315 -10.32245 -10.32206
 Alpha  occ. eigenvalues --  -10.32145 -10.32118 -10.31975 -10.31932 -10.31926
 Alpha  occ. eigenvalues --  -10.31837 -10.31828 -10.31820 -10.31777 -10.31660
 Alpha  occ. eigenvalues --  -10.31617 -10.31608 -10.31559 -10.31159 -10.31134
 Alpha  occ. eigenvalues --  -10.30949 -10.30698 -10.30639 -10.30590 -10.30290
 Alpha  occ. eigenvalues --  -10.30238 -10.29988 -10.29931 -10.29908 -10.29729
 Alpha  occ. eigenvalues --  -10.29723 -10.29647 -10.29629 -10.29603 -10.29515
 Alpha  occ. eigenvalues --  -10.29460 -10.29344 -10.29298 -10.29290 -10.28933
 Alpha  occ. eigenvalues --  -10.28792  -3.21016  -3.19774  -1.94570  -1.94147
 Alpha  occ. eigenvalues --   -1.93994  -1.93364  -1.92888  -1.92795  -1.19496
 Alpha  occ. eigenvalues --   -1.18708  -1.13040  -1.12405  -1.10678  -1.09641
 Alpha  occ. eigenvalues --   -1.09540  -1.09471  -1.06665  -1.06538  -1.05620
 Alpha  occ. eigenvalues --   -1.05503  -1.05126  -1.04745  -1.03911  -1.03441
 Alpha  occ. eigenvalues --   -0.95376  -0.94123  -0.91600  -0.90745  -0.90490
 Alpha  occ. eigenvalues --   -0.90464  -0.90137  -0.89950  -0.89613  -0.89188
 Alpha  occ. eigenvalues --   -0.89039  -0.88935  -0.88378  -0.88346  -0.86254
 Alpha  occ. eigenvalues --   -0.86133  -0.85994  -0.85740  -0.84543  -0.84397
 Alpha  occ. eigenvalues --   -0.83730  -0.83607  -0.83210  -0.83021  -0.82642
 Alpha  occ. eigenvalues --   -0.82483  -0.80326  -0.80208  -0.79726  -0.79587
 Alpha  occ. eigenvalues --   -0.79290  -0.78783  -0.78481  -0.78165  -0.77174
 Alpha  occ. eigenvalues --   -0.76771  -0.74895  -0.74465  -0.73834  -0.73381
 Alpha  occ. eigenvalues --   -0.71093  -0.70730  -0.70608  -0.70161  -0.69735
 Alpha  occ. eigenvalues --   -0.69592  -0.68907  -0.68698  -0.67805  -0.67457
 Alpha  occ. eigenvalues --   -0.67321  -0.67081  -0.66793  -0.66611  -0.66474
 Alpha  occ. eigenvalues --   -0.66101  -0.64394  -0.64347  -0.62476  -0.62350
 Alpha  occ. eigenvalues --   -0.61906  -0.61159  -0.60955  -0.60805  -0.60449
 Alpha  occ. eigenvalues --   -0.60383  -0.60015  -0.59984  -0.59738  -0.59446
 Alpha  occ. eigenvalues --   -0.58096  -0.58072  -0.57650  -0.57376  -0.57175
 Alpha  occ. eigenvalues --   -0.57130  -0.57004  -0.56271  -0.55876  -0.55428
 Alpha  occ. eigenvalues --   -0.55300  -0.55238  -0.54975  -0.54923  -0.54834
 Alpha  occ. eigenvalues --   -0.54827  -0.54527  -0.54474  -0.54381  -0.54235
 Alpha  occ. eigenvalues --   -0.54124  -0.53985  -0.53923  -0.53264  -0.53192
 Alpha  occ. eigenvalues --   -0.53102  -0.53094  -0.52522  -0.52450  -0.52255
 Alpha  occ. eigenvalues --   -0.52033  -0.51981  -0.51944  -0.51911  -0.51617
 Alpha  occ. eigenvalues --   -0.51154  -0.50988  -0.50963  -0.50815  -0.50686
 Alpha  occ. eigenvalues --   -0.50471  -0.50327  -0.50309  -0.50153  -0.50013
 Alpha  occ. eigenvalues --   -0.49920  -0.49770  -0.49655  -0.49339  -0.49273
 Alpha  occ. eigenvalues --   -0.49146  -0.48651  -0.48640  -0.48560  -0.48513
 Alpha  occ. eigenvalues --   -0.48317  -0.48145  -0.48031  -0.47859  -0.47807
 Alpha  occ. eigenvalues --   -0.47208  -0.47164  -0.47019  -0.46868  -0.46728
 Alpha  occ. eigenvalues --   -0.46494  -0.46441  -0.46173  -0.46014  -0.45845
 Alpha  occ. eigenvalues --   -0.45736  -0.45522  -0.45482  -0.45247  -0.45225
 Alpha  occ. eigenvalues --   -0.45140  -0.44955  -0.44672  -0.44583  -0.44425
 Alpha  occ. eigenvalues --   -0.44384  -0.44271  -0.44000  -0.43856  -0.43751
 Alpha  occ. eigenvalues --   -0.43464  -0.43349  -0.43322  -0.43179  -0.42971
 Alpha  occ. eigenvalues --   -0.42892  -0.42853  -0.42519  -0.42415  -0.42343
 Alpha  occ. eigenvalues --   -0.42296  -0.42167  -0.41941  -0.41594  -0.41243
 Alpha  occ. eigenvalues --   -0.40265  -0.40224  -0.39902  -0.39835  -0.39651
 Alpha  occ. eigenvalues --   -0.39188  -0.39037  -0.39004  -0.38662  -0.38517
 Alpha  occ. eigenvalues --   -0.38209  -0.38102  -0.36639  -0.36431  -0.36225
 Alpha  occ. eigenvalues --   -0.35685  -0.35450  -0.35216  -0.33701  -0.33676
 Alpha  occ. eigenvalues --   -0.33383  -0.32834  -0.32766  -0.32660  -0.32249
 Alpha  occ. eigenvalues --   -0.32153  -0.31773  -0.31564  -0.26250  -0.25733
 Alpha  occ. eigenvalues --   -0.22854  -0.22747
 Alpha virt. eigenvalues --   -0.07342  -0.07062   0.00278   0.00819   0.02150
 Alpha virt. eigenvalues --    0.02231   0.04173   0.04319   0.04954   0.06107
 Alpha virt. eigenvalues --    0.07386   0.07419   0.07831   0.07884   0.08010

 Mulliken charges:
               1
     1  Mg   0.985472
     2  C    0.012805
     3  C   -0.095410
     4  C   -0.062318
     5  C   -0.128190
     6  N   -0.378503
     7  C   -0.008444
     8  C   -0.043321
     9  C   -0.122012
    10  C    0.058003
    11  C    0.021184
    12  C    0.005257
    13  C   -0.092430
    14  H    0.043445
    15  N   -0.389419
    16  C    0.163969
    17  C   -0.155434
    18  C   -0.073758
    19  C    0.099851
    20  C    0.064869
    21  C    0.052938
    22  O   -0.274734
    23  C   -0.022217
    24  N   -0.392160
    25  C    0.057799
    26  C   -0.092109
    27  C   -0.027205
    28  C    0.109226
    29  C    0.008959
    30  C   -0.008502
    31  C   -0.062958
    32  N   -0.527550
    33  C    0.189870
    34  C   -0.191450
    35  C   -0.054991
    36  C    0.141661
    37  C    0.072764
    38  C    0.153111
    39  O   -0.183143
    40  C   -0.107222
    41  C    0.224505
    42  O   -0.229911
    43  O   -0.358804
    44  C    0.140850
    45  H   -0.003540
    46  H    0.017290
    47  H   -0.016897
    48  H    0.024525
    49  H    0.035442
    50  H    0.042314
    51  H    0.048429
    52  H    0.037253
    53  H    0.035739
    54  H    0.041486
    55  H    0.044254
    56  H    0.060622
    57  H    0.073853
    58  H    0.034842
    59  H    0.031919
    60  H    0.066672
    61  H    0.059222
    62  H    0.050470
    63  H    0.056059
    64  H    0.035263
    65  H    0.060722
    66  H    0.037238
    67  H    0.041394
    68  H    0.033227
    69  H    0.028308
    70  H    0.043829
    71  H    0.022311
    72  H    0.037618
    73  H    0.026944
    74  H    0.061459
    75  H    0.068397
    76  H    0.069234
    77  H    0.070798
    78  H    0.058554
    79  H    0.040405
    80  Mg   0.966278
    81  C   -0.049206
    82  C   -0.089605
    83  C   -0.059880
    84  C   -0.106253
    85  N   -0.317392
    86  C    0.011301
    87  C   -0.040498
    88  C   -0.105290
    89  C    0.050156
    90  C   -0.005196
    91  C   -0.008616
    92  C   -0.109741
    93  H    0.017103
    94  N   -0.387903
    95  C    0.163849
    96  C   -0.188134
    97  C   -0.059207
    98  C    0.115348
    99  C    0.051668
   100  C    0.080662
   101  O   -0.219427
   102  C   -0.036715
   103  N   -0.403422
   104  C    0.019192
   105  C   -0.074849
   106  C   -0.054001
   107  C    0.103409
   108  C    0.032750
   109  C   -0.056534
   110  C   -0.031326
   111  N   -0.481611
   112  C    0.161790
   113  C   -0.187114
   114  C   -0.019288
   115  C    0.159874
   116  C    0.089854
   117  C    0.119878
   118  O   -0.226486
   119  C   -0.061718
   120  C    0.258011
   121  O   -0.245689
   122  O   -0.357578
   123  C    0.146449
   124  H   -0.009379
   125  H    0.024565
   126  H    0.000999
   127  H    0.044145
   128  H    0.046818
   129  H    0.047907
   130  H    0.045171
   131  H    0.037814
   132  H    0.030216
   133  H    0.028310
   134  H    0.044384
   135  H    0.052401
   136  H    0.066499
   137  H    0.038114
   138  H    0.031189
   139  H    0.036019
   140  H    0.074619
   141  H    0.049260
   142  H    0.043701
   143  H    0.035648
   144  H    0.053029
   145  H    0.026323
   146  H    0.041768
   147  H    0.029374
   148  H    0.020506
   149  H    0.036586
   150  H    0.025267
   151  H    0.038926
   152  H    0.066634
   153  H    0.037298
   154  H    0.055593
   155  H    0.057922
   156  H    0.070408
   157  H    0.046825
   158  H    0.060248
 Sum of Mulliken charges =  -0.00000

 Dipole moment (field-independent basis, Debye):
    X=             -7.2554    Y=              3.4381    Z=              3.4806  Tot=              8.7508
 Quadrupole moment (field-independent basis, Debye-Ang):
   XX=           -476.7333   YY=           -466.6251   ZZ=           -497.9855
   XY=            -59.9934   XZ=             97.2477   YZ=             48.4091

 Normal termination of Gaussian 16 at Sun Sep 19 22:54:12 2021.
