 Gaussian 16, Revision A.03,
 Gaussian 16:  ES64L-G16RevA.03 25-Dec-2016

 --------------------------------
 #p wB97XD/Def2SVP td=(nstates=5)
 --------------------------------

 --------------------------------
 TDDFT excited states in gaussian
 --------------------------------
 Symbolic Z-matrix:
 Charge =  0 Multiplicity = 1

                         Standard orientation:
 ---------------------------------------------------------------------
 Center     Atomic      Atomic             Coordinates (Angstroms)
 Number     Number       Type             X           Y           Z
 ---------------------------------------------------------------------
      1         12           0       29.702911    0.593797    0.097763
      2          6           0       26.776480   -1.364890   -1.090961
      3          6           0       31.171899   -2.431033    0.438937
      4          6           0       32.025633    2.339702    1.364414
      5          6           0       27.460019    3.348571    0.331366
      6          7           0       29.005034   -1.606835   -0.240867
      7          6           0       27.884179   -2.105945   -0.882541
      8          6           0       27.971057   -3.589741   -1.257806
      9          6           0       29.177110   -3.990368   -0.353216
     10          6           0       29.856498   -2.610715   -0.001078
     11          6           0       28.821489   -4.759835    0.879812
     12          6           0       28.111684   -3.936553   -2.777955
     13          6           0       27.532238   -5.223935   -3.261287
     14          1           0       28.337776   -5.936415   -4.343088
     15          7           0       31.446934    0.040947    0.788000
     16          6           0       31.941806   -1.279892    0.805443
     17          6           0       33.323246   -1.222078    1.187736
     18          6           0       33.594632    0.210460    1.301091
     19          6           0       32.354859    0.881600    1.144999
     20          6           0       34.297492   -2.456143    1.249184
     21          6           0       34.941665    0.817800    1.547990
     22          8           0       35.097705    2.054212    1.697457
     23          6           0       36.197180    0.025393    1.584984
     24          7           0       29.750503    2.497535    0.912343
     25          6           0       30.877595    3.038262    1.379491
     26          6           0       30.728053    4.527753    1.826838
     27          6           0       29.405081    4.877738    1.048879
     28          6           0       28.787199    3.479939    0.771552
     29          6           0       30.542096    4.665231    3.372258
     30          6           0       29.690840    5.627293   -0.319777
     31          6           0       30.559945    6.902460   -0.318815
     32          7           0       27.579511    0.967608   -0.328685
     33          6           0       26.871662    2.160414   -0.234378
     34          6           0       25.496594    1.939728   -0.616743
     35          6           0       25.427220    0.592275   -0.992989
     36          6           0       26.693110    0.002932   -0.724335
     37          6           0       24.424619    2.969926   -0.738790
     38          6           0       24.531518   -0.432278   -1.513479
     39          8           0       23.369333   -0.429829   -1.897243
     40          6           0       25.484600   -1.728671   -1.663141
     41          6           0       24.776947   -2.811744   -1.002161
     42          8           0       24.476165   -2.881291    0.199909
     43          8           0       24.115315   -3.521847   -1.962636
     44          6           0       23.281626   -4.614554   -1.576093
     45          1           0       31.631383   -3.420313    0.384093
     46          1           0       32.798287    2.978495    1.796884
     47          1           0       26.824905    4.233826    0.409946
     48          1           0       27.069505   -4.069085   -0.875723
     49          1           0       29.940234   -4.502778   -0.938283
     50          1           0       28.935017   -4.078121    1.722735
     51          1           0       29.541237   -5.564263    1.030653
     52          1           0       27.819054   -5.184112    0.932989
     53          1           0       29.178941   -4.006110   -2.986312
     54          1           0       27.729206   -3.085041   -3.340111
     55          1           0       26.567464   -4.928325   -3.673018
     56          1           0       27.200334   -5.866707   -2.445827
     57          1           0       35.025721   -2.520793    0.441268
     58          1           0       33.747565   -3.392107    1.343713
     59          1           0       34.794694   -2.284310    2.204646
     60          1           0       36.235168   -0.509250    2.534441
     61          1           0       37.005332    0.754759    1.523679
     62          1           0       36.194649   -0.598430    0.691767
     63          1           0       31.633411    5.031541    1.486601
     64          1           0       28.668905    5.456788    1.605591
     65          1           0       31.440189    5.157145    3.746653
     66          1           0       30.330329    3.742041    3.910703
     67          1           0       29.696539    5.352325    3.427508
     68          1           0       28.740063    5.965851   -0.730793
     69          1           0       30.060463    4.866345   -1.006889
     70          1           0       31.390349    6.668971   -0.984989
     71          1           0       30.922647    6.974251    0.706961
     72          1           0       30.023016    7.776651   -0.686744
     73          1           0       24.959218    3.919192   -0.697241
     74          1           0       23.786986    2.844208    0.136219
     75          1           0       23.793744    2.854020   -1.620057
     76          1           0       25.634922   -1.949984   -2.719641
     77          1           0       23.302032   -4.777651   -0.498332
     78          1           0       23.724290   -5.488779   -2.053625
     79          1           0       22.282992   -4.519819   -2.000155
     80         12           0      -29.664288   -0.126197    0.124374
     81          6           0      -26.297889   -0.460296   -0.864984
     82          6           0      -28.820678   -1.664086    2.982321
     83          6           0      -32.664516    0.689553    1.131247
     84          6           0      -30.033307    2.070706   -2.669889
     85          7           0      -27.748176   -0.919787    0.959829
     86          6           0      -26.523926   -1.038228    0.393327
     87          6           0      -25.519356   -1.767696    1.262070
     88          6           0      -26.487699   -2.363103    2.361493
     89          6           0      -27.786820   -1.617593    2.136265
     90          6           0      -26.689265   -3.933176    2.293785
     91          6           0      -24.273939   -1.021208    1.912132
     92          6           0      -24.205369    0.527190    1.988754
     93          1           0      -23.481406    1.173004    3.228742
     94          7           0      -30.635130   -0.594545    1.828353
     95          6           0      -30.115032   -1.126861    2.926149
     96          6           0      -31.144156   -1.116355    4.001304
     97          6           0      -32.367012   -0.549110    3.365687
     98          6           0      -31.899752   -0.109734    2.050565
     99          6           0      -30.965378   -1.768671    5.345706
    100          6           0      -33.703858   -0.367079    4.035573
    101          8           0      -33.849559   -0.782234    5.182625
    102          6           0      -34.942450    0.377548    3.413840
    103          7           0      -31.169716    1.330601   -0.621642
    104          6           0      -32.322863    1.264128   -0.051594
    105          6           0      -33.330101    2.152630   -0.909015
    106          6           0      -32.374136    2.747893   -1.944856
    107          6           0      -31.064312    2.012866   -1.735041
    108          6           0      -34.574393    1.491379   -1.524851
    109          6           0      -32.030828    4.306076   -1.690073
    110          6           0      -32.548699    5.303768   -2.742249
    111          7           0      -28.473486    0.724153   -1.416140
    112          6           0      -28.767999    1.476052   -2.522682
    113          6           0      -27.630515    1.468811   -3.478785
    114          6           0      -26.557259    0.812482   -2.812413
    115          6           0      -27.202301    0.295469   -1.606782
    116          6           0      -27.536741    2.224070   -4.823370
    117          6           0      -25.189174    0.415144   -2.838735
    118          8           0      -24.223320    0.677197   -3.575873
    119          6           0      -24.971260   -0.500166   -1.607091
    120          6           0      -24.507581   -1.858377   -2.141487
    121          8           0      -23.440030   -2.411483   -2.147462
    122          8           0      -25.647633   -2.578836   -2.513960
    123          6           0      -25.458474   -3.993247   -2.962862
    124          1           0      -28.515679   -2.160128    3.906308
    125          1           0      -33.672793    0.901519    1.495189
    126          1           0      -30.246199    2.525171   -3.639360
    127          1           0      -25.175892   -2.597223    0.644258
    128          1           0      -26.075348   -2.160676    3.350080
    129          1           0      -26.157033   -4.357725    1.443219
    130          1           0      -27.743027   -4.002756    2.026117
    131          1           0      -26.419220   -4.379357    3.251092
    132          1           0      -23.387898   -1.377430    1.386484
    133          1           0      -24.136471   -1.389348    2.929396
    134          1           0      -25.241476    0.865730    1.983787
    135          1           0      -23.587952    0.979459    1.213250
    136          1           0      -31.900586   -1.894463    5.890889
    137          1           0      -30.183184   -1.205721    5.856360
    138          1           0      -30.479983   -2.715707    5.107586
    139          1           0      -35.323698    0.110580    2.427482
    140          1           0      -34.671915    1.425125    3.281532
    141          1           0      -35.824411    0.306331    4.049722
    142          1           0      -33.792288    2.929147   -0.300437
    143          1           0      -32.658495    2.726921   -2.997479
    144          1           0      -34.640751    0.433831   -1.268834
    145          1           0      -34.617089    1.639348   -2.604438
    146          1           0      -35.513192    1.896144   -1.146790
    147          1           0      -30.956520    4.481701   -1.654770
    148          1           0      -32.450370    4.538369   -0.710995
    149          1           0      -31.919185    6.177822   -2.910946
    150          1           0      -33.486658    5.682509   -2.336277
    151          1           0      -32.623012    4.696997   -3.644776
    152          1           0      -28.306407    2.978290   -4.983980
    153          1           0      -27.650730    1.440658   -5.572217
    154          1           0      -26.522613    2.609629   -4.925253
    155          1           0      -24.194556   -0.073052   -0.973598
    156          1           0      -24.525998   -4.262678   -3.458357
    157          1           0      -26.230943   -4.115778   -3.721824
    158          1           0      -25.654181   -4.795607   -2.251222
 ---------------------------------------------------------------------

 SCF Done:  E(RwB97XD) =  -4070.58912427     A.U. after   19 cycles

 Excitation energies and oscillator strengths:

 Excited State   1:      Singlet-A      1.6009 eV  774.48 nm  f=0.3892  <S**2>=0.000
     310 -> 316       -0.16172
     311 -> 313        0.68932
     310 <- 316       -0.11300
 This state for optimization and/or second-order correction.
 Total Energy, E(TD-HF/TD-DFT) =  -4070.53029333
 Copying the excited state density for this state as the 1-particle RhoCI density.

 Excited State   2:      Singlet-A      1.7163 eV  722.39 nm  f=0.4065  <S**2>=0.000
     309 -> 315        0.19065
     312 -> 314        0.68129
     309 <- 315        0.11531

 Excited State   3:      Singlet-A      2.1247 eV  583.54 nm  f=0.2113  <S**2>=0.000
     310 -> 313        0.66538
     311 -> 316        0.22068

 Excited State   4:      Singlet-A      2.2310 eV  555.73 nm  f=0.0955  <S**2>=0.000
     309 -> 314        0.63455
     312 -> 315       -0.29971

 Excited State   5:      Singlet-A      3.1834 eV  389.47 nm  f=0.0051  <S**2>=0.000
     305 -> 313        0.18119
     306 -> 313        0.66105

 The electronic state is 1-A.
 Alpha  occ. eigenvalues --  -46.96413 -46.95230 -19.30044 -19.29871 -19.25393
 Alpha  occ. eigenvalues --  -19.24987 -19.24606 -19.24392 -19.23579 -19.22437
 Alpha  occ. eigenvalues --  -14.46926 -14.46911 -14.46372 -14.45991 -14.45072
 Alpha  occ. eigenvalues --  -14.44717 -14.44269 -14.44192 -10.43782 -10.43009
 Alpha  occ. eigenvalues --  -10.40045 -10.39777 -10.39553 -10.37918 -10.35648
 Alpha  occ. eigenvalues --  -10.35576 -10.35450 -10.35144 -10.35125 -10.34843
 Alpha  occ. eigenvalues --  -10.34785 -10.34767 -10.34761 -10.34691 -10.34684
 Alpha  occ. eigenvalues --  -10.34473 -10.34438 -10.34426 -10.34177 -10.34069
 Alpha  occ. eigenvalues --  -10.33834 -10.33822 -10.33373 -10.33200 -10.33110
 Alpha  occ. eigenvalues --  -10.33065 -10.32905 -10.32875 -10.32862 -10.32386
 Alpha  occ. eigenvalues --  -10.32261 -10.32174 -10.32156 -10.32064 -10.32051
 Alpha  occ. eigenvalues --  -10.32034 -10.31991 -10.31961 -10.31941 -10.31698
 Alpha  occ. eigenvalues --  -10.31684 -10.31533 -10.31524 -10.31425 -10.31406
 Alpha  occ. eigenvalues --  -10.31317 -10.31123 -10.31122 -10.30985 -10.30973
 Alpha  occ. eigenvalues --  -10.30763 -10.30449 -10.30420 -10.30341 -10.30324
 Alpha  occ. eigenvalues --  -10.30316 -10.30079 -10.30017 -10.29775 -10.29633
 Alpha  occ. eigenvalues --  -10.29612 -10.29607 -10.29550 -10.29427 -10.29372
 Alpha  occ. eigenvalues --  -10.29255  -3.22342  -3.21332  -1.95918  -1.95463
 Alpha  occ. eigenvalues --   -1.95310  -1.94891  -1.94455  -1.94319  -1.18729
 Alpha  occ. eigenvalues --   -1.18255  -1.12506  -1.11741  -1.11635  -1.09629
 Alpha  occ. eigenvalues --   -1.09528  -1.09220  -1.08738  -1.06920  -1.06843
 Alpha  occ. eigenvalues --   -1.06061  -1.06048  -1.05657  -1.05328  -1.04588
 Alpha  occ. eigenvalues --   -0.95704  -0.95618  -0.91730  -0.91409  -0.90729
 Alpha  occ. eigenvalues --   -0.90672  -0.90479  -0.90206  -0.89949  -0.89384
 Alpha  occ. eigenvalues --   -0.88904  -0.88781  -0.88172  -0.87322  -0.86835
 Alpha  occ. eigenvalues --   -0.86625  -0.85970  -0.85835  -0.85017  -0.84784
 Alpha  occ. eigenvalues --   -0.84012  -0.83711  -0.83025  -0.82777  -0.82775
 Alpha  occ. eigenvalues --   -0.82475  -0.80502  -0.80476  -0.79643  -0.79411
 Alpha  occ. eigenvalues --   -0.79208  -0.78947  -0.78621  -0.78163  -0.77376
 Alpha  occ. eigenvalues --   -0.77310  -0.75354  -0.75338  -0.74381  -0.72892
 Alpha  occ. eigenvalues --   -0.71604  -0.71206  -0.71200  -0.70599  -0.70586
 Alpha  occ. eigenvalues --   -0.70170  -0.69506  -0.68907  -0.68782  -0.67647
 Alpha  occ. eigenvalues --   -0.67645  -0.67509  -0.67078  -0.66891  -0.66881
 Alpha  occ. eigenvalues --   -0.66452  -0.65188  -0.64044  -0.62728  -0.62594
 Alpha  occ. eigenvalues --   -0.62212  -0.61777  -0.61491  -0.61451  -0.60833
 Alpha  occ. eigenvalues --   -0.60535  -0.60381  -0.60093  -0.59691  -0.59259
 Alpha  occ. eigenvalues --   -0.58351  -0.57866  -0.57849  -0.57655  -0.57597
 Alpha  occ. eigenvalues --   -0.57034  -0.56853  -0.56608  -0.56512  -0.56091
 Alpha  occ. eigenvalues --   -0.55916  -0.55656  -0.55593  -0.55176  -0.54901
 Alpha  occ. eigenvalues --   -0.54766  -0.54719  -0.54461  -0.54344  -0.53968
 Alpha  occ. eigenvalues --   -0.53690  -0.53667  -0.53533  -0.53342  -0.53221
 Alpha  occ. eigenvalues --   -0.53177  -0.53027  -0.52928  -0.52529  -0.52212
 Alpha  occ. eigenvalues --   -0.51957  -0.51835  -0.51812  -0.51751  -0.51631
 Alpha  occ. eigenvalues --   -0.51462  -0.51442  -0.51150  -0.50994  -0.50801
 Alpha  occ. eigenvalues --   -0.50644  -0.50476  -0.50454  -0.50246  -0.50239
 Alpha  occ. eigenvalues --   -0.50065  -0.49800  -0.49778  -0.49532  -0.49509
 Alpha  occ. eigenvalues --   -0.49375  -0.49209  -0.49162  -0.48878  -0.48580
 Alpha  occ. eigenvalues --   -0.48445  -0.48346  -0.48235  -0.48135  -0.48049
 Alpha  occ. eigenvalues --   -0.47888  -0.47798  -0.47492  -0.47370  -0.47297
 Alpha  occ. eigenvalues --   -0.47028  -0.46912  -0.46787  -0.46734  -0.46287
 Alpha  occ. eigenvalues --   -0.46123  -0.45911  -0.45911  -0.45661  -0.45521
 Alpha  occ. eigenvalues --   -0.45258  -0.45173  -0.45088  -0.45052  -0.44756
 Alpha  occ. eigenvalues --   -0.44588  -0.44581  -0.44256  -0.44046  -0.44028
 Alpha  occ. eigenvalues --   -0.44001  -0.43906  -0.43593  -0.43365  -0.43231
 Alpha  occ. eigenvalues --   -0.43114  -0.42853  -0.42649  -0.42598  -0.42580
 Alpha  occ. eigenvalues --   -0.41882  -0.41736  -0.41365  -0.41224  -0.41147
 Alpha  occ. eigenvalues --   -0.40764  -0.40468  -0.40156  -0.40136  -0.39724
 Alpha  occ. eigenvalues --   -0.39681  -0.39223  -0.38893  -0.38719  -0.38397
 Alpha  occ. eigenvalues --   -0.38276  -0.37851  -0.37065  -0.36617  -0.36264
 Alpha  occ. eigenvalues --   -0.36261  -0.35865  -0.35389  -0.34095  -0.33774
 Alpha  occ. eigenvalues --   -0.33490  -0.33435  -0.33273  -0.32871  -0.32239
 Alpha  occ. eigenvalues --   -0.32066  -0.31762  -0.31424  -0.26423  -0.26168
 Alpha  occ. eigenvalues --   -0.23541  -0.23346
 Alpha virt. eigenvalues --   -0.08017  -0.07265  -0.00130   0.01147   0.01413
 Alpha virt. eigenvalues --    0.02364   0.03849   0.04287   0.04518   0.04950
 Alpha virt. eigenvalues --    0.06109   0.06812   0.07190   0.07652   0.07968

 Mulliken charges:
               1
     1  Mg   0.983334
     2  C   -0.013858
     3  C   -0.065893
     4  C   -0.042953
     5  C   -0.082980
     6  N   -0.296633
     7  C   -0.036575
     8  C   -0.084046
     9  C   -0.102354
    10  C   -0.016708
    11  C    0.047883
    12  C    0.043059
    13  C   -0.116546
    14  H    0.053880
    15  N   -0.496765
    16  C    0.190265
    17  C   -0.170749
    18  C   -0.082146
    19  C    0.148089
    20  C    0.071858
    21  C    0.008740
    22  O   -0.274948
    23  C    0.009722
    24  N   -0.391696
    25  C    0.045339
    26  C   -0.110574
    27  C   -0.102267
    28  C    0.088638
    29  C    0.051775
    30  C   -0.033965
    31  C   -0.032721
    32  N   -0.400059
    33  C    0.123255
    34  C   -0.202591
    35  C   -0.040055
    36  C    0.129405
    37  C    0.087823
    38  C    0.156518
    39  O   -0.192234
    40  C   -0.059950
    41  C    0.245510
    42  O   -0.268740
    43  O   -0.350401
    44  C    0.133690
    45  H   -0.007718
    46  H    0.013653
    47  H    0.005023
    48  H    0.033354
    49  H    0.025417
    50  H    0.044487
    51  H    0.034244
    52  H    0.048411
    53  H    0.032028
    54  H    0.031311
    55  H    0.048022
    56  H    0.042924
    57  H    0.068000
    58  H    0.040265
    59  H    0.043014
    60  H    0.064002
    61  H    0.055091
    62  H    0.045548
    63  H    0.047104
    64  H    0.025421
    65  H    0.046371
    66  H    0.060246
    67  H    0.027964
    68  H    0.024668
    69  H    0.033426
    70  H    0.042555
    71  H    0.036223
    72  H    0.048608
    73  H    0.031189
    74  H    0.060035
    75  H    0.065046
    76  H    0.071922
    77  H    0.066087
    78  H    0.033726
    79  H    0.061961
    80  Mg   0.957776
    81  C   -0.036496
    82  C   -0.091679
    83  C   -0.036448
    84  C   -0.103710
    85  N   -0.340915
    86  C   -0.037890
    87  C    0.005202
    88  C   -0.158275
    89  C    0.057874
    90  C    0.033616
    91  C    0.002364
    92  C   -0.149975
    93  H    0.026876
    94  N   -0.476181
    95  C    0.164632
    96  C   -0.173387
    97  C   -0.081304
    98  C    0.167452
    99  C    0.085910
   100  C    0.055518
   101  O   -0.240354
   102  C   -0.027058
   103  N   -0.273779
   104  C    0.045859
   105  C   -0.055820
   106  C   -0.125939
   107  C    0.077205
   108  C    0.014305
   109  C   -0.041904
   110  C   -0.039886
   111  N   -0.402122
   112  C    0.127017
   113  C   -0.186085
   114  C   -0.008900
   115  C    0.160884
   116  C    0.075251
   117  C    0.093747
   118  O   -0.218079
   119  C   -0.083308
   120  C    0.279629
   121  O   -0.209523
   122  O   -0.398022
   123  C    0.134884
   124  H   -0.010898
   125  H   -0.053805
   126  H    0.002655
   127  H    0.040935
   128  H    0.037049
   129  H    0.035433
   130  H    0.038113
   131  H    0.054859
   132  H    0.045347
   133  H    0.044650
   134  H    0.072935
   135  H    0.074363
   136  H    0.077690
   137  H    0.041045
   138  H    0.036933
   139  H    0.056522
   140  H    0.057163
   141  H    0.052399
   142  H    0.035506
   143  H    0.023164
   144  H    0.033239
   145  H    0.035997
   146  H    0.027105
   147  H    0.043330
   148  H    0.025250
   149  H    0.043765
   150  H    0.037804
   151  H    0.028133
   152  H    0.042815
   153  H    0.054948
   154  H    0.069759
   155  H    0.068865
   156  H    0.065924
   157  H    0.044834
   158  H    0.047212
 Sum of Mulliken charges =  -0.00000

 Dipole moment (field-independent basis, Debye):
    X=             -1.4580    Y=             -2.0443    Z=             -3.4813  Tot=              4.2924
 Quadrupole moment (field-independent basis, Debye-Ang):
   XX=           -200.2961   YY=           -457.3000   ZZ=           -529.3760
   XY=            -74.8961   XZ=             46.1111   YZ=              2.4854

 Normal termination of Gaussian 16 at Sat Sep 18 18:36:16 2021.
