 Gaussian 16, Revision A.03,
 Gaussian 16:  ES64L-G16RevA.03 25-Dec-2016

 --------------------------------
 #p wB97XD/Def2SVP td=(nstates=5)
 --------------------------------

 --------------------------------
 TDDFT excited states in gaussian
 --------------------------------
 Symbolic Z-matrix:
 Charge =  0 Multiplicity = 1

                         Standard orientation:
 ---------------------------------------------------------------------
 Center     Atomic      Atomic             Coordinates (Angstroms)
 Number     Number       Type             X           Y           Z
 ---------------------------------------------------------------------
      1         12           0      -25.465555   -0.318390    0.312324
      2          6           0      -22.093335   -0.332719   -0.901898
      3          6           0      -24.212384    1.153771    3.275663
      4          6           0      -28.623125    0.421050    1.174455
      5          6           0      -26.520696   -1.123002   -2.873999
      6          7           0      -23.377390    0.339379    1.128808
      7          6           0      -22.231042    0.233166    0.392070
      8          6           0      -21.117290    1.019036    1.065726
      9          6           0      -21.788028    1.204388    2.490907
     10          6           0      -23.231067    0.899272    2.354672
     11          6           0      -21.189246    0.378003    3.678254
     12          6           0      -20.757993    2.278967    0.214480
     13          6           0      -19.239931    2.647949   -0.046515
     14          1           0      -18.680539    3.985850    0.469695
     15          7           0      -26.315447    0.444434    1.991047
     16          6           0      -25.655955    0.990224    3.123814
     17          6           0      -26.622704    1.404408    4.123815
     18          6           0      -27.912326    1.189807    3.487117
     19          6           0      -27.629273    0.655165    2.168339
     20          6           0      -26.209930    2.042142    5.384401
     21          6           0      -29.248243    1.484577    4.191239
     22          8           0      -29.171849    2.028311    5.331583
     23          6           0      -30.648934    1.171805    3.623323
     24          7           0      -27.365605   -0.072644   -0.753868
     25          6           0      -28.529827    0.061884   -0.148217
     26          6           0      -29.610874   -0.001490   -1.178342
     27          6           0      -28.899272   -0.556788   -2.441034
     28          6           0      -27.457105   -0.511056   -2.039236
     29          6           0      -30.959169   -0.781438   -0.866788
     30          6           0      -29.186449    0.254359   -3.807966
     31          6           0      -29.937495   -0.469088   -4.952519
     32          7           0      -24.567829   -0.846603   -1.440790
     33          6           0      -25.102749   -1.144541   -2.636900
     34          6           0      -24.102217   -1.437583   -3.596559
     35          6           0      -22.903577   -1.171654   -2.930523
     36          6           0      -23.230523   -0.765943   -1.611900
     37          6           0      -24.204981   -1.913603   -4.989790
     38          6           0      -21.492905   -1.143816   -3.165676
     39          8           0      -20.896611   -1.357044   -4.197428
     40          6           0      -20.870969   -0.510916   -1.765842
     41          6           0      -19.926365   -1.460588   -1.165757
     42          8           0      -20.101550   -2.681294   -1.062292
     43          8           0      -18.848587   -0.721351   -0.727072
     44          6           0      -17.765090   -1.467955   -0.089954
     45          1           0      -23.888053    1.606344    4.213972
     46          1           0      -29.651843    0.736468    1.358843
     47          1           0      -26.793132   -1.598353   -3.818797
     48          1           0      -20.297731    0.316139    1.217449
     49          1           0      -21.700089    2.289625    2.554221
     50          1           0      -22.001375   -0.213347    4.103579
     51          1           0      -20.793973    0.986352    4.491447
     52          1           0      -20.434352   -0.360076    3.405476
     53          1           0      -21.222725    3.045807    0.833822
     54          1           0      -21.243102    2.350877   -0.758707
     55          1           0      -19.124083    2.583809   -1.128287
     56          1           0      -18.628853    1.804025    0.272159
     57          1           0      -25.555990    2.869520    5.107885
     58          1           0      -25.592376    1.355785    5.963376
     59          1           0      -26.988805    2.320830    6.094664
     60          1           0      -30.845783    1.872462    2.811717
     61          1           0      -31.273368    1.057439    4.508774
     62          1           0      -30.521224    0.168648    3.215150
     63          1           0      -29.946686    1.022445   -1.337580
     64          1           0      -29.169581   -1.612026   -2.400218
     65          1           0      -31.709948   -0.270993   -1.470531
     66          1           0      -31.150405   -0.725584    0.204738
     67          1           0      -30.814858   -1.800808   -1.225206
     68          1           0      -28.193915    0.569232   -4.129774
     69          1           0      -29.666701    1.193559   -3.533754
     70          1           0      -29.438233   -0.367867   -5.915231
     71          1           0      -30.947586   -0.063307   -5.014665
     72          1           0      -30.113886   -1.527582   -4.760360
     73          1           0      -23.267989   -2.346335   -5.338912
     74          1           0      -24.428388   -0.952266   -5.452779
     75          1           0      -25.161758   -2.423794   -5.100350
     76          1           0      -20.488759    0.497105   -1.922773
     77          1           0      -17.434350   -2.304400   -0.706061
     78          1           0      -18.086898   -1.818835    0.891675
     79          1           0      -16.911023   -0.802380    0.035487
     80         12           0       25.355299    0.503309   -0.106903
     81          6           0       22.458814   -1.645898   -0.073769
     82          6           0       27.137068   -2.180805    1.278075
     83          6           0       28.030568    2.402113   -0.238707
     84          6           0       23.331173    3.138464   -1.193180
     85          7           0       24.779504   -1.691650    0.546943
     86          6           0       23.640795   -2.379816    0.269420
     87          6           0       23.815296   -3.875781    0.474561
     88          6           0       25.239840   -4.001327    1.255613
     89          6           0       25.748846   -2.545893    1.045942
     90          6           0       25.141948   -4.498013    2.719824
     91          6           0       23.767230   -4.680105   -0.868322
     92          6           0       22.682869   -5.788155   -0.900861
     93          1           0       23.291583   -7.301565   -1.025587
     94          7           0       27.254171    0.165094    0.421438
     95          6           0       27.865214   -0.989170    1.018478
     96          6           0       29.319568   -0.829535    1.254893
     97          6           0       29.549258    0.491471    0.748236
     98          6           0       28.270869    1.060066    0.289100
     99          6           0       30.224513   -1.879172    1.903207
    100          6           0       30.808052    1.272281    0.750276
    101          8           0       31.015804    2.294232    0.105132
    102          6           0       32.014375    0.692285    1.514541
    103          7           0       25.642771    2.396385   -0.795135
    104          6           0       26.853592    2.994668   -0.720958
    105          6           0       26.795237    4.473262   -0.986814
    106          6           0       25.312333    4.740852   -1.343748
    107          6           0       24.697544    3.334651   -1.162891
    108          6           0       27.372054    5.338701    0.113836
    109          6           0       25.174058    5.248932   -2.897389
    110          6           0       24.371364    6.644419   -3.113185
    111          7           0       23.260759    0.814329   -0.300149
    112          6           0       22.616249    1.952572   -0.841680
    113          6           0       21.192286    1.630263   -0.988616
    114          6           0       21.157865    0.219958   -0.828812
    115          6           0       22.383445   -0.192517   -0.303655
    116          6           0       20.010568    2.539147   -1.313125
    117          6           0       20.185529   -0.904415   -0.723363
    118          8           0       18.935279   -1.026854   -0.847172
    119          6           0       21.059883   -2.163031   -0.348819
    120          6           0       20.448890   -2.825691    0.850518
    121          8           0       20.051685   -2.239301    1.817351
    122          8           0       20.312292   -4.165141    0.612491
    123          6           0       19.417566   -4.828534    1.594291
    124          1           0       27.610518   -2.995304    1.829871
    125          1           0       28.880967    3.084377   -0.304916
    126          1           0       22.686227    3.935691   -1.567946
    127          1           0       23.027953   -4.176939    1.165619
    128          1           0       25.950718   -4.637674    0.727847
    129          1           0       25.450824   -3.717787    3.416104
    130          1           0       25.757304   -5.387276    2.862453
    131          1           0       24.165736   -4.868908    3.032241
    132          1           0       24.715541   -5.176659   -1.075480
    133          1           0       23.549761   -4.031740   -1.717522
    134          1           0       22.082899   -5.773268   -1.811132
    135          1           0       21.942717   -5.737513   -0.102911
    136          1           0       29.852181   -2.903592    1.935329
    137          1           0       30.581487   -1.637234    2.904225
    138          1           0       31.116781   -1.900903    1.276707
    139          1           0       31.781596    0.597301    2.575115
    140          1           0       32.922565    1.276070    1.360820
    141          1           0       32.215015   -0.301225    1.113596
    142          1           0       27.463185    4.689521   -1.821685
    143          1           0       24.853811    5.432133   -0.637261
    144          1           0       28.328553    5.792905   -0.146285
    145          1           0       27.618603    4.811605    1.035439
    146          1           0       26.632701    6.100636    0.361506
    147          1           0       24.686686    4.531072   -3.556316
    148          1           0       26.142059    5.417990   -3.368346
    149          1           0       24.412541    7.153788   -2.150202
    150          1           0       23.340786    6.475734   -3.428226
    151          1           0       24.914207    7.316159   -3.777645
    152          1           0       19.235583    2.021034   -1.877642
    153          1           0       20.365874    3.292254   -2.017429
    154          1           0       19.773855    2.996813   -0.352491
    155          1           0       20.927342   -2.865482   -1.171286
    156          1           0       19.798092   -4.595141    2.588504
    157          1           0       19.605622   -5.889297    1.429134
    158          1           0       18.359148   -4.568738    1.611102
 ---------------------------------------------------------------------

 SCF Done:  E(RwB97XD) =  -4070.58167496     A.U. after   20 cycles

 Excitation energies and oscillator strengths:

 Excited State   1:      Singlet-A      1.6155 eV  767.45 nm  f=0.3747  <S**2>=0.000
     310 -> 315        0.19314
     311 -> 313        0.68198
     310 <- 315        0.12120
 This state for optimization and/or second-order correction.
 Total Energy, E(TD-HF/TD-DFT) =  -4070.52230513
 Copying the excited state density for this state as the 1-particle RhoCI density.

 Excited State   2:      Singlet-A      1.6376 eV  757.10 nm  f=0.3859  <S**2>=0.000
     309 -> 316       -0.19095
     312 -> 314        0.68319
     309 <- 316       -0.12120

 Excited State   3:      Singlet-A      2.1192 eV  585.06 nm  f=0.1304  <S**2>=0.000
     310 -> 313        0.64524
     311 -> 315       -0.27988

 Excited State   4:      Singlet-A      2.1989 eV  563.83 nm  f=0.1291  <S**2>=0.000
     309 -> 314        0.63864
     312 -> 316        0.29227

 Excited State   5:      Singlet-A      3.3072 eV  374.90 nm  f=0.0054  <S**2>=0.000
     307 -> 314        0.66958
     307 -> 318        0.10677

 The electronic state is 1-A.
 Alpha  occ. eigenvalues --  -46.95228 -46.94863 -19.31482 -19.30869 -19.25503
 Alpha  occ. eigenvalues --  -19.24792 -19.24667 -19.24017 -19.23747 -19.23164
 Alpha  occ. eigenvalues --  -14.47249 -14.46528 -14.46503 -14.45952 -14.45373
 Alpha  occ. eigenvalues --  -14.44535 -14.44404 -14.43833 -10.43930 -10.42656
 Alpha  occ. eigenvalues --  -10.39477 -10.39230 -10.39184 -10.39124 -10.36171
 Alpha  occ. eigenvalues --  -10.35914 -10.35690 -10.35677 -10.35628 -10.35299
 Alpha  occ. eigenvalues --  -10.35194 -10.34917 -10.34907 -10.34776 -10.34769
 Alpha  occ. eigenvalues --  -10.34654 -10.34377 -10.34374 -10.34304 -10.33978
 Alpha  occ. eigenvalues --  -10.33756 -10.33294 -10.33125 -10.33079 -10.32960
 Alpha  occ. eigenvalues --  -10.32935 -10.32918 -10.32767 -10.32713 -10.32700
 Alpha  occ. eigenvalues --  -10.32532 -10.32508 -10.32374 -10.32236 -10.32232
 Alpha  occ. eigenvalues --  -10.32031 -10.31869 -10.31827 -10.31648 -10.31613
 Alpha  occ. eigenvalues --  -10.31605 -10.31538 -10.31528 -10.31415 -10.31283
 Alpha  occ. eigenvalues --  -10.31216 -10.31192 -10.31176 -10.31163 -10.31087
 Alpha  occ. eigenvalues --  -10.30720 -10.30652 -10.30541 -10.30463 -10.30460
 Alpha  occ. eigenvalues --  -10.30256 -10.30192 -10.30107 -10.29954 -10.29940
 Alpha  occ. eigenvalues --  -10.29880 -10.29730 -10.29351 -10.29211 -10.28962
 Alpha  occ. eigenvalues --  -10.28598  -3.21225  -3.20940  -1.94804  -1.94529
 Alpha  occ. eigenvalues --   -1.94337  -1.94208  -1.94064  -1.93930  -1.19122
 Alpha  occ. eigenvalues --   -1.18706  -1.13066  -1.12215  -1.10875  -1.10350
 Alpha  occ. eigenvalues --   -1.09437  -1.09291  -1.07451  -1.06737  -1.05983
 Alpha  occ. eigenvalues --   -1.05733  -1.05275  -1.04632  -1.04375  -1.04068
 Alpha  occ. eigenvalues --   -0.95142  -0.93543  -0.91225  -0.90612  -0.90364
 Alpha  occ. eigenvalues --   -0.90186  -0.90003  -0.89984  -0.89870  -0.89397
 Alpha  occ. eigenvalues --   -0.89360  -0.88947  -0.87952  -0.87550  -0.86568
 Alpha  occ. eigenvalues --   -0.85945  -0.85743  -0.85060  -0.84589  -0.83900
 Alpha  occ. eigenvalues --   -0.83700  -0.83339  -0.83313  -0.82619  -0.82425
 Alpha  occ. eigenvalues --   -0.81713  -0.81087  -0.80170  -0.79571  -0.79016
 Alpha  occ. eigenvalues --   -0.78803  -0.78706  -0.78203  -0.77964  -0.77267
 Alpha  occ. eigenvalues --   -0.77170  -0.75181  -0.74551  -0.74176  -0.73403
 Alpha  occ. eigenvalues --   -0.71712  -0.71362  -0.71160  -0.70660  -0.70411
 Alpha  occ. eigenvalues --   -0.69532  -0.69105  -0.68726  -0.68052  -0.67829
 Alpha  occ. eigenvalues --   -0.67605  -0.67602  -0.67096  -0.66760  -0.66411
 Alpha  occ. eigenvalues --   -0.66018  -0.64935  -0.64344  -0.62842  -0.62125
 Alpha  occ. eigenvalues --   -0.61910  -0.61486  -0.61221  -0.60881  -0.60737
 Alpha  occ. eigenvalues --   -0.60380  -0.60330  -0.59925  -0.59577  -0.59132
 Alpha  occ. eigenvalues --   -0.58161  -0.58152  -0.57881  -0.57579  -0.57258
 Alpha  occ. eigenvalues --   -0.56947  -0.56833  -0.56463  -0.56451  -0.55721
 Alpha  occ. eigenvalues --   -0.55644  -0.55348  -0.55271  -0.54873  -0.54629
 Alpha  occ. eigenvalues --   -0.54557  -0.54521  -0.54140  -0.54038  -0.53627
 Alpha  occ. eigenvalues --   -0.53614  -0.53336  -0.53331  -0.53288  -0.53161
 Alpha  occ. eigenvalues --   -0.52774  -0.52507  -0.52412  -0.52231  -0.51977
 Alpha  occ. eigenvalues --   -0.51972  -0.51892  -0.51878  -0.51708  -0.51506
 Alpha  occ. eigenvalues --   -0.51408  -0.51330  -0.51161  -0.50730  -0.50709
 Alpha  occ. eigenvalues --   -0.50385  -0.50211  -0.50049  -0.49944  -0.49835
 Alpha  occ. eigenvalues --   -0.49638  -0.49584  -0.49538  -0.49524  -0.49417
 Alpha  occ. eigenvalues --   -0.49378  -0.48978  -0.48965  -0.48774  -0.48556
 Alpha  occ. eigenvalues --   -0.48485  -0.48367  -0.48130  -0.48068  -0.47874
 Alpha  occ. eigenvalues --   -0.47873  -0.47523  -0.47487  -0.47358  -0.46946
 Alpha  occ. eigenvalues --   -0.46905  -0.46742  -0.46678  -0.46454  -0.46339
 Alpha  occ. eigenvalues --   -0.46031  -0.45786  -0.45721  -0.45663  -0.45553
 Alpha  occ. eigenvalues --   -0.45513  -0.45272  -0.45192  -0.44999  -0.44888
 Alpha  occ. eigenvalues --   -0.44768  -0.44752  -0.44542  -0.44227  -0.44188
 Alpha  occ. eigenvalues --   -0.44012  -0.43507  -0.43474  -0.43259  -0.43126
 Alpha  occ. eigenvalues --   -0.43061  -0.42762  -0.42707  -0.42604  -0.42382
 Alpha  occ. eigenvalues --   -0.42221  -0.42123  -0.42068  -0.41305  -0.40844
 Alpha  occ. eigenvalues --   -0.40643  -0.40514  -0.40196  -0.40171  -0.39747
 Alpha  occ. eigenvalues --   -0.39570  -0.39445  -0.39334  -0.38529  -0.38522
 Alpha  occ. eigenvalues --   -0.37735  -0.37508  -0.37125  -0.36640  -0.36392
 Alpha  occ. eigenvalues --   -0.36084  -0.35273  -0.35252  -0.33860  -0.33536
 Alpha  occ. eigenvalues --   -0.33129  -0.32966  -0.32597  -0.32479  -0.32306
 Alpha  occ. eigenvalues --   -0.32221  -0.31534  -0.31503  -0.26066  -0.25819
 Alpha  occ. eigenvalues --   -0.23112  -0.23096
 Alpha virt. eigenvalues --   -0.07346  -0.07274   0.00070   0.00196   0.02172
 Alpha virt. eigenvalues --    0.02404   0.04150   0.04518   0.05496   0.06423
 Alpha virt. eigenvalues --    0.06566   0.06791   0.07597   0.07721   0.07902

 Mulliken charges:
               1
     1  Mg   0.980651
     2  C   -0.123957
     3  C   -0.080778
     4  C   -0.101822
     5  C   -0.096353
     6  N   -0.314525
     7  C   -0.024900
     8  C   -0.047701
     9  C   -0.085510
    10  C    0.061170
    11  C    0.030212
    12  C   -0.009404
    13  C   -0.101184
    14  H    0.050366
    15  N   -0.481360
    16  C    0.127632
    17  C   -0.142739
    18  C   -0.097877
    19  C    0.230266
    20  C    0.077004
    21  C    0.025793
    22  O   -0.277734
    23  C    0.020239
    24  N   -0.347201
    25  C    0.018998
    26  C   -0.090659
    27  C   -0.108934
    28  C    0.094383
    29  C    0.033654
    30  C    0.010046
    31  C   -0.047577
    32  N   -0.436748
    33  C    0.106190
    34  C   -0.206170
    35  C   -0.066802
    36  C    0.192958
    37  C    0.118062
    38  C    0.144204
    39  O   -0.188395
    40  C   -0.050614
    41  C    0.292322
    42  O   -0.254427
    43  O   -0.371195
    44  C    0.136622
    45  H   -0.000105
    46  H   -0.036514
    47  H    0.002967
    48  H    0.018593
    49  H    0.029570
    50  H    0.037158
    51  H    0.045353
    52  H    0.037084
    53  H    0.031072
    54  H    0.053644
    55  H    0.048102
    56  H    0.042433
    57  H    0.047764
    58  H    0.033331
    59  H    0.069368
    60  H    0.083917
    61  H    0.065061
    62  H    0.043301
    63  H    0.038400
    64  H    0.032669
    65  H    0.040649
    66  H    0.041115
    67  H    0.031823
    68  H    0.033616
    69  H    0.025548
    70  H    0.046672
    71  H    0.035571
    72  H    0.033267
    73  H    0.080989
    74  H    0.046782
    75  H    0.029913
    76  H    0.059568
    77  H    0.065669
    78  H    0.052736
    79  H    0.056708
    80  Mg   0.990517
    81  C   -0.017371
    82  C   -0.078536
    83  C   -0.086352
    84  C   -0.079854
    85  N   -0.298194
    86  C   -0.019960
    87  C   -0.052868
    88  C   -0.107251
    89  C    0.010938
    90  C    0.015717
    91  C    0.042936
    92  C   -0.139068
    93  H   -0.009623
    94  N   -0.512363
    95  C    0.177330
    96  C   -0.130255
    97  C   -0.070952
    98  C    0.182049
    99  C    0.070355
   100  C    0.029735
   101  O   -0.236670
   102  C   -0.016707
   103  N   -0.420603
   104  C    0.093745
   105  C   -0.078840
   106  C   -0.074220
   107  C    0.102100
   108  C    0.012660
   109  C   -0.031808
   110  C   -0.079638
   111  N   -0.424384
   112  C    0.112397
   113  C   -0.186380
   114  C   -0.110882
   115  C    0.145422
   116  C    0.092652
   117  C    0.193696
   118  O   -0.247710
   119  C   -0.086716
   120  C    0.237153
   121  O   -0.215001
   122  O   -0.372162
   123  C    0.133759
   124  H   -0.004488
   125  H    0.020944
   126  H   -0.003317
   127  H    0.041539
   128  H    0.042935
   129  H    0.048254
   130  H    0.034638
   131  H    0.041313
   132  H    0.049086
   133  H    0.046169
   134  H    0.054726
   135  H    0.060346
   136  H    0.047045
   137  H    0.062927
   138  H    0.044797
   139  H    0.052845
   140  H    0.053710
   141  H    0.038542
   142  H    0.046257
   143  H    0.048426
   144  H    0.040262
   145  H    0.042078
   146  H    0.029145
   147  H    0.043055
   148  H    0.034665
   149  H    0.027513
   150  H    0.051966
   151  H    0.040934
   152  H    0.063932
   153  H    0.026447
   154  H    0.068685
   155  H    0.067100
   156  H    0.050141
   157  H    0.052115
   158  H    0.076480
 Sum of Mulliken charges =  -0.00000

 Dipole moment (field-independent basis, Debye):
    X=              3.1508    Y=             -1.3216    Z=              0.4131  Tot=              3.4416
 Quadrupole moment (field-independent basis, Debye-Ang):
   XX=           -236.3820   YY=           -490.1555   ZZ=           -524.7921
   XY=            -53.9642   XZ=             91.5237   YZ=            -27.8604

 Normal termination of Gaussian 16 at Sun Sep 19 04:18:03 2021.
