 Gaussian 16, Revision A.03,
 Gaussian 16:  ES64L-G16RevA.03 25-Dec-2016

 --------------------------------
 #p wB97XD/Def2SVP td=(nstates=5)
 --------------------------------

 --------------------------------
 TDDFT excited states in gaussian
 --------------------------------
 Symbolic Z-matrix:
 Charge =  0 Multiplicity = 1

                         Standard orientation:
 ---------------------------------------------------------------------
 Center     Atomic      Atomic             Coordinates (Angstroms)
 Number     Number       Type             X           Y           Z
 ---------------------------------------------------------------------
      1         12           0        8.413990    0.578674    0.065034
      2          6           0        6.399658   -1.906394   -1.254224
      3          6           0        6.413282    2.963943   -1.442089
      4          6           0        9.931830    2.914118    1.972046
      5          6           0       10.108309   -1.992814    1.783863
      6          7           0        6.431772    0.529560   -0.977406
      7          6           0        5.966156   -0.592176   -1.533940
      8          6           0        4.653215   -0.292873   -2.321525
      9          6           0        4.821579    1.273554   -2.608588
     10          6           0        6.029770    1.640768   -1.664619
     11          6           0        4.977311    1.597366   -4.114045
     12          6           0        3.445279   -0.538477   -1.446321
     13          6           0        2.264663   -1.208417   -2.131841
     14          1           0        0.768245   -0.832471   -1.814784
     15          7           0        8.283325    2.709736    0.080950
     16          6           0        7.382821    3.502218   -0.525536
     17          6           0        7.711690    4.852456   -0.201710
     18          6           0        8.852082    4.884055    0.657004
     19          6           0        9.115369    3.466044    0.931539
     20          6           0        7.050265    5.997393   -0.875472
     21          6           0        9.409868    6.124452    1.259258
     22          8           0        8.957121    7.213884    0.949292
     23          6           0       10.595124    6.084461    2.216416
     24          7           0        9.945818    0.448490    1.659730
     25          6           0       10.312724    1.594373    2.298941
     26          6           0       11.109272    1.282965    3.524152
     27          6           0       11.150453   -0.316531    3.451495
     28          6           0       10.419286   -0.705686    2.190648
     29          6           0       12.478887    1.983354    3.599717
     30          6           0       10.610403   -1.087296    4.736488
     31          6           0       11.468047   -2.181104    5.415198
     32          7           0        8.329317   -1.481663    0.234086
     33          6           0        9.111614   -2.374141    0.897219
     34          6           0        8.899214   -3.660399    0.399264
     35          6           0        7.839400   -3.569257   -0.492312
     36          6           0        7.481599   -2.244395   -0.502131
     37          6           0        9.640980   -4.934437    0.899662
     38          6           0        7.013924   -4.259968   -1.368079
     39          8           0        6.941898   -5.471494   -1.541774
     40          6           0        5.926196   -3.231106   -1.944610
     41          6           0        6.053431   -3.054342   -3.346207
     42          8           0        6.873907   -2.414627   -4.008538
     43          8           0        5.003296   -3.765737   -3.918389
     44          6           0        4.828765   -3.803826   -5.360241
     45          1           0        5.886439    3.713236   -2.036218
     46          1           0       10.502990    3.548962    2.653317
     47          1           0       10.756234   -2.704455    2.300034
     48          1           0        4.633829   -0.942784   -3.195923
     49          1           0        4.028678    1.890076   -2.186381
     50          1           0        5.052802    0.692617   -4.716909
     51          1           0        5.862174    2.217002   -4.262999
     52          1           0        4.122619    2.206600   -4.407144
     53          1           0        3.038041    0.310622   -0.897048
     54          1           0        3.833335   -1.118704   -0.609172
     55          1           0        2.413411   -2.282215   -2.019391
     56          1           0        2.468884   -0.971794   -3.176052
     57          1           0        7.763761    6.257898   -1.657017
     58          1           0        6.873482    6.821445   -0.183985
     59          1           0        6.085947    5.739472   -1.313405
     60          1           0       10.180741    5.802786    3.184547
     61          1           0       10.903657    7.121919    2.342886
     62          1           0       11.363585    5.402504    1.852637
     63          1           0       10.425840    1.649639    4.289350
     64          1           0       12.174133   -0.689942    3.423639
     65          1           0       12.370175    2.767715    4.349486
     66          1           0       12.805416    2.383637    2.639341
     67          1           0       13.221520    1.282267    3.979825
     68          1           0        9.673996   -1.577272    4.470106
     69          1           0       10.418192   -0.422846    5.579189
     70          1           0       11.119299   -3.051384    4.859391
     71          1           0       11.180446   -2.294373    6.459650
     72          1           0       12.541629   -2.227873    5.233097
     73          1           0        9.251379   -5.195150    1.882875
     74          1           0       10.712566   -4.830109    1.070822
     75          1           0        9.468597   -5.774755    0.226595
     76          1           0        4.958069   -3.616061   -1.623862
     77          1           0        4.380550   -4.767574   -5.599919
     78          1           0        5.720429   -3.570494   -5.942735
     79          1           0        4.049698   -3.084720   -5.613705
     80         12           0       -8.436459    0.227894   -0.022315
     81          6           0       -6.168903   -2.328825   -0.260935
     82          6           0       -6.555655    2.105276   -2.056371
     83          6           0      -10.631762    2.730285    0.508573
     84          6           0      -10.145832   -1.658754    2.573427
     85          7           0       -6.390206   -0.020130   -0.836696
     86          6           0       -5.703929   -1.166745   -0.913231
     87          6           0       -4.389440   -0.983854   -1.832123
     88          6           0       -4.631823    0.479104   -2.361261
     89          6           0       -5.938085    0.943943   -1.686430
     90          6           0       -3.419175    1.412571   -2.179403
     91          6           0       -4.262310   -2.042774   -2.963865
     92          6           0       -3.252082   -1.768986   -4.125500
     93          1           0       -1.884237   -2.551221   -4.105581
     94          7           0       -8.546519    2.188505   -0.653863
     95          6           0       -7.758278    2.743148   -1.551091
     96          6           0       -8.235906    4.091233   -1.818899
     97          6           0       -9.374954    4.373855   -1.006515
     98          6           0       -9.567987    3.067930   -0.338636
     99          6           0       -7.535462    5.118073   -2.693330
    100          6           0      -10.167038    5.663099   -0.815391
    101          8           0      -10.930057    5.802332    0.136158
    102          6           0       -9.996175    6.761331   -1.805758
    103          7           0      -10.125282    0.505435    1.390199
    104          6           0      -10.878064    1.598718    1.360720
    105          6           0      -12.127696    1.464044    2.246600
    106          6           0      -12.012395    0.005942    2.683350
    107          6           0      -10.662107   -0.385116    2.210561
    108          6           0      -12.306506    2.463956    3.398669
    109          6           0      -13.207136   -0.841151    2.325047
    110          6           0      -14.017699   -1.441726    3.528511
    111          7           0       -8.270587   -1.582043    0.913719
    112          6           0       -9.067910   -2.272315    1.887261
    113          6           0       -8.590640   -3.622383    2.091188
    114          6           0       -7.459787   -3.639446    1.228123
    115          6           0       -7.319170   -2.409268    0.573550
    116          6           0       -9.169276   -4.773459    2.835841
    117          6           0       -6.528759   -4.595649    0.684268
    118          8           0       -6.419236   -5.829261    0.747987
    119          6           0       -5.566411   -3.831070   -0.189898
    120          6           0       -4.205605   -3.752231    0.536653
    121          8           0       -4.001092   -3.523054    1.738601
    122          8           0       -3.231573   -3.974688   -0.390880
    123          6           0       -1.810420   -3.985491    0.080453
    124          1           0       -6.103977    2.768071   -2.797428
    125          1           0      -11.262464    3.536587    0.888773
    126          1           0      -10.787831   -2.215641    3.258294
    127          1           0       -3.568479   -1.018722   -1.116867
    128          1           0       -4.864588    0.407235   -3.423667
    129          1           0       -3.319844    1.983756   -3.101790
    130          1           0       -2.490386    0.855489   -2.055991
    131          1           0       -3.564227    2.077978   -1.328261
    132          1           0       -5.216494   -2.008643   -3.489642
    133          1           0       -3.992399   -3.009971   -2.540012
    134          1           0       -2.927972   -0.732944   -4.021928
    135          1           0       -3.734982   -2.012034   -5.071359
    136          1           0       -6.628271    4.709116   -3.138088
    137          1           0       -7.264441    5.985523   -2.092009
    138          1           0       -8.178476    5.472232   -3.498063
    139          1           0      -10.108216    6.284622   -2.779966
    140          1           0       -9.091661    7.365037   -1.873366
    141          1           0      -10.746736    7.544136   -1.701775
    142          1           0      -12.999503    1.580102    1.603623
    143          1           0      -11.981048   -0.000881    3.772734
    144          1           0      -13.374911    2.678421    3.396097
    145          1           0      -11.658501    3.329329    3.260437
    146          1           0      -11.952687    2.104945    4.365068
    147          1           0      -12.767329   -1.704604    1.826941
    148          1           0      -13.936301   -0.326647    1.699848
    149          1           0      -13.550226   -1.156933    4.471471
    150          1           0      -13.967295   -2.527422    3.440372
    151          1           0      -15.086293   -1.226297    3.527366
    152          1           0      -10.179748   -4.535914    3.167390
    153          1           0       -8.583712   -4.841891    3.751922
    154          1           0       -9.137658   -5.604456    2.129702
    155          1           0       -5.507522   -4.424730   -1.102345
    156          1           0       -1.533567   -3.161438    0.738471
    157          1           0       -1.072081   -4.053512   -0.717820
    158          1           0       -1.723196   -4.871887    0.708547
 ---------------------------------------------------------------------

 SCF Done:  E(RwB97XD) =  -4070.58968684     A.U. after   19 cycles

 Excitation energies and oscillator strengths:

 Excited State   1:      Singlet-A      1.6356 eV  758.01 nm  f=0.2195  <S**2>=0.000
     309 -> 315        0.18451
     311 -> 313        0.66090
     312 -> 314        0.17141
     309 <- 315        0.11585
 This state for optimization and/or second-order correction.
 Total Energy, E(TD-HF/TD-DFT) =  -4070.52957799
 Copying the excited state density for this state as the 1-particle RhoCI density.

 Excited State   2:      Singlet-A      1.6653 eV  744.52 nm  f=0.5562  <S**2>=0.000
     310 -> 316        0.17635
     311 -> 313       -0.17057
     312 -> 314        0.65975
     310 <- 316        0.10905

 Excited State   3:      Singlet-A      2.1726 eV  570.66 nm  f=0.1065  <S**2>=0.000
     309 -> 313        0.63360
     311 -> 315       -0.29626

 Excited State   4:      Singlet-A      2.2221 eV  557.95 nm  f=0.1113  <S**2>=0.000
     310 -> 314        0.63593
     312 -> 316       -0.28882

 Excited State   5:      Singlet-A      3.3106 eV  374.50 nm  f=0.0000  <S**2>=0.000
     312 -> 313        0.70680

 The electronic state is 1-A.
 Alpha  occ. eigenvalues --  -46.96146 -46.95534 -19.30772 -19.30037 -19.25280
 Alpha  occ. eigenvalues --  -19.24575 -19.24436 -19.24348 -19.23465 -19.22725
 Alpha  occ. eigenvalues --  -14.47058 -14.46720 -14.46664 -14.46276 -14.44685
 Alpha  occ. eigenvalues --  -14.44537 -14.43928 -14.43878 -10.43600 -10.43365
 Alpha  occ. eigenvalues --  -10.40077 -10.39373 -10.38671 -10.37336 -10.35814
 Alpha  occ. eigenvalues --  -10.35728 -10.35716 -10.35583 -10.35499 -10.35459
 Alpha  occ. eigenvalues --  -10.35254 -10.35009 -10.34988 -10.34483 -10.34431
 Alpha  occ. eigenvalues --  -10.34348 -10.34029 -10.33981 -10.33927 -10.33538
 Alpha  occ. eigenvalues --  -10.33363 -10.33262 -10.32910 -10.32789 -10.32733
 Alpha  occ. eigenvalues --  -10.32609 -10.32581 -10.32466 -10.32463 -10.32450
 Alpha  occ. eigenvalues --  -10.32425 -10.32424 -10.32182 -10.32135 -10.32124
 Alpha  occ. eigenvalues --  -10.32048 -10.32018 -10.32002 -10.31834 -10.31662
 Alpha  occ. eigenvalues --  -10.31577 -10.31562 -10.31180 -10.31048 -10.30980
 Alpha  occ. eigenvalues --  -10.30816 -10.30797 -10.30789 -10.30732 -10.30724
 Alpha  occ. eigenvalues --  -10.30607 -10.30514 -10.30406 -10.30294 -10.30243
 Alpha  occ. eigenvalues --  -10.30186 -10.30110 -10.30103 -10.29990 -10.29895
 Alpha  occ. eigenvalues --  -10.29759 -10.29538 -10.29506 -10.28977 -10.28947
 Alpha  occ. eigenvalues --  -10.28428  -3.21935  -3.21501  -1.95532  -1.95082
 Alpha  occ. eigenvalues --   -1.95047  -1.94893  -1.94616  -1.94485  -1.18060
 Alpha  occ. eigenvalues --   -1.17665  -1.12613  -1.12400  -1.12290  -1.10169
 Alpha  occ. eigenvalues --   -1.09862  -1.08673  -1.07732  -1.07678  -1.06410
 Alpha  occ. eigenvalues --   -1.06227  -1.05975  -1.05907  -1.04987  -1.04784
 Alpha  occ. eigenvalues --   -0.96032  -0.93231  -0.91776  -0.91515  -0.91253
 Alpha  occ. eigenvalues --   -0.90604  -0.90343  -0.90103  -0.89957  -0.89500
 Alpha  occ. eigenvalues --   -0.89087  -0.88958  -0.88947  -0.88287  -0.87510
 Alpha  occ. eigenvalues --   -0.86655  -0.86112  -0.85211  -0.85081  -0.84321
 Alpha  occ. eigenvalues --   -0.84283  -0.84064  -0.83567  -0.83000  -0.82870
 Alpha  occ. eigenvalues --   -0.81996  -0.80494  -0.80232  -0.79666  -0.79467
 Alpha  occ. eigenvalues --   -0.78681  -0.78665  -0.78568  -0.78005  -0.77291
 Alpha  occ. eigenvalues --   -0.77264  -0.75621  -0.74629  -0.74510  -0.73668
 Alpha  occ. eigenvalues --   -0.71958  -0.71365  -0.71283  -0.71067  -0.70277
 Alpha  occ. eigenvalues --   -0.69693  -0.69579  -0.69572  -0.68216  -0.68001
 Alpha  occ. eigenvalues --   -0.67769  -0.67610  -0.66996  -0.66882  -0.66412
 Alpha  occ. eigenvalues --   -0.65909  -0.64847  -0.64586  -0.62730  -0.62613
 Alpha  occ. eigenvalues --   -0.62050  -0.61620  -0.61217  -0.61207  -0.60866
 Alpha  occ. eigenvalues --   -0.60617  -0.60310  -0.60119  -0.59978  -0.59341
 Alpha  occ. eigenvalues --   -0.58452  -0.58311  -0.58233  -0.57644  -0.57595
 Alpha  occ. eigenvalues --   -0.57052  -0.56890  -0.56462  -0.56438  -0.56027
 Alpha  occ. eigenvalues --   -0.55671  -0.55659  -0.55503  -0.55337  -0.54737
 Alpha  occ. eigenvalues --   -0.54699  -0.54483  -0.54367  -0.54165  -0.54109
 Alpha  occ. eigenvalues --   -0.54103  -0.53922  -0.53624  -0.53620  -0.53446
 Alpha  occ. eigenvalues --   -0.53108  -0.53041  -0.52649  -0.52446  -0.52384
 Alpha  occ. eigenvalues --   -0.52212  -0.52051  -0.51883  -0.51733  -0.51671
 Alpha  occ. eigenvalues --   -0.51563  -0.51540  -0.51272  -0.51105  -0.51016
 Alpha  occ. eigenvalues --   -0.50994  -0.50879  -0.50506  -0.50477  -0.50351
 Alpha  occ. eigenvalues --   -0.50118  -0.49751  -0.49610  -0.49509  -0.49227
 Alpha  occ. eigenvalues --   -0.48929  -0.48811  -0.48777  -0.48729  -0.48636
 Alpha  occ. eigenvalues --   -0.48329  -0.48198  -0.48076  -0.48046  -0.47856
 Alpha  occ. eigenvalues --   -0.47851  -0.47611  -0.47382  -0.47237  -0.46906
 Alpha  occ. eigenvalues --   -0.46857  -0.46672  -0.46641  -0.46438  -0.46317
 Alpha  occ. eigenvalues --   -0.46064  -0.45959  -0.45929  -0.45775  -0.45687
 Alpha  occ. eigenvalues --   -0.45504  -0.45490  -0.45252  -0.44940  -0.44840
 Alpha  occ. eigenvalues --   -0.44722  -0.44285  -0.44179  -0.44143  -0.44005
 Alpha  occ. eigenvalues --   -0.43977  -0.43941  -0.43887  -0.43751  -0.43442
 Alpha  occ. eigenvalues --   -0.43405  -0.43085  -0.43046  -0.42726  -0.42342
 Alpha  occ. eigenvalues --   -0.42273  -0.41832  -0.41185  -0.40999  -0.40628
 Alpha  occ. eigenvalues --   -0.40257  -0.40188  -0.40003  -0.39783  -0.39596
 Alpha  occ. eigenvalues --   -0.39458  -0.39169  -0.38659  -0.38435  -0.38187
 Alpha  occ. eigenvalues --   -0.37888  -0.37746  -0.36979  -0.36624  -0.36265
 Alpha  occ. eigenvalues --   -0.35973  -0.35892  -0.35556  -0.34156  -0.33921
 Alpha  occ. eigenvalues --   -0.33389  -0.33330  -0.32789  -0.32781  -0.32724
 Alpha  occ. eigenvalues --   -0.31941  -0.31806  -0.31759  -0.26601  -0.25837
 Alpha  occ. eigenvalues --   -0.23467  -0.22919
 Alpha virt. eigenvalues --   -0.07664  -0.06901  -0.00493   0.00152   0.01767
 Alpha virt. eigenvalues --    0.02624   0.04326   0.04617   0.05067   0.05560
 Alpha virt. eigenvalues --    0.05890   0.06096   0.07625   0.07864   0.07946

 Mulliken charges:
               1
     1  Mg   0.939319
     2  C   -0.063727
     3  C   -0.088310
     4  C   -0.039278
     5  C   -0.123741
     6  N   -0.332261
     7  C    0.012983
     8  C   -0.125075
     9  C   -0.103325
    10  C    0.084084
    11  C    0.035922
    12  C    0.029971
    13  C   -0.116494
    14  H    0.039814
    15  N   -0.455936
    16  C    0.158400
    17  C   -0.182044
    18  C   -0.057124
    19  C    0.198313
    20  C    0.076090
    21  C    0.004880
    22  O   -0.235929
    23  C    0.002715
    24  N   -0.353850
    25  C   -0.009448
    26  C   -0.086600
    27  C   -0.051393
    28  C    0.062195
    29  C    0.022830
    30  C   -0.053503
    31  C   -0.067833
    32  N   -0.434005
    33  C    0.194511
    34  C   -0.187083
    35  C    0.053599
    36  C    0.162404
    37  C    0.075141
    38  C    0.056333
    39  O   -0.206524
    40  C   -0.078027
    41  C    0.295779
    42  O   -0.257089
    43  O   -0.389310
    44  C    0.139593
    45  H   -0.000535
    46  H   -0.029709
    47  H   -0.003074
    48  H    0.037175
    49  H    0.045184
    50  H    0.049080
    51  H    0.034553
    52  H    0.035257
    53  H    0.037589
    54  H    0.027810
    55  H    0.054646
    56  H    0.046475
    57  H    0.060743
    58  H    0.065774
    59  H    0.024010
    60  H    0.059633
    61  H    0.052220
    62  H    0.063692
    63  H    0.053348
    64  H    0.024328
    65  H    0.042587
    66  H    0.053112
    67  H    0.040714
    68  H    0.043799
    69  H    0.031279
    70  H    0.022380
    71  H    0.048440
    72  H    0.040213
    73  H    0.048014
    74  H    0.038088
    75  H    0.062501
    76  H    0.081744
    77  H    0.057357
    78  H    0.069220
    79  H    0.035948
    80  Mg   0.970274
    81  C   -0.074683
    82  C   -0.078811
    83  C   -0.049408
    84  C   -0.066354
    85  N   -0.355493
    86  C   -0.026171
    87  C   -0.008829
    88  C   -0.153567
    89  C    0.120027
    90  C    0.024926
    91  C   -0.009470
    92  C   -0.131879
    93  H    0.016224
    94  N   -0.438204
    95  C    0.116619
    96  C   -0.187058
    97  C   -0.059119
    98  C    0.130899
    99  C    0.069575
   100  C    0.087676
   101  O   -0.227290
   102  C   -0.033219
   103  N   -0.274270
   104  C   -0.007274
   105  C   -0.114800
   106  C   -0.055362
   107  C    0.009701
   108  C    0.036081
   109  C    0.000405
   110  C   -0.068111
   111  N   -0.456841
   112  C    0.123431
   113  C   -0.170399
   114  C   -0.076898
   115  C    0.205929
   116  C    0.109176
   117  C    0.102801
   118  O   -0.239065
   119  C   -0.055701
   120  C    0.293731
   121  O   -0.266087
   122  O   -0.365395
   123  C    0.138238
   124  H   -0.020140
   125  H    0.029527
   126  H    0.004135
   127  H    0.040150
   128  H    0.037013
   129  H    0.033616
   130  H    0.039920
   131  H    0.049801
   132  H    0.031898
   133  H    0.073925
   134  H    0.047592
   135  H    0.065373
   136  H    0.031471
   137  H    0.051512
   138  H    0.041217
   139  H    0.048718
   140  H    0.063162
   141  H    0.052475
   142  H    0.038873
   143  H    0.021339
   144  H    0.046529
   145  H    0.044298
   146  H    0.029764
   147  H    0.030526
   148  H    0.036938
   149  H    0.033087
   150  H    0.033458
   151  H    0.041979
   152  H    0.019301
   153  H    0.065491
   154  H    0.081176
   155  H    0.069734
   156  H    0.058260
   157  H    0.064631
   158  H    0.056731
 Sum of Mulliken charges =  -0.00000

 Dipole moment (field-independent basis, Debye):
    X=              0.5427    Y=              3.5864    Z=             -1.3222  Tot=              3.8607
 Quadrupole moment (field-independent basis, Debye-Ang):
   XX=           -432.9841   YY=           -580.7263   ZZ=           -477.5671
   XY=            -16.6123   XZ=             53.9417   YZ=            -15.5781

 Normal termination of Gaussian 16 at Sun Sep 19 03:10:29 2021.
