 Gaussian 16, Revision A.03,
 Gaussian 16:  ES64L-G16RevA.03 25-Dec-2016

 --------------------------------
 #p wB97XD/Def2SVP td=(nstates=5)
 --------------------------------

 --------------------------------
 TDDFT excited states in gaussian
 --------------------------------
 Symbolic Z-matrix:
 Charge =  0 Multiplicity = 1

                         Standard orientation:
 ---------------------------------------------------------------------
 Center     Atomic      Atomic             Coordinates (Angstroms)
 Number     Number       Type             X           Y           Z
 ---------------------------------------------------------------------
      1         12           0       -8.435055    0.597432   -0.456292
      2          6           0       -7.067571   -0.642790    2.517444
      3          6           0       -6.572625    3.448707    0.145587
      4          6           0       -9.405656    1.728432   -3.443059
      5          6           0       -9.525240   -2.622220   -1.272210
      6          7           0       -6.751665    1.222582    1.175672
      7          6           0       -6.490950    0.582249    2.331473
      8          6           0       -5.504784    1.307891    3.214957
      9          6           0       -5.643842    2.716372    2.521145
     10          6           0       -6.312621    2.497421    1.167952
     11          6           0       -6.553965    3.639543    3.374507
     12          6           0       -4.148908    0.591176    3.244925
     13          6           0       -3.577376   -0.024531    1.950808
     14          1           0       -2.126691    0.318577    1.633518
     15          7           0       -8.063270    2.322632   -1.490806
     16          6           0       -7.373538    3.402222   -1.006169
     17          6           0       -7.740144    4.590249   -1.788035
     18          6           0       -8.451551    4.109925   -2.959379
     19          6           0       -8.675100    2.667093   -2.638926
     20          6           0       -7.094892    6.007424   -1.541120
     21          6           0       -8.852957    4.926424   -4.190344
     22          8           0       -8.707496    6.116929   -4.207525
     23          6           0       -9.478403    4.244507   -5.372832
     24          7           0       -9.165636   -0.437479   -2.222859
     25          6           0       -9.620908    0.272932   -3.349087
     26          6           0      -10.316776   -0.658759   -4.429369
     27          6           0      -10.384708   -2.052683   -3.641363
     28          6           0       -9.679323   -1.683665   -2.256738
     29          6           0      -11.715540   -0.225046   -5.098073
     30          6           0       -9.754680   -3.333988   -4.355722
     31          6           0      -10.581825   -4.658794   -3.972674
     32          7           0       -8.398571   -1.296738    0.425887
     33          6           0       -8.963555   -2.485567    0.011070
     34          6           0       -8.797867   -3.484899    1.059477
     35          6           0       -8.117592   -2.841952    2.125685
     36          6           0       -7.822700   -1.512374    1.653032
     37          6           0       -9.400407   -4.865139    1.087118
     38          6           0       -7.466410   -2.950437    3.471796
     39          8           0       -7.295773   -3.915651    4.182673
     40          6           0       -6.839575   -1.517550    3.745318
     41          6           0       -7.517863   -0.980599    4.975632
     42          8           0       -7.247027   -1.350924    6.145379
     43          8           0       -8.356739    0.067181    4.624618
     44          6           0       -8.887763    0.818497    5.712529
     45          1           0       -6.058979    4.383813    0.378764
     46          1           0       -9.942339    2.032439   -4.344426
     47          1           0      -10.044876   -3.565096   -1.455711
     48          1           0       -5.892301    1.445716    4.224205
     49          1           0       -4.733616    3.283463    2.330979
     50          1           0       -7.085159    4.272203    2.662986
     51          1           0       -5.968301    4.163405    4.128612
     52          1           0       -7.406151    3.207451    3.900019
     53          1           0       -4.289057   -0.270523    3.896833
     54          1           0       -3.416631    1.272424    3.678419
     55          1           0       -4.153257    0.343194    1.101908
     56          1           0       -3.611547   -1.109119    2.049672
     57          1           0       -6.081346    6.126999   -1.924872
     58          1           0       -7.099292    6.228075   -0.473643
     59          1           0       -7.658875    6.861690   -1.913856
     60          1           0       -9.569823    4.913982   -6.228760
     61          1           0      -10.465054    3.833118   -5.158870
     62          1           0       -8.704235    3.528158   -5.649083
     63          1           0       -9.530897   -0.670082   -5.183660
     64          1           0      -11.413448   -2.309259   -3.390101
     65          1           0      -11.476995    0.351076   -5.991339
     66          1           0      -12.322817    0.362125   -4.409756
     67          1           0      -12.276790   -1.128538   -5.337280
     68          1           0       -8.762463   -3.553608   -3.961710
     69          1           0       -9.675956   -3.184573   -5.432843
     70          1           0       -9.949219   -5.376994   -3.450885
     71          1           0      -10.957053   -5.126329   -4.882542
     72          1           0      -11.402697   -4.582574   -3.260442
     73          1           0       -9.041888   -5.413198    0.216456
     74          1           0      -10.486489   -4.790872    1.028200
     75          1           0       -9.095813   -5.433661    1.965661
     76          1           0       -5.814087   -1.735393    4.042848
     77          1           0       -9.448202    1.667528    5.321848
     78          1           0       -8.111700    1.069029    6.435966
     79          1           0       -9.668649    0.273953    6.243300
     80         12           0        8.726898   -0.052467   -0.116476
     81          6           0        6.368793   -2.481927    0.291838
     82          6           0        6.865084    2.005608    2.077128
     83          6           0       10.892334    2.441252   -0.669180
     84          6           0       10.483444   -2.163683   -2.179505
     85          7           0        6.700865   -0.081457    0.796721
     86          6           0        5.966000   -1.268429    0.911308
     87          6           0        4.690440   -1.080965    1.780652
     88          6           0        4.919914    0.385421    2.233697
     89          6           0        6.226356    0.850378    1.616159
     90          6           0        3.800065    1.496765    2.052399
     91          6           0        4.504982   -2.079977    3.006267
     92          6           0        3.218195   -1.770880    3.817513
     93          1           0        2.115827   -2.812616    3.621512
     94          7           0        8.879445    1.976992    0.666600
     95          6           0        8.147377    2.496221    1.712643
     96          6           0        8.627964    3.861298    1.891533
     97          6           0        9.800034    3.977655    1.077003
     98          6           0        9.932110    2.772818    0.319914
     99          6           0        7.969443    4.781056    2.846002
    100          6           0       10.636956    5.299618    0.964919
    101          8           0       11.525543    5.484762    0.108727
    102          6           0       10.332518    6.461638    1.874048
    103          7           0       10.332965    0.117731   -1.218826
    104          6           0       11.125107    1.295392   -1.325627
    105          6           0       12.107045    1.184958   -2.469958
    106          6           0       12.247277   -0.334019   -2.548901
    107          6           0       10.975688   -0.867836   -1.904838
    108          6           0       11.572212    1.817997   -3.798290
    109          6           0       13.450589   -0.866656   -1.739195
    110          6           0       14.803069   -0.894524   -2.399124
    111          7           0        8.541248   -1.949696   -0.901701
    112          6           0        9.376952   -2.743211   -1.590926
    113          6           0        8.754056   -4.015653   -1.807109
    114          6           0        7.583087   -3.987731   -1.079870
    115          6           0        7.511085   -2.711100   -0.501100
    116          6           0        9.403911   -5.103739   -2.588578
    117          6           0        6.472541   -4.761510   -0.720007
    118          8           0        6.172750   -5.912782   -0.971155
    119          6           0        5.606635   -3.794500    0.216283
    120          6           0        4.246974   -3.682186   -0.376958
    121          8           0        3.946694   -3.148936   -1.417273
    122          8           0        3.312445   -4.129609    0.467049
    123          6           0        1.876974   -4.019870   -0.000542
    124          1           0        6.324551    2.516480    2.876502
    125          1           0       11.610279    3.242795   -0.854151
    126          1           0       11.042960   -2.931845   -2.716734
    127          1           0        3.818361   -1.136510    1.129041
    128          1           0        5.130248    0.405147    3.303448
    129          1           0        3.720195    2.236620    2.849295
    130          1           0        2.861948    1.029620    1.752181
    131          1           0        4.155788    2.092950    1.212193
    132          1           0        5.438596   -1.975431    3.557657
    133          1           0        4.462492   -3.095732    2.613368
    134          1           0        2.898316   -0.745754    3.630701
    135          1           0        3.495072   -1.835104    4.869394
    136          1           0        7.479454    5.566000    2.269599
    137          1           0        8.740491    5.066251    3.561736
    138          1           0        7.228534    4.251587    3.445189
    139          1           0       11.046760    7.266170    1.698840
    140          1           0       10.574218    6.083466    2.868309
    141          1           0        9.313444    6.847306    1.861333
    142          1           0       13.048145    1.681060   -2.231040
    143          1           0       12.313839   -0.710425   -3.569474
    144          1           0       10.809380    1.187938   -4.254034
    145          1           0       12.394116    1.987044   -4.494496
    146          1           0       11.159070    2.783845   -3.509610
    147          1           0       13.275689   -1.857450   -1.321791
    148          1           0       13.546398   -0.296409   -0.815108
    149          1           0       15.457161   -0.269017   -1.792337
    150          1           0       14.639705   -0.325054   -3.314196
    151          1           0       15.186252   -1.893700   -2.606929
    152          1           0        9.903490   -5.803782   -1.920034
    153          1           0       10.028457   -4.829922   -3.439467
    154          1           0        8.579185   -5.664156   -3.029215
    155          1           0        5.544104   -4.245449    1.206921
    156          1           0        1.728398   -2.991233   -0.329808
    157          1           0        1.151230   -4.199153    0.793146
    158          1           0        1.742025   -4.721937   -0.823630
 ---------------------------------------------------------------------

 SCF Done:  E(RwB97XD) =  -4070.63045660     A.U. after   18 cycles

 Excitation energies and oscillator strengths:

 Excited State   1:      Singlet-A      1.5970 eV  776.37 nm  f=0.3573  <S**2>=0.000
     309 -> 316        0.16536
     312 -> 313        0.68761
     309 <- 316        0.11224
 This state for optimization and/or second-order correction.
 Total Energy, E(TD-HF/TD-DFT) =  -4070.57176874
 Copying the excited state density for this state as the 1-particle RhoCI density.

 Excited State   2:      Singlet-A      1.6949 eV  731.50 nm  f=0.3667  <S**2>=0.000
     310 -> 315        0.19911
     311 -> 314        0.67794
     310 <- 315        0.11855

 Excited State   3:      Singlet-A      2.1841 eV  567.66 nm  f=0.1095  <S**2>=0.000
     310 -> 314        0.62591
     311 -> 315       -0.29717

 Excited State   4:      Singlet-A      2.1951 eV  564.81 nm  f=0.1024  <S**2>=0.000
     309 -> 313        0.62960
     312 -> 316       -0.28608

 Excited State   5:      Singlet-A      3.4372 eV  360.72 nm  f=0.0000  <S**2>=0.000
     312 -> 314        0.70684

 The electronic state is 1-A.
 Alpha  occ. eigenvalues --  -46.96854 -46.93790 -19.31388 -19.29995 -19.25133
 Alpha  occ. eigenvalues --  -19.24702 -19.24409 -19.24158 -19.23571 -19.23504
 Alpha  occ. eigenvalues --  -14.47266 -14.46952 -14.46546 -14.46305 -14.45239
 Alpha  occ. eigenvalues --  -14.44161 -14.43416 -14.43374 -10.43995 -10.42250
 Alpha  occ. eigenvalues --  -10.39942 -10.39369 -10.39121 -10.38917 -10.37060
 Alpha  occ. eigenvalues --  -10.36067 -10.36060 -10.35869 -10.35838 -10.35349
 Alpha  occ. eigenvalues --  -10.35322 -10.35081 -10.34658 -10.34452 -10.34336
 Alpha  occ. eigenvalues --  -10.34031 -10.33965 -10.33907 -10.33666 -10.33475
 Alpha  occ. eigenvalues --  -10.33371 -10.33293 -10.33188 -10.33093 -10.32976
 Alpha  occ. eigenvalues --  -10.32957 -10.32804 -10.32741 -10.32695 -10.32622
 Alpha  occ. eigenvalues --  -10.32576 -10.32574 -10.32272 -10.32254 -10.32210
 Alpha  occ. eigenvalues --  -10.32170 -10.32047 -10.32025 -10.31922 -10.31807
 Alpha  occ. eigenvalues --  -10.31788 -10.31713 -10.31687 -10.31451 -10.31345
 Alpha  occ. eigenvalues --  -10.31221 -10.31110 -10.31078 -10.30668 -10.30624
 Alpha  occ. eigenvalues --  -10.30490 -10.30379 -10.30348 -10.30320 -10.30256
 Alpha  occ. eigenvalues --  -10.30181 -10.30161 -10.30051 -10.30030 -10.29881
 Alpha  occ. eigenvalues --  -10.29643 -10.29546 -10.29453 -10.29447 -10.29034
 Alpha  occ. eigenvalues --  -10.28855  -3.22699  -3.19976  -1.96243  -1.95832
 Alpha  occ. eigenvalues --   -1.95650  -1.93575  -1.93119  -1.92951  -1.18957
 Alpha  occ. eigenvalues --   -1.18770  -1.13831  -1.13019  -1.12649  -1.10411
 Alpha  occ. eigenvalues --   -1.09393  -1.09218  -1.07453  -1.06933  -1.06079
 Alpha  occ. eigenvalues --   -1.05860  -1.05061  -1.05036  -1.04016  -1.03913
 Alpha  occ. eigenvalues --   -0.95278  -0.94602  -0.91091  -0.90891  -0.90603
 Alpha  occ. eigenvalues --   -0.90457  -0.90420  -0.89808  -0.89661  -0.89378
 Alpha  occ. eigenvalues --   -0.89055  -0.88426  -0.88091  -0.87770  -0.86905
 Alpha  occ. eigenvalues --   -0.86198  -0.85782  -0.85354  -0.84751  -0.84341
 Alpha  occ. eigenvalues --   -0.83894  -0.83426  -0.83064  -0.82873  -0.82511
 Alpha  occ. eigenvalues --   -0.82471  -0.80281  -0.79604  -0.79398  -0.79335
 Alpha  occ. eigenvalues --   -0.79067  -0.78789  -0.78429  -0.78050  -0.77406
 Alpha  occ. eigenvalues --   -0.77074  -0.75163  -0.74906  -0.74159  -0.73716
 Alpha  occ. eigenvalues --   -0.71987  -0.71463  -0.71353  -0.70823  -0.70364
 Alpha  occ. eigenvalues --   -0.70167  -0.69320  -0.67984  -0.67914  -0.67690
 Alpha  occ. eigenvalues --   -0.67022  -0.66965  -0.66822  -0.66764  -0.66557
 Alpha  occ. eigenvalues --   -0.66079  -0.65820  -0.63984  -0.62186  -0.62147
 Alpha  occ. eigenvalues --   -0.61952  -0.61395  -0.61083  -0.61055  -0.60796
 Alpha  occ. eigenvalues --   -0.60271  -0.60238  -0.59910  -0.59851  -0.59455
 Alpha  occ. eigenvalues --   -0.58465  -0.58377  -0.58151  -0.57880  -0.57609
 Alpha  occ. eigenvalues --   -0.57165  -0.56960  -0.56576  -0.56337  -0.56118
 Alpha  occ. eigenvalues --   -0.55794  -0.55329  -0.55247  -0.55231  -0.55100
 Alpha  occ. eigenvalues --   -0.54884  -0.54780  -0.54557  -0.54164  -0.54033
 Alpha  occ. eigenvalues --   -0.53739  -0.53662  -0.53514  -0.53441  -0.53201
 Alpha  occ. eigenvalues --   -0.53139  -0.52764  -0.52572  -0.52214  -0.52145
 Alpha  occ. eigenvalues --   -0.52109  -0.52003  -0.51878  -0.51800  -0.51740
 Alpha  occ. eigenvalues --   -0.51599  -0.51594  -0.51058  -0.51011  -0.50807
 Alpha  occ. eigenvalues --   -0.50674  -0.50602  -0.50416  -0.50107  -0.49928
 Alpha  occ. eigenvalues --   -0.49651  -0.49603  -0.49397  -0.49382  -0.49277
 Alpha  occ. eigenvalues --   -0.49021  -0.48986  -0.48777  -0.48734  -0.48382
 Alpha  occ. eigenvalues --   -0.48373  -0.48322  -0.48157  -0.47881  -0.47759
 Alpha  occ. eigenvalues --   -0.47711  -0.47641  -0.47362  -0.47357  -0.47218
 Alpha  occ. eigenvalues --   -0.47145  -0.46973  -0.46568  -0.46304  -0.46087
 Alpha  occ. eigenvalues --   -0.46006  -0.45945  -0.45740  -0.45620  -0.45597
 Alpha  occ. eigenvalues --   -0.45480  -0.45399  -0.45328  -0.45212  -0.45040
 Alpha  occ. eigenvalues --   -0.44856  -0.44729  -0.44359  -0.44297  -0.44046
 Alpha  occ. eigenvalues --   -0.43847  -0.43721  -0.43668  -0.43470  -0.43392
 Alpha  occ. eigenvalues --   -0.43219  -0.43045  -0.42760  -0.42468  -0.42467
 Alpha  occ. eigenvalues --   -0.42219  -0.41925  -0.41905  -0.41649  -0.41098
 Alpha  occ. eigenvalues --   -0.41028  -0.40256  -0.40191  -0.39871  -0.39505
 Alpha  occ. eigenvalues --   -0.39457  -0.39323  -0.38949  -0.38941  -0.38549
 Alpha  occ. eigenvalues --   -0.38492  -0.38398  -0.36810  -0.36534  -0.36182
 Alpha  occ. eigenvalues --   -0.35897  -0.35506  -0.35380  -0.33676  -0.33610
 Alpha  occ. eigenvalues --   -0.33316  -0.33203  -0.33061  -0.32917  -0.32744
 Alpha  occ. eigenvalues --   -0.32382  -0.31978  -0.31185  -0.26472  -0.26075
 Alpha  occ. eigenvalues --   -0.23332  -0.22860
 Alpha virt. eigenvalues --   -0.07358  -0.07101  -0.00291   0.00441   0.02064
 Alpha virt. eigenvalues --    0.02516   0.03818   0.04030   0.04534   0.06449
 Alpha virt. eigenvalues --    0.06510   0.07424   0.07774   0.08110   0.08322

 Mulliken charges:
               1
     1  Mg   0.954673
     2  C    0.126655
     3  C   -0.086996
     4  C   -0.102331
     5  C   -0.086650
     6  N   -0.280344
     7  C   -0.106856
     8  C    0.025056
     9  C   -0.115569
    10  C    0.019617
    11  C    0.018044
    12  C    0.021364
    13  C   -0.131765
    14  H    0.029118
    15  N   -0.458851
    16  C    0.175684
    17  C   -0.148349
    18  C   -0.099592
    19  C    0.211643
    20  C    0.047840
    21  C    0.038438
    22  O   -0.200330
    23  C   -0.013133
    24  N   -0.368050
    25  C    0.007831
    26  C   -0.063074
    27  C   -0.084195
    28  C    0.069819
    29  C    0.004979
    30  C   -0.009930
    31  C   -0.094204
    32  N   -0.439477
    33  C    0.138794
    34  C   -0.213600
    35  C   -0.016336
    36  C    0.078567
    37  C    0.071670
    38  C    0.139678
    39  O   -0.173550
    40  C   -0.211236
    41  C    0.295965
    42  O   -0.267064
    43  O   -0.351991
    44  C    0.141241
    45  H    0.007030
    46  H   -0.024638
    47  H   -0.020468
    48  H    0.029528
    49  H    0.027774
    50  H    0.025010
    51  H    0.049772
    52  H    0.027689
    53  H    0.036887
    54  H    0.045324
    55  H    0.072053
    56  H    0.059558
    57  H    0.063484
    58  H    0.025640
    59  H    0.056310
    60  H    0.047406
    61  H    0.080210
    62  H    0.054019
    63  H    0.054124
    64  H    0.040420
    65  H    0.049703
    66  H    0.047490
    67  H    0.050746
    68  H    0.049759
    69  H    0.044418
    70  H    0.038483
    71  H    0.044825
    72  H    0.039999
    73  H    0.037675
    74  H    0.052238
    75  H    0.058874
    76  H    0.084163
    77  H    0.049706
    78  H    0.054704
    79  H    0.046886
    80  Mg   0.970976
    81  C   -0.006164
    82  C   -0.072421
    83  C   -0.076451
    84  C   -0.099794
    85  N   -0.341019
    86  C   -0.009064
    87  C   -0.022745
    88  C   -0.153471
    89  C    0.065213
    90  C    0.013377
    91  C   -0.005957
    92  C   -0.112088
    93  H    0.050165
    94  N   -0.435226
    95  C    0.162576
    96  C   -0.218492
    97  C   -0.078065
    98  C    0.134357
    99  C    0.083637
   100  C    0.066526
   101  O   -0.256789
   102  C   -0.006778
   103  N   -0.468317
   104  C    0.098694
   105  C   -0.069452
   106  C   -0.080539
   107  C    0.140152
   108  C    0.040760
   109  C   -0.043652
   110  C   -0.003950
   111  N   -0.428044
   112  C    0.106801
   113  C   -0.178857
   114  C    0.017768
   115  C    0.137191
   116  C    0.064764
   117  C    0.098793
   118  O   -0.191397
   119  C   -0.123582
   120  C    0.249355
   121  O   -0.247312
   122  O   -0.362835
   123  C    0.138961
   124  H   -0.004354
   125  H    0.019740
   126  H   -0.001848
   127  H    0.044969
   128  H    0.034839
   129  H    0.041602
   130  H    0.043557
   131  H    0.037338
   132  H    0.035144
   133  H    0.054987
   134  H    0.050253
   135  H    0.053140
   136  H    0.065427
   137  H    0.049262
   138  H    0.025587
   139  H    0.051092
   140  H    0.045803
   141  H    0.060615
   142  H    0.027946
   143  H    0.022947
   144  H    0.041778
   145  H    0.041943
   146  H    0.041504
   147  H    0.022382
   148  H    0.020648
   149  H    0.035268
   150  H    0.017817
   151  H    0.051201
   152  H    0.062426
   153  H    0.044818
   154  H    0.051508
   155  H    0.074204
   156  H    0.058003
   157  H    0.061422
   158  H    0.069418
 Sum of Mulliken charges =  -0.00000

 Dipole moment (field-independent basis, Debye):
    X=             -4.1047    Y=              3.1184    Z=             -0.3554  Tot=              5.1672
 Quadrupole moment (field-independent basis, Debye-Ang):
   XX=           -437.8812   YY=           -554.8282   ZZ=           -507.0081
   XY=            -13.2916   XZ=             47.6212   YZ=             55.0485

 Normal termination of Gaussian 16 at Sun Sep 19 20:39:52 2021.
