 Gaussian 16, Revision A.03,
 Gaussian 16:  ES64L-G16RevA.03 25-Dec-2016

 --------------------------------
 #p wB97XD/Def2SVP td=(nstates=5)
 --------------------------------

 --------------------------------
 TDDFT excited states in gaussian
 --------------------------------
 Symbolic Z-matrix:
 Charge =  0 Multiplicity = 1

                         Standard orientation:
 ---------------------------------------------------------------------
 Center     Atomic      Atomic             Coordinates (Angstroms)
 Number     Number       Type             X           Y           Z
 ---------------------------------------------------------------------
      1         12           0        0.665963   -0.040044   -0.161967
      2          6           0       -2.793132    0.332417   -0.315146
      3          6           0        0.269200   -3.455825   -0.062608
      4          6           0        4.011487   -0.219310    0.259557
      5          6           0        0.923746    3.512072    0.130819
      6          7           0       -1.069088   -1.349208   -0.077196
      7          6           0       -2.381577   -1.005381   -0.180071
      8          6           0       -3.280160   -2.245601   -0.269996
      9          6           0       -2.228306   -3.417756   -0.033367
     10          6           0       -0.895561   -2.662803   -0.074834
     11          6           0       -2.438145   -4.114677    1.305526
     12          6           0       -3.960285   -2.501389   -1.661991
     13          6           0       -5.268840   -3.248105   -1.666218
     14          1           0       -5.682920   -3.988171   -0.473921
     15          7           0        1.937501   -1.597136   -0.027901
     16          6           0        1.564498   -2.955779    0.002667
     17          6           0        2.788643   -3.710159   -0.063830
     18          6           0        3.895093   -2.824366   -0.026125
     19          6           0        3.307160   -1.465988    0.076027
     20          6           0        2.840040   -5.217748    0.062372
     21          6           0        5.342696   -3.074292   -0.106536
     22          8           0        6.178781   -2.230709    0.137788
     23          6           0        5.886242   -4.526695   -0.362646
     24          7           0        2.333576    1.450943   -0.011127
     25          6           0        3.570958    1.100392    0.175169
     26          6           0        4.495181    2.342899    0.349895
     27          6           0        3.557947    3.531686    0.238783
     28          6           0        2.147690    2.843247    0.163606
     29          6           0        5.361129    2.211657    1.690092
     30          6           0        3.894441    4.460357   -0.947063
     31          6           0        4.781340    5.724940   -0.641885
     32          7           0       -0.538479    1.576813   -0.354086
     33          6           0       -0.310855    2.968063   -0.210566
     34          6           0       -1.502919    3.704116   -0.396370
     35          6           0       -2.520516    2.658613   -0.356413
     36          6           0       -1.829681    1.413175   -0.365025
     37          6           0       -1.662370    5.203214   -0.220564
     38          6           0       -3.929115    2.513164   -0.326556
     39          8           0       -4.841751    3.328586   -0.369592
     40          6           0       -4.170425    0.864264   -0.388651
     41          6           0       -5.079967    0.558845    0.765047
     42          8           0       -4.817282    0.804430    1.947052
     43          8           0       -6.354097    0.072379    0.346953
     44          6           0       -7.321483   -0.243799    1.443975
     45          1           0        0.068375   -4.529444   -0.032468
     46          1           0        5.045445   -0.364939    0.578080
     47          1           0        0.949635    4.602950    0.163412
     48          1           0       -3.991747   -2.163760    0.551918
     49          1           0       -2.285119   -4.198688   -0.791554
     50          1           0       -3.410971   -3.868696    1.730348
     51          1           0       -1.622924   -3.935325    2.007017
     52          1           0       -2.566714   -5.194052    1.224460
     53          1           0       -3.236654   -3.022674   -2.287695
     54          1           0       -4.044295   -1.528619   -2.147005
     55          1           0       -5.182843   -4.029940   -2.420509
     56          1           0       -6.073642   -2.552879   -1.905217
     57          1           0        3.318985   -5.555560    0.981328
     58          1           0        3.342392   -5.612116   -0.821919
     59          1           0        1.878374   -5.728687    0.106901
     60          1           0        5.863378   -5.025728    0.606486
     61          1           0        6.948131   -4.491805   -0.606490
     62          1           0        5.239427   -5.068719   -1.051456
     63          1           0        5.170755    2.263456   -0.502008
     64          1           0        3.493356    4.084964    1.174435
     65          1           0        5.198312    3.073039    2.337720
     66          1           0        6.437217    2.245151    1.518617
     67          1           0        4.988680    1.303013    2.164905
     68          1           0        2.936502    4.803773   -1.339185
     69          1           0        4.357715    3.834005   -1.709547
     70          1           0        4.114872    6.521823   -0.310004
     71          1           0        5.465906    6.087600   -1.408901
     72          1           0        5.304647    5.384557    0.251004
     73          1           0       -1.368824    5.597833   -1.192944
     74          1           0       -0.989109    5.588350    0.544349
     75          1           0       -2.604385    5.544176    0.210836
     76          1           0       -4.597803    0.609462   -1.359248
     77          1           0       -7.585573    0.645650    2.014889
     78          1           0       -7.046992   -1.005154    2.174594
     79          1           0       -8.177837   -0.532393    0.834492
 ---------------------------------------------------------------------

 SCF Done:  E(RwB97XD) =  -2035.33349907     A.U. after   19 cycles

 Excitation energies and oscillator strengths:

 Excited State   1:      Singlet-A      1.6919 eV  732.80 nm  f=0.3714  <S**2>=0.000
     155 ->158         0.17807
     156 ->157         0.68409
     155 <-158         0.11256
 This state for optimization and/or second-order correction.
 Total Energy, E(TD-HF/TD-DFT) =  -2035.27132185
 Copying the excited state density for this state as the 1-particle RhoCI density.

 Excited State   2:      Singlet-A      2.1733 eV  570.48 nm  f=0.1433  <S**2>=0.000
     155 ->157         0.64715
     156 ->158        -0.26321

 Excited State   3:      Singlet-A      3.3915 eV  365.57 nm  f=0.0264  <S**2>=0.000
     150 ->157         0.23739
     151 ->157         0.16036
     152 ->157         0.49386
     153 ->157         0.23431
     154 ->157        -0.20968
     156 ->158         0.22892

 Excited State   4:      Singlet-A      3.4293 eV  361.54 nm  f=0.0104  <S**2>=0.000
     150 ->157        -0.14445
     150 ->159        -0.12511
     151 ->157         0.57045
     151 ->159         0.26969
     151 ->160         0.14486

 Excited State   5:      Singlet-A      3.5102 eV  353.21 nm  f=0.0341  <S**2>=0.000
     153 ->157         0.51202
     153 ->159        -0.27299
     153 ->160         0.20984
     154 ->157         0.19989
     156 ->158        -0.16781

 The electronic state is 1-A.
 Alpha  occ. eigenvalues --  -46.94343 -19.29362 -19.24379 -19.24366 -19.23212
 Alpha  occ. eigenvalues --  -14.47288 -14.46254 -14.44861 -14.43915 -10.42912
 Alpha  occ. eigenvalues --  -10.39519 -10.38308 -10.35888 -10.35711 -10.35346
 Alpha  occ. eigenvalues --  -10.34921 -10.34876 -10.34841 -10.34676 -10.33977
 Alpha  occ. eigenvalues --  -10.32818 -10.32792 -10.32402 -10.32209 -10.32063
 Alpha  occ. eigenvalues --  -10.32062 -10.32004 -10.31874 -10.31844 -10.31789
 Alpha  occ. eigenvalues --  -10.31672 -10.31527 -10.31510 -10.30811 -10.30787
 Alpha  occ. eigenvalues --  -10.30468 -10.30288 -10.30285 -10.29890 -10.29745
 Alpha  occ. eigenvalues --  -10.29686 -10.29611 -10.28502  -3.20451  -1.94060
 Alpha  occ. eigenvalues --   -1.93574  -1.93441  -1.15572  -1.13424  -1.10807
 Alpha  occ. eigenvalues --   -1.08006  -1.07209  -1.05953  -1.05402  -1.04548
 Alpha  occ. eigenvalues --   -0.94038  -0.91224  -0.90846  -0.90359  -0.89795
 Alpha  occ. eigenvalues --   -0.89411  -0.88196  -0.86245  -0.84888  -0.84148
 Alpha  occ. eigenvalues --   -0.83454  -0.82339  -0.81985  -0.80805  -0.79185
 Alpha  occ. eigenvalues --   -0.78773  -0.77800  -0.77004  -0.75120  -0.73613
 Alpha  occ. eigenvalues --   -0.71571  -0.70912  -0.69955  -0.69318  -0.67725
 Alpha  occ. eigenvalues --   -0.67189  -0.66971  -0.66621  -0.63387  -0.62435
 Alpha  occ. eigenvalues --   -0.61607  -0.61336  -0.60546  -0.59747  -0.59317
 Alpha  occ. eigenvalues --   -0.58290  -0.57007  -0.56570  -0.55959  -0.55386
 Alpha  occ. eigenvalues --   -0.55157  -0.54894  -0.54444  -0.54283  -0.54231
 Alpha  occ. eigenvalues --   -0.53958  -0.53493  -0.52906  -0.52515  -0.52144
 Alpha  occ. eigenvalues --   -0.51777  -0.51651  -0.51496  -0.51213  -0.51012
 Alpha  occ. eigenvalues --   -0.50585  -0.50309  -0.50063  -0.49605  -0.49428
 Alpha  occ. eigenvalues --   -0.49207  -0.49073  -0.48849  -0.48620  -0.47757
 Alpha  occ. eigenvalues --   -0.47042  -0.46943  -0.46661  -0.46505  -0.46233
 Alpha  occ. eigenvalues --   -0.46089  -0.45820  -0.45288  -0.44954  -0.44826
 Alpha  occ. eigenvalues --   -0.44573  -0.44511  -0.43932  -0.43766  -0.43465
 Alpha  occ. eigenvalues --   -0.43191  -0.42694  -0.42182  -0.41784  -0.41332
 Alpha  occ. eigenvalues --   -0.40554  -0.39813  -0.39253  -0.38972  -0.38111
 Alpha  occ. eigenvalues --   -0.37778  -0.36462  -0.35918  -0.35556  -0.33856
 Alpha  occ. eigenvalues --   -0.33167  -0.32756  -0.31754  -0.31600  -0.26149
 Alpha  occ. eigenvalues --   -0.23394
 Alpha virt. eigenvalues --   -0.07423   0.00247   0.02235   0.04483   0.06835
 Alpha virt. eigenvalues --    0.06891   0.07882   0.08583   0.09592   0.10771
 Alpha virt. eigenvalues --    0.11701   0.12063   0.12839   0.13139   0.14072

 Mulliken charges:
               1
     1  Mg   0.981120
     2  C   -0.071172
     3  C   -0.108053
     4  C   -0.077265
     5  C   -0.077063
     6  N   -0.334015
     7  C    0.003358
     8  C   -0.040077
     9  C   -0.140260
    10  C    0.072986
    11  C    0.018693
    12  C    0.018225
    13  C   -0.105793
    14  H    0.036520
    15  N   -0.531816
    16  C    0.234434
    17  C   -0.151120
    18  C   -0.045509
    19  C    0.152393
    20  C    0.051898
    21  C    0.017184
    22  O   -0.224853
    23  C   -0.005318
    24  N   -0.321164
    25  C    0.055839
    26  C   -0.094114
    27  C   -0.043702
    28  C    0.027580
    29  C    0.014728
    30  C   -0.005372
    31  C   -0.042804
    32  N   -0.449200
    33  C    0.125047
    34  C   -0.138816
    35  C   -0.084708
    36  C    0.187843
    37  C    0.059657
    38  C    0.113517
    39  O   -0.211592
    40  C   -0.083747
    41  C    0.288675
    42  O   -0.260474
    43  O   -0.404782
    44  C    0.141051
    45  H    0.004104
    46  H    0.032117
    47  H    0.000459
    48  H    0.043803
    49  H    0.038830
    50  H    0.033330
    51  H    0.049262
    52  H    0.023054
    53  H    0.024373
    54  H    0.025365
    55  H    0.048826
    56  H    0.067394
    57  H    0.063494
    58  H    0.049979
    59  H    0.030852
    60  H    0.053345
    61  H    0.056019
    62  H    0.038216
    63  H    0.048302
    64  H    0.027376
    65  H    0.030057
    66  H    0.045677
    67  H    0.051204
    68  H    0.026150
    69  H    0.026672
    70  H    0.037035
    71  H    0.054578
    72  H    0.027403
    73  H    0.054138
    74  H    0.037458
    75  H    0.064148
    76  H    0.072262
    77  H    0.058581
    78  H    0.054417
    79  H    0.053760
 Sum of Mulliken charges =  -0.00000

 Dipole moment (field-independent basis, Debye):
    X=              2.5002    Y=             -5.2034    Z=             -0.9223  Tot=              5.8461
 Quadrupole moment (field-independent basis, Debye-Ang):
   XX=           -269.5468   YY=           -224.4855   ZZ=           -256.9937
   XY=             28.4229   XZ=              0.3674   YZ=              1.2285

 Normal termination of Gaussian 16 at Mon Sep 20 11:49:25 2021.
