 Gaussian 16, Revision A.03,
 Gaussian 16:  ES64L-G16RevA.03 25-Dec-2016

 --------------------------------
 #p wB97XD/Def2SVP td=(nstates=5)
 --------------------------------

 --------------------------------
 TDDFT excited states in gaussian
 --------------------------------
 Symbolic Z-matrix:
 Charge =  0 Multiplicity = 1

                         Standard orientation:
 ---------------------------------------------------------------------
 Center     Atomic      Atomic             Coordinates (Angstroms)
 Number     Number       Type             X           Y           Z
 ---------------------------------------------------------------------
      1         12           0      -22.814482    0.545588    0.244534
      2          6           0      -21.596944   -2.412356   -1.174203
      3          6           0      -21.473421    2.330479   -2.343193
      4          6           0      -23.696654    3.318544    1.817328
      5          6           0      -23.998065   -1.423072    2.983134
      6          7           0      -21.617296   -0.012845   -1.534983
      7          6           0      -21.277718   -1.268729   -1.986800
      8          6           0      -20.754467   -1.198455   -3.409553
      9          6           0      -20.477332    0.343922   -3.609922
     10          6           0      -21.341829    0.914967   -2.434634
     11          6           0      -19.006916    0.721781   -3.484143
     12          6           0      -21.738476   -1.946408   -4.381237
     13          6           0      -21.395755   -1.744235   -5.883366
     14          1           0      -19.935956   -1.528770   -6.224693
     15          7           0      -22.633455    2.478757   -0.196584
     16          6           0      -21.954244    3.054463   -1.262914
     17          6           0      -21.969295    4.526015   -1.188782
     18          6           0      -22.666789    4.794714    0.028998
     19          6           0      -23.019356    3.499032    0.603507
     20          6           0      -21.400007    5.398890   -2.243640
     21          6           0      -22.958184    6.157280    0.602992
     22          8           0      -23.622849    6.306343    1.665680
     23          6           0      -22.536314    7.412563   -0.111406
     24          7           0      -23.780423    0.887565    2.129637
     25          6           0      -24.012320    2.146602    2.501899
     26          6           0      -24.595701    2.187616    3.982476
     27          6           0      -24.659004    0.611496    4.390869
     28          6           0      -24.104491   -0.017482    3.111954
     29          6           0      -23.628824    3.064130    4.879566
     30          6           0      -26.123766    0.061669    4.665300
     31          6           0      -26.659523    0.254553    6.113059
     32          7           0      -22.773844   -1.437370    0.866432
     33          6           0      -23.387684   -2.138172    1.938025
     34          6           0      -23.145755   -3.637931    1.772326
     35          6           0      -22.390101   -3.791513    0.614351
     36          6           0      -22.261974   -2.420154    0.058631
     37          6           0      -23.650924   -4.749568    2.637759
     38          6           0      -21.768025   -4.723598   -0.296650
     39          8           0      -21.658130   -5.953611   -0.277000
     40          6           0      -21.375604   -3.881230   -1.609876
     41          6           0      -19.968389   -4.161028   -2.085569
     42          8           0      -18.994078   -3.588362   -1.678078
     43          8           0      -19.972269   -4.998469   -3.223936
     44          6           0      -18.764320   -5.000622   -4.062731
     45          1           0      -20.952479    2.756487   -3.203610
     46          1           0      -23.971462    4.237954    2.338798
     47          1           0      -24.239249   -2.069842    3.829401
     48          1           0      -19.818510   -1.754788   -3.440551
     49          1           0      -20.870256    0.777325   -4.530203
     50          1           0      -18.751273    1.218637   -4.419907
     51          1           0      -18.439642   -0.177041   -3.243533
     52          1           0      -18.838978    1.535342   -2.778844
     53          1           0      -22.704009   -1.671555   -3.957759
     54          1           0      -21.633065   -3.002741   -4.136246
     55          1           0      -21.999033   -0.878648   -6.157220
     56          1           0      -21.731238   -2.627729   -6.426309
     57          1           0      -20.587586    5.899586   -1.717255
     58          1           0      -22.130784    6.078848   -2.680688
     59          1           0      -20.921276    4.947152   -3.113406
     60          1           0      -23.062271    7.470509   -1.063367
     61          1           0      -21.465205    7.212893   -0.161522
     62          1           0      -22.651090    8.346092    0.438760
     63          1           0      -25.582449    2.607055    3.782437
     64          1           0      -23.916461    0.244795    5.100848
     65          1           0      -22.753561    3.450456    4.357577
     66          1           0      -23.258419    2.468763    5.714526
     67          1           0      -24.210906    3.941599    5.159669
     68          1           0      -26.271399   -0.940969    4.265039
     69          1           0      -26.782968    0.664622    4.041643
     70          1           0      -27.602885    0.792601    6.026905
     71          1           0      -25.891419    0.756696    6.701395
     72          1           0      -26.872921   -0.696976    6.600625
     73          1           0      -24.437805   -5.242856    2.066743
     74          1           0      -24.021620   -4.352994    3.583738
     75          1           0      -22.957831   -5.550842    2.893201
     76          1           0      -22.112411   -4.147703   -2.367087
     77          1           0      -18.056701   -5.632983   -3.527205
     78          1           0      -18.451439   -3.982029   -4.293128
     79          1           0      -19.061229   -5.432640   -5.018027
     80         12           0       22.898694    0.491322   -0.283437
     81          6           0       21.078176   -2.443479    0.399278
     82          6           0       19.874764    1.917952   -1.239671
     83          6           0       24.416455    3.444270   -0.544326
     84          6           0       25.522861   -0.841760    1.555050
     85          7           0       20.700483   -0.204334   -0.226170
     86          6           0       20.174550   -1.467939   -0.040186
     87          6           0       18.767558   -1.669212   -0.562581
     88          6           0       18.390240   -0.272300   -1.110760
     89          6           0       19.689605    0.558161   -0.850538
     90          6           0       17.952069   -0.264378   -2.631450
     91          6           0       17.684020   -2.178982    0.489190
     92          6           0       17.847685   -1.752170    1.957063
     93          1           0       16.913676   -0.635425    2.510310
     94          7           0       22.247536    2.367704   -0.815302
     95          6           0       21.000060    2.740272   -1.228492
     96          6           0       21.012658    4.146919   -1.654125
     97          6           0       22.347690    4.616756   -1.460079
     98          6           0       23.073083    3.436177   -0.898296
     99          6           0       19.791564    4.872857   -2.206134
    100          6           0       22.673769    6.132813   -1.730939
    101          8           0       21.753638    6.865332   -2.066836
    102          6           0       24.136569    6.693294   -1.479700
    103          7           0       24.626181    1.212612    0.507708
    104          6           0       25.149119    2.446371    0.127157
    105          6           0       26.669458    2.625889    0.691757
    106          6           0       26.852218    1.223639    1.489578
    107          6           0       25.590478    0.497391    1.150304
    108          6           0       27.709510    2.849412   -0.445293
    109          6           0       27.046662    1.357090    3.060764
    110          6           0       28.236542    0.648461    3.726373
    111          7           0       23.328816   -1.335515    0.684429
    112          6           0       24.415352   -1.760502    1.405177
    113          6           0       24.141573   -3.123707    1.906843
    114          6           0       22.853023   -3.452337    1.406777
    115          6           0       22.406035   -2.292490    0.714246
    116          6           0       25.021478   -3.977684    2.777084
    117          6           0       21.822375   -4.506603    1.452870
    118          8           0       21.824393   -5.668328    1.885597
    119          6           0       20.695995   -3.930573    0.607730
    120          6           0       20.458552   -4.675637   -0.582524
    121          8           0       21.186818   -4.554927   -1.601525
    122          8           0       19.319622   -5.496119   -0.460062
    123          6           0       18.845277   -6.201451   -1.646349
    124          1           0       18.997970    2.365756   -1.711379
    125          1           0       24.988572    4.348135   -0.761866
    126          1           0       26.413795   -1.208908    2.067888
    127          1           0       18.910895   -2.417676   -1.340991
    128          1           0       17.669063    0.132848   -0.401851
    129          1           0       16.887357   -0.041593   -2.700589
    130          1           0       18.171334   -1.262958   -3.010372
    131          1           0       18.489776    0.497352   -3.196998
    132          1           0       17.841417   -3.257378    0.444496
    133          1           0       16.686967   -1.949860    0.112343
    134          1           0       18.873319   -1.437863    2.153259
    135          1           0       17.735124   -2.638329    2.580288
    136          1           0       19.309024    5.553747   -1.504926
    137          1           0       19.127059    4.182699   -2.726107
    138          1           0       20.063553    5.487537   -3.064029
    139          1           0       24.826072    5.998363   -1.959630
    140          1           0       24.288599    6.731275   -0.401351
    141          1           0       24.252864    7.750923   -1.716338
    142          1           0       26.668863    3.559882    1.252892
    143          1           0       27.683434    0.698547    1.018440
    144          1           0       28.134857    1.877060   -0.692836
    145          1           0       28.453935    3.605509   -0.195527
    146          1           0       27.290564    3.282567   -1.353418
    147          1           0       26.105158    1.048627    3.516341
    148          1           0       27.189782    2.432475    3.166351
    149          1           0       28.085294    0.512214    4.797549
    150          1           0       29.055121    1.340282    3.529127
    151          1           0       28.303700   -0.305317    3.202599
    152          1           0       25.628404   -3.257125    3.324632
    153          1           0       25.654928   -4.477033    2.043969
    154          1           0       24.501929   -4.734214    3.365896
    155          1           0       19.855738   -3.998569    1.298352
    156          1           0       19.497622   -6.964940   -2.070260
    157          1           0       18.616632   -5.486497   -2.437251
    158          1           0       17.846559   -6.566328   -1.405942
 ---------------------------------------------------------------------

 SCF Done:  E(RwB97XD) =  -4070.61644511     A.U. after   19 cycles

 Excitation energies and oscillator strengths:

 Excited State   1:      Singlet-A      1.6549 eV  749.21 nm  f=0.3468  <S**2>=0.000
     310 -> 315        0.20535
     312 -> 314        0.67730
     310 <- 315        0.12132
 This state for optimization and/or second-order correction.
 Total Energy, E(TD-HF/TD-DFT) =  -4070.55563005
 Copying the excited state density for this state as the 1-particle RhoCI density.

 Excited State   2:      Singlet-A      1.6637 eV  745.25 nm  f=0.4061  <S**2>=0.000
     309 -> 316        0.18670
     311 -> 313        0.68217
     309 <- 316        0.11695

 Excited State   3:      Singlet-A      2.2347 eV  554.81 nm  f=0.0335  <S**2>=0.000
     310 -> 314        0.58749
     312 -> 315       -0.38607

 Excited State   4:      Singlet-A      2.2612 eV  548.31 nm  f=0.0697  <S**2>=0.000
     309 -> 313        0.61504
     311 -> 316       -0.33674

 Excited State   5:      Singlet-A      3.3775 eV  367.09 nm  f=0.7590  <S**2>=0.000
     302 -> 314       -0.13145
     310 -> 314        0.37257
     312 -> 315        0.57837
     310 <- 314       -0.11395

 The electronic state is 1-A.
 Alpha  occ. eigenvalues --  -46.95289 -46.94420 -19.31027 -19.29221 -19.25227
 Alpha  occ. eigenvalues --  -19.25205 -19.24653 -19.24269 -19.24263 -19.23457
 Alpha  occ. eigenvalues --  -14.47298 -14.46741 -14.46662 -14.46124 -14.44583
 Alpha  occ. eigenvalues --  -14.44566 -14.44509 -14.43903 -10.43895 -10.43283
 Alpha  occ. eigenvalues --  -10.40515 -10.39584 -10.39391 -10.39239 -10.35979
 Alpha  occ. eigenvalues --  -10.35848 -10.35492 -10.35427 -10.35012 -10.34942
 Alpha  occ. eigenvalues --  -10.34762 -10.34664 -10.34625 -10.34589 -10.34391
 Alpha  occ. eigenvalues --  -10.34373 -10.34370 -10.34176 -10.34111 -10.33904
 Alpha  occ. eigenvalues --  -10.33596 -10.33495 -10.33411 -10.33370 -10.33244
 Alpha  occ. eigenvalues --  -10.32973 -10.32620 -10.32567 -10.32523 -10.32363
 Alpha  occ. eigenvalues --  -10.32354 -10.32351 -10.32296 -10.32269 -10.32247
 Alpha  occ. eigenvalues --  -10.32136 -10.31891 -10.31810 -10.31807 -10.31756
 Alpha  occ. eigenvalues --  -10.31701 -10.31620 -10.31572 -10.31363 -10.31258
 Alpha  occ. eigenvalues --  -10.31116 -10.31032 -10.30989 -10.30762 -10.30686
 Alpha  occ. eigenvalues --  -10.30671 -10.30640 -10.30491 -10.30448 -10.30380
 Alpha  occ. eigenvalues --  -10.30309 -10.30087 -10.30056 -10.29865 -10.29705
 Alpha  occ. eigenvalues --  -10.29622 -10.29430 -10.29426 -10.29233 -10.29199
 Alpha  occ. eigenvalues --  -10.29199  -3.21355  -3.20518  -1.94900  -1.94495
 Alpha  occ. eigenvalues --   -1.94329  -1.94119  -1.93632  -1.93521  -1.17624
 Alpha  occ. eigenvalues --   -1.17146  -1.12652  -1.11380  -1.11297  -1.10027
 Alpha  occ. eigenvalues --   -1.09987  -1.09222  -1.06329  -1.06158  -1.05601
 Alpha  occ. eigenvalues --   -1.05481  -1.04827  -1.04612  -1.03908  -1.03407
 Alpha  occ. eigenvalues --   -0.95136  -0.93583  -0.91063  -0.90855  -0.90719
 Alpha  occ. eigenvalues --   -0.90436  -0.89959  -0.89751  -0.89490  -0.88730
 Alpha  occ. eigenvalues --   -0.88647  -0.88242  -0.88019  -0.87543  -0.86464
 Alpha  occ. eigenvalues --   -0.86155  -0.85789  -0.84849  -0.84692  -0.84120
 Alpha  occ. eigenvalues --   -0.83817  -0.83578  -0.82959  -0.82693  -0.82051
 Alpha  occ. eigenvalues --   -0.81962  -0.80943  -0.80099  -0.79348  -0.79162
 Alpha  occ. eigenvalues --   -0.78898  -0.78702  -0.78450  -0.77702  -0.76866
 Alpha  occ. eigenvalues --   -0.76483  -0.74326  -0.74071  -0.73733  -0.73439
 Alpha  occ. eigenvalues --   -0.71347  -0.71240  -0.70875  -0.70515  -0.70373
 Alpha  occ. eigenvalues --   -0.70292  -0.69088  -0.68831  -0.67697  -0.67410
 Alpha  occ. eigenvalues --   -0.67194  -0.67116  -0.66587  -0.66190  -0.65916
 Alpha  occ. eigenvalues --   -0.65766  -0.64438  -0.63276  -0.62662  -0.62245
 Alpha  occ. eigenvalues --   -0.61604  -0.61470  -0.61033  -0.60704  -0.60650
 Alpha  occ. eigenvalues --   -0.59739  -0.59725  -0.59525  -0.59206  -0.58764
 Alpha  occ. eigenvalues --   -0.58133  -0.58116  -0.57822  -0.57536  -0.56885
 Alpha  occ. eigenvalues --   -0.56530  -0.56368  -0.56155  -0.56134  -0.55885
 Alpha  occ. eigenvalues --   -0.55718  -0.55604  -0.55202  -0.54992  -0.54503
 Alpha  occ. eigenvalues --   -0.54447  -0.54306  -0.54148  -0.54060  -0.53834
 Alpha  occ. eigenvalues --   -0.53649  -0.53487  -0.53356  -0.53159  -0.53097
 Alpha  occ. eigenvalues --   -0.52888  -0.52792  -0.52660  -0.52396  -0.52241
 Alpha  occ. eigenvalues --   -0.52038  -0.51949  -0.51462  -0.51379  -0.51324
 Alpha  occ. eigenvalues --   -0.51256  -0.51237  -0.51188  -0.50920  -0.50909
 Alpha  occ. eigenvalues --   -0.50780  -0.50481  -0.50432  -0.50268  -0.50078
 Alpha  occ. eigenvalues --   -0.50057  -0.50023  -0.49359  -0.49274  -0.49196
 Alpha  occ. eigenvalues --   -0.48784  -0.48553  -0.48382  -0.48171  -0.48105
 Alpha  occ. eigenvalues --   -0.48085  -0.48014  -0.47684  -0.47675  -0.47513
 Alpha  occ. eigenvalues --   -0.47299  -0.47139  -0.47096  -0.46900  -0.46771
 Alpha  occ. eigenvalues --   -0.46727  -0.46626  -0.46575  -0.46469  -0.46125
 Alpha  occ. eigenvalues --   -0.46106  -0.45915  -0.45874  -0.45419  -0.45159
 Alpha  occ. eigenvalues --   -0.45069  -0.45018  -0.45001  -0.44886  -0.44838
 Alpha  occ. eigenvalues --   -0.44652  -0.44478  -0.44357  -0.44226  -0.44179
 Alpha  occ. eigenvalues --   -0.44102  -0.44051  -0.43551  -0.43493  -0.43299
 Alpha  occ. eigenvalues --   -0.42961  -0.42827  -0.42491  -0.42256  -0.42149
 Alpha  occ. eigenvalues --   -0.42086  -0.41766  -0.41602  -0.41119  -0.40958
 Alpha  occ. eigenvalues --   -0.40845  -0.40469  -0.40104  -0.39900  -0.39602
 Alpha  occ. eigenvalues --   -0.39465  -0.39159  -0.38989  -0.38829  -0.38642
 Alpha  occ. eigenvalues --   -0.38256  -0.37808  -0.36744  -0.36488  -0.36314
 Alpha  occ. eigenvalues --   -0.36142  -0.35477  -0.35413  -0.33541  -0.33480
 Alpha  occ. eigenvalues --   -0.33241  -0.33069  -0.33020  -0.32598  -0.32453
 Alpha  occ. eigenvalues --   -0.32448  -0.32235  -0.31768  -0.26073  -0.25915
 Alpha  occ. eigenvalues --   -0.22640  -0.22223
 Alpha virt. eigenvalues --   -0.06510  -0.06241  -0.00243   0.00110   0.01833
 Alpha virt. eigenvalues --    0.02339   0.04101   0.04253   0.04920   0.05577
 Alpha virt. eigenvalues --    0.06310   0.06701   0.07489   0.07695   0.07805

 Mulliken charges:
               1
     1  Mg   0.984790
     2  C   -0.030048
     3  C   -0.097666
     4  C   -0.088074
     5  C   -0.091596
     6  N   -0.320712
     7  C   -0.001176
     8  C   -0.052328
     9  C   -0.133838
    10  C    0.011143
    11  C    0.044526
    12  C   -0.023308
    13  C   -0.099788
    14  H    0.046642
    15  N   -0.499630
    16  C    0.214751
    17  C   -0.158476
    18  C   -0.076705
    19  C    0.175212
    20  C    0.073496
    21  C    0.037677
    22  O   -0.272505
    23  C    0.020741
    24  N   -0.348803
    25  C    0.045800
    26  C   -0.087860
    27  C   -0.049349
    28  C    0.040449
    29  C    0.013493
    30  C   -0.039892
    31  C   -0.032207
    32  N   -0.451973
    33  C    0.125003
    34  C   -0.194063
    35  C   -0.009053
    36  C    0.139195
    37  C    0.070663
    38  C    0.151162
    39  O   -0.215008
    40  C   -0.144361
    41  C    0.289209
    42  O   -0.219285
    43  O   -0.405854
    44  C    0.143362
    45  H   -0.011157
    46  H    0.021199
    47  H    0.001225
    48  H    0.028635
    49  H    0.029438
    50  H    0.028574
    51  H    0.059087
    52  H    0.036165
    53  H    0.041278
    54  H    0.036892
    55  H    0.058412
    56  H    0.059621
    57  H    0.054128
    58  H    0.057890
    59  H    0.036150
    60  H    0.065606
    61  H    0.039201
    62  H    0.055200
    63  H    0.050625
    64  H    0.044471
    65  H    0.052660
    66  H    0.038284
    67  H    0.049590
    68  H    0.034805
    69  H    0.019194
    70  H    0.041758
    71  H    0.039436
    72  H    0.036829
    73  H    0.060591
    74  H    0.027139
    75  H    0.060471
    76  H    0.091831
    77  H    0.068548
    78  H    0.050139
    79  H    0.052326
    80  Mg   0.986972
    81  C   -0.108771
    82  C   -0.085552
    83  C   -0.110561
    84  C   -0.095978
    85  N   -0.341920
    86  C   -0.038268
    87  C   -0.062479
    88  C   -0.058513
    89  C    0.026698
    90  C    0.027367
    91  C   -0.015046
    92  C   -0.118761
    93  H    0.036898
    94  N   -0.448468
    95  C    0.153377
    96  C   -0.157710
    97  C   -0.113633
    98  C    0.206772
    99  C    0.095402
   100  C    0.069685
   101  O   -0.226571
   102  C   -0.026169
   103  N   -0.421836
   104  C    0.079365
   105  C   -0.103089
   106  C   -0.075682
   107  C    0.085668
   108  C    0.009840
   109  C   -0.024313
   110  C   -0.038135
   111  N   -0.406526
   112  C    0.119621
   113  C   -0.211612
   114  C   -0.096400
   115  C    0.263275
   116  C    0.092503
   117  C    0.145563
   118  O   -0.217836
   119  C   -0.059485
   120  C    0.315828
   121  O   -0.277646
   122  O   -0.382210
   123  C    0.152238
   124  H   -0.009138
   125  H   -0.035073
   126  H   -0.015876
   127  H    0.049448
   128  H    0.045651
   129  H    0.043689
   130  H    0.040419
   131  H    0.046374
   132  H    0.038276
   133  H    0.048337
   134  H    0.063101
   135  H    0.056441
   136  H    0.065372
   137  H    0.023014
   138  H    0.044067
   139  H    0.073652
   140  H    0.060928
   141  H    0.052766
   142  H    0.044424
   143  H    0.036121
   144  H    0.037594
   145  H    0.038508
   146  H    0.031771
   147  H    0.048525
   148  H    0.025116
   149  H    0.051624
   150  H    0.041616
   151  H    0.037719
   152  H    0.034761
   153  H    0.054943
   154  H    0.066689
   155  H    0.059856
   156  H    0.069370
   157  H    0.033771
   158  H    0.052239
 Sum of Mulliken charges =  -0.00000

 Dipole moment (field-independent basis, Debye):
    X=              0.5323    Y=              5.1452    Z=             -4.4034  Tot=              6.7931
 Quadrupole moment (field-independent basis, Debye-Ang):
   XX=           -390.8354   YY=           -564.0002   ZZ=           -480.0950
   XY=             13.5953   XZ=             49.0966   YZ=              3.2243

 Normal termination of Gaussian 16 at Sun Sep 19 13:40:13 2021.
