 Gaussian 16, Revision A.03,
 Gaussian 16:  ES64L-G16RevA.03 25-Dec-2016

 --------------------------------
 #p wB97XD/Def2SVP td=(nstates=5)
 --------------------------------

 --------------------------------
 TDDFT excited states in gaussian
 --------------------------------
 Symbolic Z-matrix:
 Charge =  0 Multiplicity = 1

                         Standard orientation:
 ---------------------------------------------------------------------
 Center     Atomic      Atomic             Coordinates (Angstroms)
 Number     Number       Type             X           Y           Z
 ---------------------------------------------------------------------
      1         12           0      -24.318892   -0.867831    0.018785
      2          6           0      -25.657339    2.460607    0.322529
      3          6           0      -22.411312    0.312404   -2.554546
      4          6           0      -23.306378   -4.030592   -0.453680
      5          6           0      -26.649255   -1.904913    2.264899
      6          7           0      -24.036978    1.268115   -0.989142
      7          6           0      -24.679557    2.414259   -0.620524
      8          6           0      -24.050563    3.527715   -1.368802
      9          6           0      -23.104763    2.848055   -2.397341
     10          6           0      -23.171952    1.337362   -2.042706
     11          6           0      -23.571328    3.092850   -3.867664
     12          6           0      -23.359829    4.575940   -0.532820
     13          6           0      -22.896879    5.864709   -1.192891
     14          1           0      -23.274361    7.122827   -0.530641
     15          7           0      -22.972309   -1.704169   -1.227643
     16          6           0      -22.336686   -1.054994   -2.321873
     17          6           0      -21.387872   -2.029440   -2.892681
     18          6           0      -21.728619   -3.261778   -2.341196
     19          6           0      -22.770054   -3.039360   -1.321834
     20          6           0      -20.432883   -1.638551   -4.001149
     21          6           0      -21.123338   -4.658208   -2.601079
     22          8           0      -21.644791   -5.725601   -2.227607
     23          6           0      -19.832805   -4.702547   -3.312347
     24          7           0      -24.930988   -2.761116    0.746880
     25          6           0      -24.393753   -3.927533    0.453692
     26          6           0      -25.071462   -5.120446    1.182207
     27          6           0      -25.936845   -4.374848    2.200489
     28          6           0      -25.802461   -2.938733    1.748566
     29          6           0      -25.911744   -5.996998    0.193291
     30          6           0      -25.582118   -4.552476    3.659597
     31          6           0      -26.755080   -4.752655    4.635662
     32          7           0      -25.761398    0.089736    1.131400
     33          6           0      -26.634211   -0.491444    2.025096
     34          6           0      -27.498031    0.533131    2.685643
     35          6           0      -27.102922    1.653040    1.982100
     36          6           0      -26.114514    1.358778    1.035130
     37          6           0      -28.394249    0.374356    3.871637
     38          6           0      -27.368834    3.080198    1.877304
     39          8           0      -28.137136    3.749756    2.558559
     40          6           0      -26.443805    3.684252    0.795967
     41          6           0      -27.289755    4.445182   -0.087707
     42          8           0      -28.055242    3.993822   -0.973385
     43          8           0      -27.030743    5.775823    0.041798
     44          6           0      -27.571764    6.687716   -0.942300
     45          1           0      -21.733068    0.692088   -3.321205
     46          1           0      -23.103178   -5.071016   -0.715164
     47          1           0      -27.493637   -2.366047    2.781085
     48          1           0      -24.896972    3.972844   -1.890182
     49          1           0      -22.079705    3.211617   -2.323304
     50          1           0      -22.914156    3.467634   -4.653004
     51          1           0      -24.374401    3.823287   -3.770779
     52          1           0      -24.112944    2.264219   -4.324660
     53          1           0      -22.423618    4.198203   -0.121470
     54          1           0      -23.863030    4.733206    0.420799
     55          1           0      -23.292511    5.942452   -2.204469
     56          1           0      -21.818592    5.891575   -1.037963
     57          1           0      -20.397260   -2.343860   -4.831171
     58          1           0      -19.406869   -1.482753   -3.668409
     59          1           0      -20.690702   -0.718096   -4.525554
     60          1           0      -19.141679   -4.023096   -2.813354
     61          1           0      -20.100383   -4.322753   -4.297764
     62          1           0      -19.440507   -5.709015   -3.171389
     63          1           0      -24.264826   -5.683417    1.653027
     64          1           0      -27.007375   -4.573104    2.156387
     65          1           0      -26.979649   -5.916719    0.394191
     66          1           0      -25.677269   -7.055563    0.305494
     67          1           0      -25.691570   -5.601302   -0.798314
     68          1           0      -24.972468   -3.729428    4.031094
     69          1           0      -24.796230   -5.306970    3.646539
     70          1           0      -26.369672   -5.337159    5.470510
     71          1           0      -27.650449   -5.146449    4.153694
     72          1           0      -26.976065   -3.720730    4.907606
     73          1           0      -27.961286    0.720679    4.810281
     74          1           0      -28.733648   -0.660444    3.835773
     75          1           0      -29.350042    0.856710    3.663220
     76          1           0      -25.870947    4.444238    1.327265
     77          1           0      -28.062776    6.205417   -1.787939
     78          1           0      -26.814097    7.403223   -1.260647
     79          1           0      -28.336341    7.339292   -0.518440
     80         12           0       25.042393   -0.439564    0.035775
     81          6           0       24.003805    2.655694    0.990663
     82          6           0       25.520703    0.646688   -3.193492
     83          6           0       25.880079   -3.609439   -0.807399
     84          6           0       24.086647   -1.620708    3.226889
     85          7           0       24.574102    1.401433   -1.034559
     86          6           0       24.477070    2.578936   -0.361417
     87          6           0       24.713698    3.774849   -1.220088
     88          6           0       24.949884    3.041400   -2.640403
     89          6           0       25.025220    1.590922   -2.292582
     90          6           0       23.784672    3.338627   -3.689197
     91          6           0       26.027287    4.528493   -0.704972
     92          6           0       26.170805    6.010033   -1.060008
     93          1           0       25.313816    6.741921   -2.122746
     94          7           0       25.719868   -1.380565   -1.704898
     95          6           0       25.824840   -0.743057   -2.951915
     96          6           0       26.275404   -1.737666   -3.897665
     97          6           0       26.412355   -2.963786   -3.215583
     98          6           0       26.041010   -2.648383   -1.843051
     99          6           0       26.581660   -1.363370   -5.366653
    100          6           0       26.792150   -4.405682   -3.842729
    101          8           0       27.026647   -5.398272   -3.141842
    102          6           0       26.935560   -4.679832   -5.330683
    103          7           0       25.043571   -2.360676    1.135462
    104          6           0       25.405989   -3.505678    0.509195
    105          6           0       25.057552   -4.734653    1.347256
    106          6           0       24.778575   -4.062819    2.812620
    107          6           0       24.722430   -2.571312    2.446736
    108          6           0       23.926232   -5.693299    0.754188
    109          6           0       25.959486   -4.198823    3.901894
    110          6           0       25.640521   -4.683139    5.304338
    111          7           0       24.257721    0.298996    1.825094
    112          6           0       23.914638   -0.258564    2.999503
    113          6           0       23.473815    0.804899    3.955712
    114          6           0       23.563965    1.977181    3.168251
    115          6           0       23.923425    1.564576    1.861920
    116          6           0       23.079920    0.728388    5.388384
    117          6           0       23.350799    3.372116    3.271017
    118          8           0       22.975912    4.061793    4.241470
    119          6           0       23.622099    3.882573    1.858096
    120          6           0       22.422579    4.508006    1.349999
    121          8           0       21.313137    4.088746    1.238277
    122          8           0       22.811631    5.752450    0.863329
    123          6           0       21.839833    6.694803    0.187343
    124          1           0       25.906418    0.961614   -4.164940
    125          1           0       26.058702   -4.643019   -1.112278
    126          1           0       23.595443   -1.936660    4.148920
    127          1           0       23.960821    4.554541   -1.333953
    128          1           0       25.888817    3.354721   -3.096800
    129          1           0       24.093806    3.432458   -4.729965
    130          1           0       23.192870    4.182196   -3.334195
    131          1           0       23.122673    2.472499   -3.661991
    132          1           0       26.934299    4.032950   -1.051741
    133          1           0       26.001832    4.429536    0.380525
    134          1           0       27.220961    6.145916   -1.321567
    135          1           0       26.059526    6.595715   -0.148281
    136          1           0       26.479312   -0.301458   -5.589798
    137          1           0       25.913491   -1.962346   -5.984539
    138          1           0       27.597835   -1.698834   -5.575186
    139          1           0       27.835342   -4.138178   -5.620056
    140          1           0       26.203714   -4.136019   -5.928319
    141          1           0       26.813126   -5.743157   -5.535703
    142          1           0       25.963514   -5.334076    1.444472
    143          1           0       23.866867   -4.462143    3.257385
    144          1           0       23.090711   -5.795858    1.447040
    145          1           0       24.348140   -6.670404    0.521676
    146          1           0       23.487424   -5.259189   -0.144514
    147          1           0       26.543441   -3.282153    3.983134
    148          1           0       26.681418   -4.894226    3.474787
    149          1           0       25.991190   -3.907960    5.984792
    150          1           0       26.084799   -5.651712    5.531961
    151          1           0       24.558956   -4.725135    5.440411
    152          1           0       23.185501   -0.257153    5.841584
    153          1           0       22.035227    1.011376    5.519943
    154          1           0       23.698909    1.427202    5.950711
    155          1           0       24.435605    4.608131    1.831175
    156          1           0       20.857134    6.230300    0.103031
    157          1           0       22.173025    6.893387   -0.832185
    158          1           0       21.814678    7.583876    0.817379
 ---------------------------------------------------------------------

 SCF Done:  E(RwB97XD) =  -4070.61657519     A.U. after   19 cycles

 Excitation energies and oscillator strengths:

 Excited State   1:      Singlet-A      1.6817 eV  737.24 nm  f=0.3877  <S**2>=0.000
     310 -> 316        0.19776
     311 -> 313        0.68062
     310 <- 316        0.11935
 This state for optimization and/or second-order correction.
 Total Energy, E(TD-HF/TD-DFT) =  -4070.55477288
 Copying the excited state density for this state as the 1-particle RhoCI density.

 Excited State   2:      Singlet-A      1.6934 eV  732.14 nm  f=0.3818  <S**2>=0.000
     309 -> 315        0.20453
     312 -> 314        0.67930
     309 <- 315        0.12254

 Excited State   3:      Singlet-A      2.1739 eV  570.32 nm  f=0.0987  <S**2>=0.000
     310 -> 313        0.63664
     311 -> 316       -0.29865

 Excited State   4:      Singlet-A      2.2626 eV  547.96 nm  f=0.0703  <S**2>=0.000
     309 -> 314        0.61590
     312 -> 315       -0.33995

 Excited State   5:      Singlet-A      3.4504 eV  359.33 nm  f=0.0015  <S**2>=0.000
     300 -> 313        0.21161
     300 -> 317       -0.15801
     301 -> 313        0.34957
     301 -> 317       -0.29343
     301 -> 319        0.12467
     307 -> 313        0.31506
     307 -> 317       -0.15674
     308 -> 313       -0.20840

 The electronic state is 1-A.
 Alpha  occ. eigenvalues --  -46.95752 -46.94842 -19.30406 -19.28959 -19.24551
 Alpha  occ. eigenvalues --  -19.24230 -19.24077 -19.23923 -19.23823 -19.23673
 Alpha  occ. eigenvalues --  -14.47067 -14.46473 -14.46301 -14.45711 -14.44390
 Alpha  occ. eigenvalues --  -14.44188 -14.44153 -14.44005 -10.42997 -10.42510
 Alpha  occ. eigenvalues --  -10.40241 -10.39222 -10.38555 -10.38479 -10.35819
 Alpha  occ. eigenvalues --  -10.35687 -10.34955 -10.34790 -10.34694 -10.34685
 Alpha  occ. eigenvalues --  -10.34604 -10.34585 -10.34559 -10.34461 -10.34438
 Alpha  occ. eigenvalues --  -10.34232 -10.34084 -10.34063 -10.33913 -10.33747
 Alpha  occ. eigenvalues --  -10.33196 -10.33083 -10.33012 -10.32820 -10.32535
 Alpha  occ. eigenvalues --  -10.32406 -10.32375 -10.32365 -10.32352 -10.32311
 Alpha  occ. eigenvalues --  -10.32169 -10.32138 -10.32046 -10.32037 -10.32034
 Alpha  occ. eigenvalues --  -10.32016 -10.31886 -10.31720 -10.31620 -10.31495
 Alpha  occ. eigenvalues --  -10.31451 -10.31430 -10.31425 -10.31335 -10.31256
 Alpha  occ. eigenvalues --  -10.31110 -10.31030 -10.30963 -10.30540 -10.30493
 Alpha  occ. eigenvalues --  -10.30224 -10.30141 -10.30088 -10.30068 -10.30048
 Alpha  occ. eigenvalues --  -10.29979 -10.29959 -10.29937 -10.29844 -10.29837
 Alpha  occ. eigenvalues --  -10.29836 -10.29766 -10.29562 -10.29185 -10.28858
 Alpha  occ. eigenvalues --  -10.28644  -3.21608  -3.20878  -1.95218  -1.94711
 Alpha  occ. eigenvalues --   -1.94588  -1.94479  -1.93997  -1.93860  -1.18310
 Alpha  occ. eigenvalues --   -1.17812  -1.11739  -1.11714  -1.11279  -1.10618
 Alpha  occ. eigenvalues --   -1.09442  -1.08157  -1.07769  -1.07644  -1.06615
 Alpha  occ. eigenvalues --   -1.06493  -1.05609  -1.05088  -1.04671  -1.04234
 Alpha  occ. eigenvalues --   -0.95537  -0.95159  -0.91949  -0.91187  -0.90563
 Alpha  occ. eigenvalues --   -0.90413  -0.90152  -0.89539  -0.89455  -0.89013
 Alpha  occ. eigenvalues --   -0.89007  -0.88814  -0.88576  -0.88181  -0.86627
 Alpha  occ. eigenvalues --   -0.86298  -0.85954  -0.85375  -0.84818  -0.84528
 Alpha  occ. eigenvalues --   -0.84272  -0.83541  -0.83197  -0.83151  -0.82861
 Alpha  occ. eigenvalues --   -0.82290  -0.80632  -0.80392  -0.79646  -0.79426
 Alpha  occ. eigenvalues --   -0.79372  -0.79082  -0.78483  -0.78149  -0.77181
 Alpha  occ. eigenvalues --   -0.77127  -0.74988  -0.74628  -0.73980  -0.73928
 Alpha  occ. eigenvalues --   -0.71455  -0.71300  -0.71225  -0.70586  -0.70182
 Alpha  occ. eigenvalues --   -0.70040  -0.68529  -0.68327  -0.67984  -0.67372
 Alpha  occ. eigenvalues --   -0.67272  -0.67186  -0.67107  -0.66566  -0.66536
 Alpha  occ. eigenvalues --   -0.66270  -0.64535  -0.63861  -0.62487  -0.62391
 Alpha  occ. eigenvalues --   -0.61911  -0.61898  -0.61491  -0.61198  -0.60824
 Alpha  occ. eigenvalues --   -0.60761  -0.60460  -0.60363  -0.59761  -0.59623
 Alpha  occ. eigenvalues --   -0.58471  -0.58040  -0.57697  -0.57533  -0.57520
 Alpha  occ. eigenvalues --   -0.57259  -0.56370  -0.56166  -0.55960  -0.55828
 Alpha  occ. eigenvalues --   -0.55726  -0.55418  -0.55127  -0.54980  -0.54920
 Alpha  occ. eigenvalues --   -0.54881  -0.54726  -0.54133  -0.54100  -0.53909
 Alpha  occ. eigenvalues --   -0.53798  -0.53637  -0.53615  -0.53573  -0.53370
 Alpha  occ. eigenvalues --   -0.53126  -0.52783  -0.52718  -0.52503  -0.52450
 Alpha  occ. eigenvalues --   -0.52219  -0.51862  -0.51748  -0.51630  -0.51583
 Alpha  occ. eigenvalues --   -0.51389  -0.51089  -0.51006  -0.50839  -0.50601
 Alpha  occ. eigenvalues --   -0.50311  -0.50267  -0.50264  -0.50114  -0.49905
 Alpha  occ. eigenvalues --   -0.49879  -0.49758  -0.49573  -0.49294  -0.49263
 Alpha  occ. eigenvalues --   -0.49161  -0.48975  -0.48894  -0.48523  -0.48467
 Alpha  occ. eigenvalues --   -0.48417  -0.48167  -0.48155  -0.48109  -0.47966
 Alpha  occ. eigenvalues --   -0.47536  -0.47512  -0.47155  -0.47089  -0.47012
 Alpha  occ. eigenvalues --   -0.46659  -0.46463  -0.46291  -0.46254  -0.45927
 Alpha  occ. eigenvalues --   -0.45876  -0.45849  -0.45831  -0.45672  -0.45629
 Alpha  occ. eigenvalues --   -0.45337  -0.45093  -0.45065  -0.44611  -0.44463
 Alpha  occ. eigenvalues --   -0.44351  -0.44342  -0.43980  -0.43700  -0.43672
 Alpha  occ. eigenvalues --   -0.43645  -0.43587  -0.43507  -0.43320  -0.43212
 Alpha  occ. eigenvalues --   -0.43087  -0.42977  -0.42945  -0.42775  -0.42765
 Alpha  occ. eigenvalues --   -0.42127  -0.42043  -0.41811  -0.41673  -0.41362
 Alpha  occ. eigenvalues --   -0.40709  -0.40344  -0.39840  -0.39767  -0.39549
 Alpha  occ. eigenvalues --   -0.39222  -0.38786  -0.38593  -0.38143  -0.38016
 Alpha  occ. eigenvalues --   -0.37912  -0.37665  -0.36489  -0.36247  -0.35882
 Alpha  occ. eigenvalues --   -0.35493  -0.35429  -0.35165  -0.33778  -0.33409
 Alpha  occ. eigenvalues --   -0.33157  -0.33040  -0.32989  -0.32755  -0.32531
 Alpha  occ. eigenvalues --   -0.32436  -0.32384  -0.32250  -0.26004  -0.25773
 Alpha  occ. eigenvalues --   -0.22959  -0.22724
 Alpha virt. eigenvalues --   -0.06885  -0.06509   0.00099   0.00170   0.02018
 Alpha virt. eigenvalues --    0.02789   0.04420   0.04620   0.05803   0.06131
 Alpha virt. eigenvalues --    0.06682   0.07297   0.07990   0.08130   0.08344

 Mulliken charges:
               1
     1  Mg   0.974508
     2  C    0.002954
     3  C   -0.074052
     4  C   -0.058870
     5  C   -0.108772
     6  N   -0.330644
     7  C   -0.063332
     8  C    0.015577
     9  C   -0.121687
    10  C    0.063752
    11  C    0.011239
    12  C    0.011739
    13  C   -0.119986
    14  H    0.035312
    15  N   -0.515835
    16  C    0.189977
    17  C   -0.128818
    18  C   -0.091715
    19  C    0.167338
    20  C    0.036544
    21  C    0.055214
    22  O   -0.254778
    23  C    0.008670
    24  N   -0.326226
    25  C   -0.014355
    26  C   -0.060011
    27  C   -0.104892
    28  C    0.037598
    29  C    0.034223
    30  C    0.005181
    31  C   -0.035275
    32  N   -0.421254
    33  C    0.133254
    34  C   -0.209198
    35  C   -0.009022
    36  C    0.152823
    37  C    0.108951
    38  C    0.073417
    39  O   -0.209182
    40  C   -0.032125
    41  C    0.264688
    42  O   -0.283650
    43  O   -0.351463
    44  C    0.134882
    45  H   -0.012366
    46  H    0.030653
    47  H    0.003623
    48  H    0.033952
    49  H    0.037530
    50  H    0.041021
    51  H    0.017658
    52  H    0.035922
    53  H    0.014290
    54  H    0.025765
    55  H    0.056579
    56  H    0.056721
    57  H    0.040359
    58  H    0.054037
    59  H    0.038998
    60  H    0.053175
    61  H    0.060435
    62  H    0.061926
    63  H    0.043783
    64  H    0.028139
    65  H    0.033568
    66  H    0.048028
    67  H    0.054511
    68  H    0.023086
    69  H    0.008880
    70  H    0.052201
    71  H    0.038541
    72  H    0.041122
    73  H    0.077472
    74  H    0.017132
    75  H    0.049442
    76  H    0.080845
    77  H    0.066836
    78  H    0.047341
    79  H    0.046098
    80  Mg   0.950898
    81  C   -0.080301
    82  C   -0.065182
    83  C   -0.054629
    84  C   -0.099718
    85  N   -0.357659
    86  C    0.029424
    87  C   -0.079478
    88  C   -0.109822
    89  C    0.090046
    90  C    0.022807
    91  C   -0.013517
    92  C   -0.098904
    93  H    0.035600
    94  N   -0.438837
    95  C    0.108724
    96  C   -0.179249
    97  C   -0.083525
    98  C    0.122333
    99  C    0.062305
   100  C    0.075977
   101  O   -0.249639
   102  C    0.010473
   103  N   -0.332223
   104  C    0.030875
   105  C   -0.062668
   106  C   -0.122805
   107  C    0.110991
   108  C    0.017311
   109  C   -0.023508
   110  C   -0.037690
   111  N   -0.390493
   112  C    0.092464
   113  C   -0.157204
   114  C   -0.058402
   115  C    0.195233
   116  C    0.082421
   117  C    0.129029
   118  O   -0.229540
   119  C   -0.055366
   120  C    0.260457
   121  O   -0.202742
   122  O   -0.416587
   123  C    0.130290
   124  H   -0.007804
   125  H    0.015264
   126  H    0.000054
   127  H    0.042238
   128  H    0.032276
   129  H    0.044446
   130  H    0.032982
   131  H    0.038512
   132  H    0.033251
   133  H    0.032481
   134  H    0.043024
   135  H    0.053455
   136  H    0.042704
   137  H    0.051417
   138  H    0.048501
   139  H    0.054864
   140  H    0.026313
   141  H    0.075600
   142  H    0.037512
   143  H    0.035297
   144  H    0.033680
   145  H    0.050466
   146  H    0.045461
   147  H    0.038407
   148  H    0.020861
   149  H    0.037109
   150  H    0.048353
   151  H    0.024413
   152  H    0.023627
   153  H    0.065336
   154  H    0.063751
   155  H    0.069652
   156  H    0.065942
   157  H    0.053359
   158  H    0.069226
 Sum of Mulliken charges =  -0.00000

 Dipole moment (field-independent basis, Debye):
    X=              6.6820    Y=             -0.4155    Z=             -4.3368  Tot=              7.9768
 Quadrupole moment (field-independent basis, Debye-Ang):
   XX=           -629.7943   YY=           -505.7388   ZZ=           -481.9093
   XY=             53.0323   XZ=            -61.0647   YZ=            -55.8080

 Normal termination of Gaussian 16 at Mon Sep 20 03:11:14 2021.
