 Gaussian 16, Revision A.03,
 Gaussian 16:  ES64L-G16RevA.03 25-Dec-2016

 --------------------------------
 #p wB97XD/Def2SVP td=(nstates=5)
 --------------------------------

 --------------------------------
 TDDFT excited states in gaussian
 --------------------------------
 Symbolic Z-matrix:
 Charge =  0 Multiplicity = 1

                         Standard orientation:
 ---------------------------------------------------------------------
 Center     Atomic      Atomic             Coordinates (Angstroms)
 Number     Number       Type             X           Y           Z
 ---------------------------------------------------------------------
      1         12           0       17.937490   -0.660478    0.005107
      2          6           0       15.984587    2.106406    0.553107
      3          6           0       20.714782    1.342604    0.183262
      4          6           0       19.921632   -3.426149   -0.660024
      5          6           0       15.095110   -2.550000   -0.603946
      6          7           0       18.339450    1.529254    0.285230
      7          6           0       17.345042    2.418218    0.579034
      8          6           0       17.886132    3.741849    0.830023
      9          6           0       19.372441    3.637005    0.526849
     10          6           0       19.531879    2.074040    0.274879
     11          6           0       19.966110    4.495054   -0.643300
     12          6           0       17.569426    4.231432    2.284167
     13          6           0       17.347079    5.770259    2.485523
     14          1           0       18.072125    6.719970    1.511874
     15          7           0       20.050628   -0.983865   -0.089966
     16          6           0       21.016390    0.000338    0.032785
     17          6           0       22.349492   -0.618075   -0.115161
     18          6           0       22.131903   -2.042157   -0.361003
     19          6           0       20.669090   -2.217324   -0.356782
     20          6           0       23.665625    0.140126   -0.058209
     21          6           0       23.175519   -3.130321   -0.458860
     22          8           0       22.806477   -4.310383   -0.591915
     23          6           0       24.640453   -2.900555   -0.443628
     24          7           0       17.580024   -2.686128   -0.630088
     25          6           0       18.547149   -3.597543   -0.768456
     26          6           0       17.949944   -4.995149   -1.002478
     27          6           0       16.357597   -4.806207   -0.738921
     28          6           0       16.351361   -3.246421   -0.566299
     29          6           0       18.318898   -5.541575   -2.416077
     30          6           0       15.803021   -5.503553    0.533464
     31          6           0       14.850233   -6.682451    0.284907
     32          7           0       15.917428   -0.324803   -0.099507
     33          6           0       14.855399   -1.189180   -0.375145
     34          6           0       13.570529   -0.459616   -0.293983
     35          6           0       14.015643    0.837835    0.052882
     36          6           0       15.432710    0.867816    0.148087
     37          6           0       12.226944   -0.976157   -0.459723
     38          6           0       13.537857    2.176732    0.455652
     39          8           0       12.429839    2.613334    0.621234
     40          6           0       14.807236    3.052635    0.750861
     41          6           0       14.725022    4.278307   -0.059533
     42          8           0       14.894781    4.229411   -1.288484
     43          8           0       14.595407    5.430161    0.654328
     44          6           0       14.709953    6.705598   -0.045883
     45          1           0       21.578548    2.007692    0.246786
     46          1           0       20.562016   -4.276709   -0.903735
     47          1           0       14.228799   -3.210663   -0.676631
     48          1           0       17.424665    4.430709    0.121638
     49          1           0       19.971648    3.769462    1.428437
     50          1           0       19.349931    5.183303   -1.222776
     51          1           0       20.430848    3.812538   -1.354420
     52          1           0       20.827519    5.094729   -0.348215
     53          1           0       18.323662    3.847864    2.971371
     54          1           0       16.733659    3.651049    2.674549
     55          1           0       17.627299    6.057871    3.499256
     56          1           0       16.317144    6.077177    2.305909
     57          1           0       23.551004    1.182998    0.235381
     58          1           0       24.143981    0.169844   -1.037589
     59          1           0       24.275562   -0.232024    0.764750
     60          1           0       25.104426   -3.886409   -0.440419
     61          1           0       24.982021   -2.321073    0.415060
     62          1           0       24.917843   -2.273663   -1.291245
     63          1           0       18.295083   -5.625613   -0.182927
     64          1           0       15.756612   -5.062671   -1.611286
     65          1           0       18.717019   -6.556218   -2.399421
     66          1           0       19.077869   -4.916598   -2.887469
     67          1           0       17.393365   -5.444516   -2.984086
     68          1           0       15.265215   -4.826363    1.195947
     69          1           0       16.602756   -5.886946    1.167510
     70          1           0       15.089755   -7.146512   -0.671916
     71          1           0       13.836248   -6.287636    0.229546
     72          1           0       14.909934   -7.320454    1.165698
     73          1           0       11.468325   -0.328809   -0.020350
     74          1           0       12.094351   -1.974513   -0.043284
     75          1           0       11.970836   -0.892618   -1.516010
     76          1           0       14.689008    3.229615    1.820419
     77          1           0       13.908165    6.899442   -0.758909
     78          1           0       15.697868    6.818791   -0.492227
     79          1           0       14.616094    7.521618    0.670468
     80         12           0      -17.863755   -0.780852    0.071177
     81          6           0      -17.340179    2.756931   -0.556475
     82          6           0      -16.871939   -0.125792    3.225870
     83          6           0      -18.273214   -3.906646    0.585508
     84          6           0      -18.541457   -1.212840   -3.377153
     85          7           0      -17.186952    1.220429    1.228915
     86          6           0      -17.154738    2.489168    0.786065
     87          6           0      -16.880908    3.454728    1.954947
     88          6           0      -16.298658    2.374875    2.981315
     89          6           0      -16.856998    1.103394    2.496387
     90          6           0      -14.828551    2.455804    3.357084
     91          6           0      -18.200266    4.141249    2.348523
     92          6           0      -17.983126    5.526132    3.026449
     93          1           0      -16.577332    6.286814    3.030878
     94          7           0      -17.653454   -1.914000    1.725997
     95          6           0      -17.145354   -1.502755    2.943310
     96          6           0      -17.059000   -2.672815    3.811834
     97          6           0      -17.541585   -3.781571    3.073607
     98          6           0      -17.838314   -3.205766    1.731334
     99          6           0      -16.551655   -2.646281    5.184731
    100          6           0      -17.771332   -5.315705    3.531547
    101          8           0      -18.354408   -6.099060    2.833135
    102          6           0      -17.531562   -5.765952    4.983799
    103          7           0      -18.078326   -2.368431   -1.293353
    104          6           0      -18.381016   -3.558213   -0.780235
    105          6           0      -18.811981   -4.581758   -1.796058
    106          6           0      -19.265245   -3.625964   -2.926585
    107          6           0      -18.430307   -2.352086   -2.556080
    108          6           0      -17.643494   -5.560002   -2.281650
    109          6           0      -20.827429   -3.379894   -3.050283
    110          6           0      -21.825338   -4.492974   -2.616978
    111          7           0      -17.831295    0.429652   -1.645367
    112          6           0      -18.172514    0.178426   -2.933470
    113          6           0      -18.227938    1.344457   -3.692687
    114          6           0      -17.864328    2.326896   -2.816519
    115          6           0      -17.645093    1.772605   -1.570904
    116          6           0      -18.671645    1.448315   -5.149293
    117          6           0      -17.678196    3.784464   -2.756640
    118          8           0      -17.609216    4.652371   -3.613973
    119          6           0      -17.404001    4.092086   -1.219988
    120          6           0      -16.194456    4.892708   -1.145246
    121          8           0      -15.030430    4.491637   -1.243735
    122          8           0      -16.575740    6.185303   -1.213397
    123          6           0      -15.472613    7.074986   -1.529083
    124          1           0      -16.379917    0.057835    4.183368
    125          1           0      -18.364433   -4.975144    0.788811
    126          1           0      -18.850461   -1.381827   -4.410618
    127          1           0      -16.071032    4.146480    1.722912
    128          1           0      -16.793974    2.577757    3.929861
    129          1           0      -14.686684    2.736135    4.400384
    130          1           0      -14.317774    3.181759    2.724754
    131          1           0      -14.271160    1.537389    3.172743
    132          1           0      -18.662228    3.530978    3.124899
    133          1           0      -18.925434    4.208659    1.537753
    134          1           0      -18.380951    5.545344    4.041584
    135          1           0      -18.774400    6.120198    2.569418
    136          1           0      -16.638756   -1.654985    5.629026
    137          1           0      -15.508856   -2.954249    5.106494
    138          1           0      -17.076080   -3.316848    5.865834
    139          1           0      -18.213997   -5.313849    5.703473
    140          1           0      -16.463785   -5.613198    5.142229
    141          1           0      -17.617973   -6.850626    5.053088
    142          1           0      -19.583270   -5.137729   -1.263573
    143          1           0      -18.945060   -3.951994   -3.915874
    144          1           0      -18.139345   -6.529302   -2.235109
    145          1           0      -16.767111   -5.572447   -1.632704
    146          1           0      -17.297570   -5.414134   -3.304248
    147          1           0      -21.049488   -3.069466   -4.070287
    148          1           0      -20.964044   -2.600834   -2.300068
    149          1           0      -22.037574   -4.418457   -1.550715
    150          1           0      -21.339775   -5.408585   -2.956396
    151          1           0      -22.759699   -4.448884   -3.175485
    152          1           0      -19.381850    0.630873   -5.276018
    153          1           0      -17.866613    1.258659   -5.858661
    154          1           0      -19.133239    2.424635   -5.295950
    155          1           0      -18.267780    4.653338   -0.861427
    156          1           0      -15.769378    8.120290   -1.610056
    157          1           0      -14.808149    6.762614   -2.334865
    158          1           0      -14.773574    7.122948   -0.693420
 ---------------------------------------------------------------------

 SCF Done:  E(RwB97XD) =  -4070.62328452     A.U. after   19 cycles

 Excitation energies and oscillator strengths:

 Excited State   1:      Singlet-A      1.6697 eV  742.56 nm  f=0.3888  <S**2>=0.000
     309 -> 315        0.19474
     312 -> 313        0.68027
     309 <- 315        0.11869
 This state for optimization and/or second-order correction.
 Total Energy, E(TD-HF/TD-DFT) =  -4070.56192457
 Copying the excited state density for this state as the 1-particle RhoCI density.

 Excited State   2:      Singlet-A      1.7989 eV  689.21 nm  f=0.3705  <S**2>=0.000
     310 -> 316        0.19145
     311 -> 314        0.67946
     310 <- 316        0.11149

 Excited State   3:      Singlet-A      2.1925 eV  565.50 nm  f=0.1434  <S**2>=0.000
     310 -> 314        0.65197
     311 -> 316       -0.25617

 Excited State   4:      Singlet-A      2.1969 eV  564.35 nm  f=0.0911  <S**2>=0.000
     309 -> 313        0.62351
     312 -> 315       -0.31800

 Excited State   5:      Singlet-A      3.4244 eV  362.06 nm  f=0.1916  <S**2>=0.000
     307 -> 313        0.53338
     309 -> 313        0.16260
     312 -> 315        0.41056

 The electronic state is 1-A.
 Alpha  occ. eigenvalues --  -46.95647 -46.95211 -19.31174 -19.30056 -19.25556
 Alpha  occ. eigenvalues --  -19.24246 -19.24076 -19.23817 -19.23651 -19.23400
 Alpha  occ. eigenvalues --  -14.46398 -14.46280 -14.46039 -14.45623 -14.44525
 Alpha  occ. eigenvalues --  -14.44109 -14.43821 -14.43164 -10.43405 -10.41984
 Alpha  occ. eigenvalues --  -10.40990 -10.38926 -10.38860 -10.38757 -10.36058
 Alpha  occ. eigenvalues --  -10.35383 -10.34913 -10.34818 -10.34808 -10.34682
 Alpha  occ. eigenvalues --  -10.34659 -10.34655 -10.34410 -10.34210 -10.34111
 Alpha  occ. eigenvalues --  -10.34061 -10.33941 -10.33617 -10.33527 -10.33524
 Alpha  occ. eigenvalues --  -10.33334 -10.33282 -10.33164 -10.32673 -10.32666
 Alpha  occ. eigenvalues --  -10.32509 -10.32319 -10.32316 -10.32047 -10.32007
 Alpha  occ. eigenvalues --  -10.31957 -10.31944 -10.31882 -10.31648 -10.31623
 Alpha  occ. eigenvalues --  -10.31595 -10.31495 -10.31423 -10.31423 -10.31410
 Alpha  occ. eigenvalues --  -10.31396 -10.31323 -10.31269 -10.31243 -10.31242
 Alpha  occ. eigenvalues --  -10.31087 -10.31022 -10.31014 -10.30514 -10.30474
 Alpha  occ. eigenvalues --  -10.30096 -10.30090 -10.29962 -10.29925 -10.29917
 Alpha  occ. eigenvalues --  -10.29912 -10.29906 -10.29835 -10.29418 -10.29385
 Alpha  occ. eigenvalues --  -10.29351 -10.29329 -10.29304 -10.29153 -10.29001
 Alpha  occ. eigenvalues --  -10.27643  -3.21602  -3.21082  -1.95193  -1.94743
 Alpha  occ. eigenvalues --   -1.94692  -1.94550  -1.94187  -1.94057  -1.18603
 Alpha  occ. eigenvalues --   -1.18602  -1.14850  -1.13176  -1.11601  -1.11126
 Alpha  occ. eigenvalues --   -1.09298  -1.08754  -1.07761  -1.07186  -1.07105
 Alpha  occ. eigenvalues --   -1.06687  -1.06048  -1.05386  -1.05379  -1.02995
 Alpha  occ. eigenvalues --   -0.94443  -0.94250  -0.91136  -0.91000  -0.90569
 Alpha  occ. eigenvalues --   -0.90159  -0.89917  -0.89584  -0.89464  -0.89118
 Alpha  occ. eigenvalues --   -0.88787  -0.88650  -0.88201  -0.87444  -0.86255
 Alpha  occ. eigenvalues --   -0.85875  -0.85440  -0.84959  -0.84222  -0.84198
 Alpha  occ. eigenvalues --   -0.83850  -0.83782  -0.83142  -0.82623  -0.82501
 Alpha  occ. eigenvalues --   -0.82024  -0.80588  -0.80394  -0.79477  -0.79234
 Alpha  occ. eigenvalues --   -0.78691  -0.78489  -0.78140  -0.77598  -0.77157
 Alpha  occ. eigenvalues --   -0.76809  -0.74671  -0.74586  -0.73591  -0.73478
 Alpha  occ. eigenvalues --   -0.71556  -0.71158  -0.70672  -0.70260  -0.70010
 Alpha  occ. eigenvalues --   -0.69531  -0.68916  -0.68776  -0.67765  -0.67353
 Alpha  occ. eigenvalues --   -0.67332  -0.67036  -0.67005  -0.66572  -0.66320
 Alpha  occ. eigenvalues --   -0.65620  -0.64699  -0.63733  -0.62835  -0.61827
 Alpha  occ. eigenvalues --   -0.61555  -0.61435  -0.61205  -0.61185  -0.60703
 Alpha  occ. eigenvalues --   -0.60331  -0.60206  -0.59811  -0.59431  -0.59269
 Alpha  occ. eigenvalues --   -0.58548  -0.58033  -0.57820  -0.57356  -0.57344
 Alpha  occ. eigenvalues --   -0.57104  -0.56659  -0.56484  -0.55942  -0.55905
 Alpha  occ. eigenvalues --   -0.55727  -0.55503  -0.55387  -0.54910  -0.54868
 Alpha  occ. eigenvalues --   -0.54814  -0.54715  -0.54334  -0.54140  -0.54139
 Alpha  occ. eigenvalues --   -0.53634  -0.53543  -0.53403  -0.53225  -0.53171
 Alpha  occ. eigenvalues --   -0.53061  -0.53027  -0.52596  -0.52367  -0.52124
 Alpha  occ. eigenvalues --   -0.51903  -0.51895  -0.51799  -0.51605  -0.51282
 Alpha  occ. eigenvalues --   -0.51023  -0.50919  -0.50843  -0.50656  -0.50481
 Alpha  occ. eigenvalues --   -0.50446  -0.50368  -0.50235  -0.50005  -0.49843
 Alpha  occ. eigenvalues --   -0.49755  -0.49396  -0.49379  -0.49274  -0.49149
 Alpha  occ. eigenvalues --   -0.49052  -0.48892  -0.48631  -0.48624  -0.48176
 Alpha  occ. eigenvalues --   -0.48119  -0.47802  -0.47637  -0.47618  -0.47435
 Alpha  occ. eigenvalues --   -0.47311  -0.47144  -0.46834  -0.46774  -0.46513
 Alpha  occ. eigenvalues --   -0.46462  -0.46402  -0.46246  -0.46183  -0.45949
 Alpha  occ. eigenvalues --   -0.45811  -0.45747  -0.45705  -0.45549  -0.45391
 Alpha  occ. eigenvalues --   -0.45216  -0.45142  -0.45084  -0.44947  -0.44857
 Alpha  occ. eigenvalues --   -0.44548  -0.44533  -0.44336  -0.44177  -0.44061
 Alpha  occ. eigenvalues --   -0.43945  -0.43781  -0.43370  -0.43303  -0.43182
 Alpha  occ. eigenvalues --   -0.43127  -0.42828  -0.42573  -0.42250  -0.42237
 Alpha  occ. eigenvalues --   -0.41853  -0.41591  -0.41404  -0.41187  -0.40558
 Alpha  occ. eigenvalues --   -0.40125  -0.40078  -0.39966  -0.39411  -0.39373
 Alpha  occ. eigenvalues --   -0.39191  -0.38768  -0.38693  -0.38617  -0.37924
 Alpha  occ. eigenvalues --   -0.37862  -0.37605  -0.36108  -0.36014  -0.35904
 Alpha  occ. eigenvalues --   -0.35620  -0.35354  -0.34650  -0.33924  -0.33707
 Alpha  occ. eigenvalues --   -0.33270  -0.32885  -0.32797  -0.32689  -0.32270
 Alpha  occ. eigenvalues --   -0.32220  -0.31690  -0.31550  -0.25788  -0.25266
 Alpha  occ. eigenvalues --   -0.23175  -0.22595
 Alpha virt. eigenvalues --   -0.06644  -0.06553   0.00194   0.00874   0.02598
 Alpha virt. eigenvalues --    0.02653   0.04695   0.04802   0.05607   0.06128
 Alpha virt. eigenvalues --    0.06622   0.06800   0.07950   0.07953   0.08675

 Mulliken charges:
               1
     1  Mg   0.952677
     2  C   -0.030117
     3  C   -0.087631
     4  C   -0.053742
     5  C   -0.079028
     6  N   -0.317158
     7  C   -0.009105
     8  C   -0.053875
     9  C   -0.041574
    10  C   -0.009020
    11  C    0.019988
    12  C    0.021135
    13  C   -0.115163
    14  H    0.015660
    15  N   -0.461325
    16  C    0.197421
    17  C   -0.169584
    18  C   -0.061108
    19  C    0.119782
    20  C    0.061096
    21  C    0.038363
    22  O   -0.262832
    23  C    0.013584
    24  N   -0.333103
    25  C    0.064272
    26  C   -0.091910
    27  C   -0.098982
    28  C    0.041170
    29  C    0.031124
    30  C   -0.015222
    31  C   -0.053803
    32  N   -0.449300
    33  C    0.129900
    34  C   -0.162217
    35  C   -0.055521
    36  C    0.145026
    37  C    0.075963
    38  C    0.096412
    39  O   -0.183834
    40  C   -0.041980
    41  C    0.280428
    42  O   -0.275989
    43  O   -0.352436
    44  C    0.140995
    45  H   -0.023845
    46  H    0.028191
    47  H   -0.002380
    48  H    0.045977
    49  H    0.034432
    50  H    0.048912
    51  H    0.031147
    52  H    0.026845
    53  H    0.018594
    54  H    0.024793
    55  H    0.055040
    56  H    0.067016
    57  H    0.025623
    58  H    0.064231
    59  H    0.051438
    60  H    0.063641
    61  H    0.041561
    62  H    0.053069
    63  H    0.040517
    64  H    0.038397
    65  H    0.048221
    66  H    0.046081
    67  H    0.029760
    68  H    0.031736
    69  H    0.025697
    70  H    0.040619
    71  H    0.032192
    72  H    0.041486
    73  H    0.049789
    74  H    0.047477
    75  H    0.057591
    76  H    0.066838
    77  H    0.067288
    78  H    0.052480
    79  H    0.050113
    80  Mg   0.963161
    81  C   -0.002626
    82  C   -0.069568
    83  C   -0.087165
    84  C   -0.078734
    85  N   -0.252411
    86  C   -0.062597
    87  C   -0.061903
    88  C   -0.088940
    89  C    0.000047
    90  C    0.039624
    91  C    0.010101
    92  C   -0.092287
    93  H    0.048577
    94  N   -0.472776
    95  C    0.161450
    96  C   -0.161837
    97  C   -0.088140
    98  C    0.122097
    99  C    0.059501
   100  C    0.076557
   101  O   -0.197427
   102  C   -0.024070
   103  N   -0.321492
   104  C    0.065155
   105  C   -0.102251
   106  C   -0.113932
   107  C    0.058407
   108  C    0.030245
   109  C   -0.010534
   110  C   -0.052942
   111  N   -0.410009
   112  C    0.090518
   113  C   -0.219043
   114  C   -0.051357
   115  C    0.154643
   116  C    0.095830
   117  C    0.138569
   118  O   -0.197764
   119  C   -0.092969
   120  C    0.252621
   121  O   -0.272080
   122  O   -0.331253
   123  C    0.153271
   124  H   -0.010536
   125  H    0.011914
   126  H    0.003366
   127  H    0.040532
   128  H    0.017701
   129  H    0.039846
   130  H    0.042889
   131  H    0.036663
   132  H    0.031764
   133  H    0.047996
   134  H    0.038491
   135  H    0.037319
   136  H    0.044152
   137  H    0.065967
   138  H    0.040845
   139  H    0.086353
   140  H    0.045217
   141  H    0.050774
   142  H    0.043740
   143  H    0.017532
   144  H    0.041910
   145  H    0.045923
   146  H    0.042539
   147  H    0.037392
   148  H    0.027776
   149  H    0.050430
   150  H    0.034817
   151  H    0.039848
   152  H    0.025415
   153  H    0.053092
   154  H    0.055793
   155  H    0.073294
   156  H    0.049822
   157  H    0.060956
   158  H    0.024202
 Sum of Mulliken charges =  -0.00000

 Dipole moment (field-independent basis, Debye):
    X=              1.7452    Y=             -0.9769    Z=              7.8028  Tot=              8.0551
 Quadrupole moment (field-independent basis, Debye-Ang):
   XX=           -355.6044   YY=           -493.3555   ZZ=           -489.9911
   XY=             86.4312   XZ=            -52.5669   YZ=             24.2881

 Normal termination of Gaussian 16 at Sun Sep 19 23:48:54 2021.
