 Gaussian 16, Revision A.03,
 Gaussian 16:  ES64L-G16RevA.03 25-Dec-2016

 --------------------------------
 #p wB97XD/Def2SVP td=(nstates=5)
 --------------------------------

 --------------------------------
 TDDFT excited states in gaussian
 --------------------------------
 Symbolic Z-matrix:
 Charge =  0 Multiplicity = 1

                         Standard orientation:
 ---------------------------------------------------------------------
 Center     Atomic      Atomic             Coordinates (Angstroms)
 Number     Number       Type             X           Y           Z
 ---------------------------------------------------------------------
      1         12           0       16.846617   -0.627944    0.169236
      2          6           0       15.624239    2.247411   -1.465478
      3          6           0       18.520873    1.426705    2.357088
      4          6           0       18.116341   -3.315192    1.733533
      5          6           0       15.607502   -2.647819   -2.405232
      6          7           0       16.881785    1.543996    0.419675
      7          6           0       16.363311    2.554918   -0.271709
      8          6           0       16.657723    3.974399    0.256460
      9          6           0       17.817920    3.560159    1.285324
     10          6           0       17.770591    2.052287    1.326957
     11          6           0       19.184793    4.068693    0.896243
     12          6           0       15.393589    4.693327    0.987675
     13          6           0       15.456910    6.222453    0.930990
     14          1           0       14.268811    6.879059    0.181884
     15          7           0       18.029600   -0.943222    1.945491
     16          6           0       18.667143    0.090237    2.675622
     17          6           0       19.178391   -0.511455    3.886540
     18          6           0       19.055782   -1.891156    3.748744
     19          6           0       18.359201   -2.130263    2.445902
     20          6           0       19.926690    0.254855    4.960904
     21          6           0       19.427882   -3.028644    4.672012
     22          8           0       19.149882   -4.152782    4.371421
     23          6           0       20.073397   -2.794948    6.001386
     24          7           0       17.043414   -2.656682   -0.350933
     25          6           0       17.547409   -3.597566    0.499036
     26          6           0       17.305669   -4.974006   -0.180471
     27          6           0       16.103415   -4.790483   -1.089223
     28          6           0       16.229929   -3.271658   -1.353681
     29          6           0       18.525229   -5.342441   -1.024137
     30          6           0       14.807880   -5.206781   -0.497368
     31          6           0       14.465858   -4.765233    0.904111
     32          7           0       15.794094   -0.332850   -1.576571
     33          6           0       15.357947   -1.221653   -2.541085
     34          6           0       14.635104   -0.474309   -3.581801
     35          6           0       14.703743    0.868794   -3.172606
     36          6           0       15.392738    0.898646   -1.990923
     37          6           0       14.034505   -1.033481   -4.798581
     38          6           0       14.222609    2.201821   -3.418467
     39          8           0       13.461446    2.654071   -4.323491
     40          6           0       14.806767    3.138722   -2.258284
     41          6           0       15.663766    4.173899   -2.939669
     42          8           0       16.478843    3.898206   -3.769333
     43          8           0       15.486130    5.509971   -2.488800
     44          6           0       16.545330    6.471883   -2.920824
     45          1           0       19.101305    2.060951    3.029490
     46          1           0       18.594253   -4.203320    2.153067
     47          1           0       15.048318   -3.226775   -3.143546
     48          1           0       16.935885    4.629818   -0.569802
     49          1           0       17.503322    4.012692    2.226530
     50          1           0       19.344281    4.978399    1.474896
     51          1           0       19.303859    4.182186   -0.181483
     52          1           0       19.867371    3.348670    1.347517
     53          1           0       15.363108    4.406973    2.039404
     54          1           0       14.453271    4.335434    0.567885
     55          1           0       16.427482    6.380153    0.460197
     56          1           0       15.566012    6.666007    1.920481
     57          1           0       19.643971    1.293406    4.793127
     58          1           0       20.966636    0.139557    4.656750
     59          1           0       19.644072   -0.054777    5.967268
     60          1           0       19.223806   -2.372641    6.538273
     61          1           0       20.882569   -2.065210    5.991779
     62          1           0       20.413211   -3.738799    6.429113
     63          1           0       17.173286   -5.812744    0.502094
     64          1           0       16.130565   -5.357836   -2.018940
     65          1           0       18.493829   -5.213838   -2.106118
     66          1           0       18.754876   -6.388345   -0.820817
     67          1           0       19.375361   -4.770154   -0.651094
     68          1           0       14.665278   -6.286430   -0.549168
     69          1           0       14.065550   -4.770818   -1.165676
     70          1           0       13.640085   -4.061378    0.796344
     71          1           0       15.174539   -4.279069    1.575227
     72          1           0       14.061286   -5.624626    1.438539
     73          1           0       14.841504   -1.345679   -5.461358
     74          1           0       13.417872   -0.219232   -5.179020
     75          1           0       13.459815   -1.935131   -4.582553
     76          1           0       13.923237    3.510871   -1.739322
     77          1           0       16.388118    6.766234   -3.958438
     78          1           0       17.555691    6.073600   -2.817288
     79          1           0       16.545773    7.438599   -2.418089
     80         12           0      -16.223764   -0.723617    0.194782
     81          6           0      -18.566012    1.760733    1.101290
     82          6           0      -14.056915    1.602262   -0.682429
     83          6           0      -14.477052   -3.158078   -1.446932
     84          6           0      -19.077694   -3.075171    0.216340
     85          7           0      -16.370935    1.448539    0.173209
     86          6           0      -17.284855    2.222361    0.793883
     87          6           0      -16.732878    3.656207    0.916269
     88          6           0      -15.334859    3.597979    0.389493
     89          6           0      -15.221058    2.130466   -0.123453
     90          6           0      -15.002440    4.779178   -0.611281
     91          6           0      -16.850364    4.386255    2.295975
     92          6           0      -15.736179    5.385156    2.829639
     93          1           0      -16.183598    6.714758    3.454454
     94          7           0      -14.378290   -0.783909   -0.694961
     95          6           0      -13.614604    0.329202   -0.964827
     96          6           0      -12.381352   -0.119473   -1.546097
     97          6           0      -12.456663   -1.536944   -1.838648
     98          6           0      -13.821329   -1.870740   -1.374555
     99          6           0      -11.365400    0.894345   -1.886331
    100          6           0      -11.396652   -2.510141   -2.411102
    101          8           0      -11.677150   -3.644659   -2.617720
    102          6           0       -9.958744   -2.109302   -2.473575
    103          7           0      -16.765851   -2.811616   -0.555620
    104          6           0      -15.768651   -3.568461   -1.066101
    105          6           0      -16.235921   -5.027925   -1.369586
    106          6           0      -17.691195   -5.035900   -0.809567
    107          6           0      -17.902887   -3.568802   -0.360550
    108          6           0      -16.179410   -5.442894   -2.815768
    109          6           0      -18.030831   -6.031307    0.354394
    110          6           0      -17.600802   -5.701238    1.743714
    111          7           0      -18.378259   -0.789218    0.570146
    112          6           0      -19.312767   -1.784659    0.586567
    113          6           0      -20.556921   -1.262921    1.097381
    114          6           0      -20.352820    0.123961    1.322329
    115          6           0      -19.018154    0.366805    0.939036
    116          6           0      -21.868158   -1.960144    1.190714
    117          6           0      -20.955895    1.360926    1.729295
    118          8           0      -22.067952    1.656726    2.151316
    119          6           0      -19.814573    2.471765    1.653273
    120          6           0      -20.250796    3.720917    0.906383
    121          8           0      -20.521357    3.741664   -0.266607
    122          8           0      -20.236165    4.800094    1.775653
    123          6           0      -20.678002    6.048884    1.153832
    124          1           0      -13.210696    2.281554   -0.807750
    125          1           0      -13.836023   -3.893913   -1.936367
    126          1           0      -19.895957   -3.789926    0.325143
    127          1           0      -17.442916    4.151494    0.253956
    128          1           0      -14.662579    3.780766    1.228234
    129          1           0      -15.826532    5.492405   -0.615002
    130          1           0      -14.721720    4.332536   -1.565079
    131          1           0      -14.183072    5.394177   -0.238646
    132          1           0      -16.935727    3.605690    3.052371
    133          1           0      -17.785090    4.940698    2.383543
    134          1           0      -15.108848    5.576422    1.958792
    135          1           0      -15.115825    4.865281    3.559801
    136          1           0      -10.904810    0.546048   -2.810528
    137          1           0      -10.607289    0.859519   -1.104822
    138          1           0      -11.619947    1.946210   -2.017336
    139          1           0       -9.880547   -1.690574   -3.476045
    140          1           0       -9.338247   -2.972107   -2.229475
    141          1           0       -9.679709   -1.283529   -1.818727
    142          1           0      -15.713250   -5.758275   -0.751599
    143          1           0      -18.531272   -5.149409   -1.494040
    144          1           0      -15.629590   -4.718125   -3.417595
    145          1           0      -17.170137   -5.501484   -3.267241
    146          1           0      -15.672361   -6.407440   -2.822038
    147          1           0      -17.616369   -7.013749    0.128020
    148          1           0      -19.096905   -6.252180    0.296825
    149          1           0      -16.760722   -5.007100    1.713555
    150          1           0      -17.216895   -6.471480    2.412998
    151          1           0      -18.499287   -5.321108    2.230886
    152          1           0      -22.260142   -2.327644    0.242789
    153          1           0      -22.600035   -1.170684    1.363441
    154          1           0      -21.861936   -2.734668    1.958139
    155          1           0      -19.572501    2.714659    2.688120
    156          1           0      -19.668111    6.449910    1.234084
    157          1           0      -21.374875    6.457957    1.884974
    158          1           0      -21.071310    5.912105    0.146278
 ---------------------------------------------------------------------

 SCF Done:  E(RwB97XD) =  -4070.59111311     A.U. after   20 cycles

 Excitation energies and oscillator strengths:

 Excited State   1:      Singlet-A      1.6417 eV  755.22 nm  f=0.4072  <S**2>=0.000
     310 -> 316        0.19159
     312 -> 314        0.67680
     310 <- 316        0.11916
 This state for optimization and/or second-order correction.
 Total Energy, E(TD-HF/TD-DFT) =  -4070.53078183
 Copying the excited state density for this state as the 1-particle RhoCI density.

 Excited State   2:      Singlet-A      1.6531 eV  749.99 nm  f=0.3481  <S**2>=0.000
     309 -> 315        0.17654
     311 -> 313        0.68054
     309 <- 315        0.11296

 Excited State   3:      Singlet-A      2.1321 eV  581.52 nm  f=0.0869  <S**2>=0.000
     310 -> 314        0.63785
     312 -> 316       -0.28431

 Excited State   4:      Singlet-A      2.1347 eV  580.80 nm  f=0.1333  <S**2>=0.000
     309 -> 313        0.64238
     311 -> 315       -0.27041

 Excited State   5:      Singlet-A      3.3486 eV  370.26 nm  f=0.0010  <S**2>=0.000
     306 -> 314       -0.22037
     308 -> 314        0.64957

 The electronic state is 1-A.
 Alpha  occ. eigenvalues --  -46.96294 -46.95006 -19.29950 -19.29767 -19.24988
 Alpha  occ. eigenvalues --  -19.24922 -19.24557 -19.24196 -19.23645 -19.23328
 Alpha  occ. eigenvalues --  -14.48083 -14.46763 -14.46344 -14.45980 -14.44392
 Alpha  occ. eigenvalues --  -14.44071 -14.43679 -14.43352 -10.43289 -10.42932
 Alpha  occ. eigenvalues --  -10.39646 -10.39231 -10.38808 -10.38779 -10.35998
 Alpha  occ. eigenvalues --  -10.35644 -10.35501 -10.35416 -10.35151 -10.35114
 Alpha  occ. eigenvalues --  -10.35107 -10.34962 -10.34932 -10.34806 -10.34710
 Alpha  occ. eigenvalues --  -10.34567 -10.34314 -10.33712 -10.33577 -10.33447
 Alpha  occ. eigenvalues --  -10.33395 -10.33008 -10.32993 -10.32836 -10.32792
 Alpha  occ. eigenvalues --  -10.32570 -10.32518 -10.32374 -10.32370 -10.32363
 Alpha  occ. eigenvalues --  -10.32296 -10.32284 -10.32239 -10.32047 -10.32030
 Alpha  occ. eigenvalues --  -10.31845 -10.31754 -10.31662 -10.31633 -10.31368
 Alpha  occ. eigenvalues --  -10.31282 -10.31232 -10.31197 -10.31192 -10.30921
 Alpha  occ. eigenvalues --  -10.30753 -10.30726 -10.30717 -10.30668 -10.30544
 Alpha  occ. eigenvalues --  -10.30410 -10.30384 -10.30381 -10.30351 -10.30221
 Alpha  occ. eigenvalues --  -10.30018 -10.29715 -10.29345 -10.29232 -10.29005
 Alpha  occ. eigenvalues --  -10.28972 -10.28911 -10.28877 -10.28744 -10.28441
 Alpha  occ. eigenvalues --  -10.28327  -3.22089  -3.20939  -1.95642  -1.95212
 Alpha  occ. eigenvalues --   -1.95038  -1.94552  -1.94040  -1.93926  -1.18424
 Alpha  occ. eigenvalues --   -1.17784  -1.15084  -1.14429  -1.11407  -1.10710
 Alpha  occ. eigenvalues --   -1.09621  -1.08900  -1.07371  -1.06181  -1.05685
 Alpha  occ. eigenvalues --   -1.05099  -1.04972  -1.04478  -1.03837  -1.03811
 Alpha  occ. eigenvalues --   -0.94970  -0.93538  -0.92045  -0.91372  -0.91125
 Alpha  occ. eigenvalues --   -0.90822  -0.90703  -0.90153  -0.89863  -0.89268
 Alpha  occ. eigenvalues --   -0.89076  -0.88900  -0.88160  -0.87997  -0.86666
 Alpha  occ. eigenvalues --   -0.85844  -0.85558  -0.85473  -0.84635  -0.84479
 Alpha  occ. eigenvalues --   -0.84407  -0.83868  -0.83097  -0.82746  -0.82329
 Alpha  occ. eigenvalues --   -0.81920  -0.80979  -0.80224  -0.79309  -0.79056
 Alpha  occ. eigenvalues --   -0.79024  -0.78977  -0.78263  -0.77769  -0.76991
 Alpha  occ. eigenvalues --   -0.76562  -0.74482  -0.74282  -0.73395  -0.73360
 Alpha  occ. eigenvalues --   -0.71691  -0.71659  -0.71156  -0.70899  -0.70173
 Alpha  occ. eigenvalues --   -0.69873  -0.69150  -0.68894  -0.67835  -0.67014
 Alpha  occ. eigenvalues --   -0.66892  -0.66257  -0.66194  -0.66053  -0.65968
 Alpha  occ. eigenvalues --   -0.65386  -0.63808  -0.63653  -0.62469  -0.62003
 Alpha  occ. eigenvalues --   -0.61962  -0.61472  -0.61204  -0.61008  -0.60765
 Alpha  occ. eigenvalues --   -0.60594  -0.60281  -0.59942  -0.59647  -0.59349
 Alpha  occ. eigenvalues --   -0.58473  -0.58012  -0.57809  -0.57808  -0.57295
 Alpha  occ. eigenvalues --   -0.56956  -0.56758  -0.56496  -0.56492  -0.56057
 Alpha  occ. eigenvalues --   -0.55993  -0.55962  -0.55728  -0.55651  -0.55630
 Alpha  occ. eigenvalues --   -0.55251  -0.55041  -0.54675  -0.54410  -0.54258
 Alpha  occ. eigenvalues --   -0.53863  -0.53675  -0.53639  -0.53502  -0.53103
 Alpha  occ. eigenvalues --   -0.52836  -0.52800  -0.52723  -0.52677  -0.52482
 Alpha  occ. eigenvalues --   -0.52249  -0.52193  -0.51964  -0.51916  -0.51677
 Alpha  occ. eigenvalues --   -0.51595  -0.51394  -0.51136  -0.51084  -0.51071
 Alpha  occ. eigenvalues --   -0.50898  -0.50630  -0.50486  -0.50323  -0.50254
 Alpha  occ. eigenvalues --   -0.50207  -0.49736  -0.49640  -0.49606  -0.49141
 Alpha  occ. eigenvalues --   -0.49139  -0.49035  -0.48723  -0.48690  -0.48323
 Alpha  occ. eigenvalues --   -0.47931  -0.47852  -0.47718  -0.47514  -0.47424
 Alpha  occ. eigenvalues --   -0.47385  -0.47331  -0.47166  -0.46968  -0.46521
 Alpha  occ. eigenvalues --   -0.46470  -0.46289  -0.46211  -0.46141  -0.45971
 Alpha  occ. eigenvalues --   -0.45699  -0.45606  -0.45534  -0.45492  -0.45185
 Alpha  occ. eigenvalues --   -0.45184  -0.45091  -0.44937  -0.44869  -0.44829
 Alpha  occ. eigenvalues --   -0.44518  -0.44483  -0.44455  -0.44296  -0.43929
 Alpha  occ. eigenvalues --   -0.43800  -0.43734  -0.43545  -0.43383  -0.43008
 Alpha  occ. eigenvalues --   -0.42949  -0.42771  -0.42446  -0.42342  -0.42213
 Alpha  occ. eigenvalues --   -0.41988  -0.41705  -0.41475  -0.41065  -0.40810
 Alpha  occ. eigenvalues --   -0.40363  -0.40006  -0.39811  -0.39736  -0.39338
 Alpha  occ. eigenvalues --   -0.39299  -0.39146  -0.38963  -0.38435  -0.38279
 Alpha  occ. eigenvalues --   -0.37886  -0.37632  -0.36679  -0.36564  -0.36558
 Alpha  occ. eigenvalues --   -0.35526  -0.35461  -0.35336  -0.33962  -0.33710
 Alpha  occ. eigenvalues --   -0.33426  -0.32996  -0.32596  -0.32391  -0.32203
 Alpha  occ. eigenvalues --   -0.31977  -0.31507  -0.31471  -0.26133  -0.25702
 Alpha  occ. eigenvalues --   -0.23263  -0.22814
 Alpha virt. eigenvalues --   -0.07352  -0.06964   0.00130   0.00329   0.02425
 Alpha virt. eigenvalues --    0.02507   0.04240   0.04281   0.04675   0.06203
 Alpha virt. eigenvalues --    0.07042   0.07089   0.07659   0.07829   0.08032

 Mulliken charges:
               1
     1  Mg   0.953728
     2  C   -0.042908
     3  C   -0.110314
     4  C   -0.074527
     5  C   -0.071281
     6  N   -0.321053
     7  C   -0.004195
     8  C   -0.076425
     9  C   -0.141294
    10  C    0.116727
    11  C    0.056666
    12  C    0.009168
    13  C   -0.101738
    14  H    0.060611
    15  N   -0.444615
    16  C    0.147198
    17  C   -0.177172
    18  C   -0.058209
    19  C    0.148299
    20  C    0.068289
    21  C    0.023149
    22  O   -0.209920
    23  C   -0.009795
    24  N   -0.406291
    25  C    0.080516
    26  C   -0.094105
    27  C   -0.043985
    28  C    0.107929
    29  C    0.034238
    30  C    0.007504
    31  C   -0.069519
    32  N   -0.442733
    33  C    0.083728
    34  C   -0.209159
    35  C    0.007079
    36  C    0.127399
    37  C    0.079133
    38  C    0.099075
    39  O   -0.251586
    40  C   -0.045786
    41  C    0.263323
    42  O   -0.210350
    43  O   -0.401547
    44  C    0.135656
    45  H    0.006498
    46  H    0.021314
    47  H   -0.000376
    48  H    0.038142
    49  H    0.035945
    50  H    0.032128
    51  H    0.057781
    52  H    0.022891
    53  H    0.027373
    54  H    0.042766
    55  H    0.027528
    56  H    0.044594
    57  H    0.032558
    58  H    0.076133
    59  H    0.059626
    60  H    0.059830
    61  H    0.052738
    62  H    0.062008
    63  H    0.025022
    64  H    0.018290
    65  H    0.045028
    66  H    0.032997
    67  H    0.031309
    68  H    0.032166
    69  H    0.016141
    70  H    0.030602
    71  H    0.056725
    72  H    0.029946
    73  H    0.053991
    74  H    0.066142
    75  H    0.035017
    76  H    0.077579
    77  H    0.056943
    78  H    0.049927
    79  H    0.051789
    80  Mg   0.948335
    81  C   -0.025430
    82  C   -0.065310
    83  C   -0.063976
    84  C   -0.102360
    85  N   -0.370911
    86  C   -0.016009
    87  C   -0.028210
    88  C   -0.134710
    89  C    0.098541
    90  C    0.020663
    91  C   -0.030134
    92  C   -0.123546
    93  H    0.053454
    94  N   -0.508359
    95  C    0.144445
    96  C   -0.142027
    97  C   -0.082429
    98  C    0.113064
    99  C    0.033040
   100  C    0.056532
   101  O   -0.199121
   102  C   -0.017945
   103  N   -0.306806
   104  C    0.065628
   105  C   -0.068816
   106  C   -0.047996
   107  C    0.007367
   108  C    0.036414
   109  C   -0.047551
   110  C   -0.031072
   111  N   -0.393280
   112  C    0.166187
   113  C   -0.184941
   114  C   -0.031389
   115  C    0.105886
   116  C    0.061933
   117  C    0.130742
   118  O   -0.210313
   119  C   -0.060594
   120  C    0.252722
   121  O   -0.228666
   122  O   -0.379425
   123  C    0.117946
   124  H   -0.017271
   125  H    0.026245
   126  H   -0.005228
   127  H    0.048808
   128  H    0.042251
   129  H    0.042676
   130  H    0.050178
   131  H    0.032167
   132  H    0.030162
   133  H    0.046361
   134  H    0.034888
   135  H    0.055803
   136  H    0.037282
   137  H    0.055435
   138  H    0.058345
   139  H    0.064675
   140  H    0.073710
   141  H    0.037398
   142  H    0.039921
   143  H    0.035214
   144  H    0.044223
   145  H    0.034846
   146  H    0.041325
   147  H    0.023697
   148  H    0.022388
   149  H    0.035777
   150  H    0.033292
   151  H    0.037173
   152  H    0.045424
   153  H    0.051327
   154  H    0.052580
   155  H    0.070850
   156  H    0.051495
   157  H    0.068728
   158  H    0.086281
 Sum of Mulliken charges =  -0.00000

 Dipole moment (field-independent basis, Debye):
    X=              8.7714    Y=              0.9477    Z=              7.4268  Tot=             11.5323
 Quadrupole moment (field-independent basis, Debye-Ang):
   XX=           -585.0458   YY=           -464.7668   ZZ=           -524.8666
   XY=             43.8478   XZ=             93.5574   YZ=             26.2470

 Normal termination of Gaussian 16 at Sat Sep 18 05:50:20 2021.
