 Gaussian 16, Revision A.03,
 Gaussian 16:  ES64L-G16RevA.03 25-Dec-2016

 --------------------------------
 #p wB97XD/Def2SVP td=(nstates=5)
 --------------------------------

 --------------------------------
 TDDFT excited states in gaussian
 --------------------------------
 Symbolic Z-matrix:
 Charge =  0 Multiplicity = 1

                         Standard orientation:
 ---------------------------------------------------------------------
 Center     Atomic      Atomic             Coordinates (Angstroms)
 Number     Number       Type             X           Y           Z
 ---------------------------------------------------------------------
      1         12           0      -32.099817    0.046738    0.489461
      2          6           0      -29.744744   -1.358340   -1.819729
      3          6           0      -33.546736    1.691465   -2.173776
      4          6           0      -33.804892    1.773274    2.677381
      5          6           0      -30.331209   -1.545784    3.008655
      6          7           0      -31.498157    0.372324   -1.772681
      7          6           0      -30.585945   -0.414264   -2.422501
      8          6           0      -30.784215   -0.277868   -3.955957
      9          6           0      -31.977626    0.758615   -4.085503
     10          6           0      -32.398838    1.012275   -2.592117
     11          6           0      -31.686617    2.137660   -4.814024
     12          6           0      -31.097162   -1.602445   -4.701857
     13          6           0      -30.377918   -1.867578   -5.976395
     14          1           0      -29.668830   -0.744465   -6.825513
     15          7           0      -33.523397    1.581879    0.309847
     16          6           0      -34.108409    2.049320   -0.866697
     17          6           0      -35.078419    3.108153   -0.527508
     18          6           0      -35.231999    3.044463    0.910676
     19          6           0      -34.167383    2.119914    1.364852
     20          6           0      -35.801609    3.987403   -1.502255
     21          6           0      -36.215960    3.767953    1.860004
     22          8           0      -36.466528    3.419026    3.032931
     23          6           0      -37.044436    4.846576    1.287052
     24          7           0      -32.010823    0.127445    2.482631
     25          6           0      -32.817656    1.011546    3.164643
     26          6           0      -32.778474    0.741483    4.694337
     27          6           0      -31.917708   -0.597954    4.737750
     28          6           0      -31.387598   -0.704570    3.318404
     29          6           0      -32.223078    1.881911    5.641559
     30          6           0      -32.640309   -1.871475    5.147431
     31          6           0      -32.177540   -2.503353    6.476958
     32          7           0      -30.514847   -1.347504    0.602669
     33          6           0      -29.889448   -1.878787    1.705734
     34          6           0      -28.747185   -2.701828    1.287274
     35          6           0      -28.714745   -2.554544   -0.088091
     36          6           0      -29.797363   -1.727618   -0.462293
     37          6           0      -27.775976   -3.463223    2.127716
     38          6           0      -27.994637   -2.991805   -1.229560
     39          8           0      -27.063326   -3.834097   -1.373528
     40          6           0      -28.594490   -2.266335   -2.358560
     41          6           0      -27.527246   -1.549445   -3.140521
     42          8           0      -26.927240   -0.599125   -2.769688
     43          8           0      -27.402278   -2.099871   -4.347950
     44          6           0      -26.259474   -1.795904   -5.140481
     45          1           0      -34.056874    2.258146   -2.955703
     46          1           0      -34.327876    2.238658    3.516501
     47          1           0      -29.735184   -1.978728    3.813726
     48          1           0      -29.850136    0.133759   -4.340057
     49          1           0      -32.819507    0.292471   -4.596528
     50          1           0      -30.718946    2.208443   -5.309929
     51          1           0      -31.656441    2.901550   -4.035702
     52          1           0      -32.493663    2.380653   -5.505872
     53          1           0      -32.146329   -1.690659   -4.986344
     54          1           0      -30.869765   -2.485667   -4.105632
     55          1           0      -31.075819   -2.259122   -6.717102
     56          1           0      -29.627973   -2.630658   -5.769934
     57          1           0      -35.634403    5.031824   -1.239854
     58          1           0      -36.861872    3.762310   -1.386988
     59          1           0      -35.596290    3.697532   -2.533269
     60          1           0      -36.370401    5.638827    0.961148
     61          1           0      -37.619802    5.241891    2.123829
     62          1           0      -37.764632    4.469380    0.561516
     63          1           0      -33.805082    0.498323    4.970146
     64          1           0      -31.112358   -0.428565    5.452397
     65          1           0      -31.938663    2.752936    5.052284
     66          1           0      -31.436923    1.535756    6.313651
     67          1           0      -33.027689    2.147333    6.327495
     68          1           0      -32.733584   -2.646847    4.386905
     69          1           0      -33.679028   -1.595280    5.325679
     70          1           0      -32.045556   -3.585061    6.490698
     71          1           0      -33.018837   -2.424886    7.166078
     72          1           0      -31.258688   -2.095030    6.895602
     73          1           0      -28.142814   -3.636452    3.139815
     74          1           0      -26.891553   -2.855588    2.318678
     75          1           0      -27.473069   -4.329333    1.539457
     76          1           0      -29.062868   -3.026224   -2.983541
     77          1           0      -25.426029   -2.337329   -4.690681
     78          1           0      -25.986861   -0.744767   -5.045009
     79          1           0      -26.377890   -2.163267   -6.160201
     80         12           0       31.961549    0.438930   -0.272251
     81          6           0       29.587564   -1.938200    0.556594
     82          6           0       29.547445    2.902308   -0.012197
     83          6           0       34.437264    2.732948   -0.328380
     84          6           0       34.324499   -2.176152   -0.147935
     85          7           0       29.859906    0.497835    0.500997
     86          6           0       29.114081   -0.608212    0.573279
     87          6           0       27.656040   -0.243183    0.991078
     88          6           0       27.584462    1.290398    0.535610
     89          6           0       29.100973    1.604513    0.240357
     90          6           0       26.576142    1.531680   -0.613556
     91          6           0       27.493559   -0.352873    2.490072
     92          6           0       26.181904   -0.958787    2.964455
     93          1           0       25.423251   -0.452427    4.248656
     94          7           0       31.925483    2.572159   -0.354639
     95          6           0       30.887087    3.404252   -0.164599
     96          6           0       31.372762    4.737928   -0.311536
     97          6           0       32.774344    4.719233   -0.583754
     98          6           0       33.128168    3.299002   -0.468868
     99          6           0       30.450879    5.899172   -0.374467
    100          6           0       33.618006    5.938310   -0.704183
    101          8           0       33.105002    7.044567   -0.673476
    102          6           0       35.121418    5.849311   -0.937453
    103          7           0       34.168841    0.262117   -0.327918
    104          6           0       34.910499    1.403745   -0.274191
    105          6           0       36.347964    1.087239   -0.017047
    106          6           0       36.291863   -0.512199    0.046296
    107          6           0       34.858669   -0.900120   -0.220640
    108          6           0       37.333453    1.680700   -1.041115
    109          6           0       36.870960   -1.178522    1.372041
    110          6           0       37.928751   -2.304023    1.288710
    111          7           0       31.992280   -1.598492    0.086503
    112          6           0       32.991821   -2.518295    0.030545
    113          6           0       32.455883   -3.805373   -0.030559
    114          6           0       31.086074   -3.672275    0.149244
    115          6           0       30.863966   -2.325263    0.289259
    116          6           0       33.300319   -5.109432   -0.131283
    117          6           0       29.870294   -4.335462    0.235972
    118          8           0       29.670579   -5.544279    0.280998
    119          6           0       28.733275   -3.251899    0.563354
    120          6           0       27.780327   -3.150062   -0.482318
    121          8           0       27.849044   -2.607730   -1.587873
    122          8           0       26.639410   -3.802308   -0.024997
    123          6           0       25.450668   -3.892595   -0.855414
    124          1           0       28.767431    3.662632   -0.086219
    125          1           0       35.337348    3.351548   -0.352058
    126          1           0       35.128302   -2.912053   -0.218804
    127          1           0       26.981356   -0.928941    0.479347
    128          1           0       27.379090    1.985940    1.348687
    129          1           0       26.161953    0.597132   -0.991420
    130          1           0       27.068993    2.072481   -1.422104
    131          1           0       25.797838    2.192045   -0.231808
    132          1           0       27.644941    0.549837    3.082281
    133          1           0       28.364412   -0.922804    2.813900
    134          1           0       26.345054   -2.034664    3.025138
    135          1           0       25.547104   -0.787007    2.095206
    136          1           0       30.352412    6.066798   -1.446828
    137          1           0       30.861645    6.765367    0.144614
    138          1           0       29.475534    5.697939    0.068732
    139          1           0       35.558245    5.645675    0.040323
    140          1           0       35.441054    6.864054   -1.173319
    141          1           0       35.352635    5.093198   -1.687631
    142          1           0       36.466034    1.541089    0.966384
    143          1           0       36.949143   -0.965684   -0.695639
    144          1           0       37.832329    2.504695   -0.529894
    145          1           0       36.845808    2.009702   -1.959336
    146          1           0       38.099725    0.941642   -1.273774
    147          1           0       36.037443   -1.605182    1.929809
    148          1           0       37.380794   -0.463131    2.017695
    149          1           0       37.266322   -3.168793    1.252737
    150          1           0       38.510231   -2.346403    2.208769
    151          1           0       38.510877   -2.443200    0.377840
    152          1           0       33.765322   -5.293447    0.836384
    153          1           0       34.146378   -5.081796   -0.818232
    154          1           0       32.669324   -5.963578   -0.378565
    155          1           0       28.316708   -3.544586    1.527276
    156          1           0       24.954833   -4.828158   -0.598466
    157          1           0       25.618793   -3.756894   -1.924117
    158          1           0       24.754448   -3.126932   -0.512865
 ---------------------------------------------------------------------

 SCF Done:  E(RwB97XD) =  -4070.58262296     A.U. after   19 cycles

 Excitation energies and oscillator strengths:

 Excited State   1:      Singlet-A      1.6376 eV  757.13 nm  f=0.3984  <S**2>=0.000
     309 -> 315       -0.19094
     311 -> 313        0.68257
     309 <- 315       -0.11966
 This state for optimization and/or second-order correction.
 Total Energy, E(TD-HF/TD-DFT) =  -4070.52244369
 Copying the excited state density for this state as the 1-particle RhoCI density.

 Excited State   2:      Singlet-A      1.6708 eV  742.04 nm  f=0.4218  <S**2>=0.000
     310 -> 316       -0.18117
     312 -> 314        0.68456
     310 <- 316       -0.11413

 Excited State   3:      Singlet-A      2.1576 eV  574.64 nm  f=0.1257  <S**2>=0.000
     310 -> 314        0.64762
     312 -> 316        0.26959

 Excited State   4:      Singlet-A      2.1723 eV  570.76 nm  f=0.0972  <S**2>=0.000
     309 -> 313        0.63457
     311 -> 315        0.29665

 Excited State   5:      Singlet-A      3.2598 eV  380.35 nm  f=0.0049  <S**2>=0.000
     307 -> 313        0.67175
     311 -> 315       -0.12911

 The electronic state is 1-A.
 Alpha  occ. eigenvalues --  -46.96035 -46.95250 -19.30246 -19.29884 -19.25137
 Alpha  occ. eigenvalues --  -19.24614 -19.24325 -19.24191 -19.23518 -19.23373
 Alpha  occ. eigenvalues --  -14.46926 -14.46657 -14.46616 -14.46221 -14.44423
 Alpha  occ. eigenvalues --  -14.44338 -14.44104 -14.43822 -10.43455 -10.42914
 Alpha  occ. eigenvalues --  -10.39258 -10.38869 -10.38796 -10.38580 -10.35779
 Alpha  occ. eigenvalues --  -10.35570 -10.35443 -10.35392 -10.35314 -10.35255
 Alpha  occ. eigenvalues --  -10.35155 -10.35079 -10.34938 -10.34893 -10.34679
 Alpha  occ. eigenvalues --  -10.34121 -10.33809 -10.33660 -10.33474 -10.33437
 Alpha  occ. eigenvalues --  -10.33384 -10.32995 -10.32807 -10.32805 -10.32763
 Alpha  occ. eigenvalues --  -10.32550 -10.32494 -10.32479 -10.32396 -10.32363
 Alpha  occ. eigenvalues --  -10.32352 -10.32308 -10.32301 -10.32245 -10.32231
 Alpha  occ. eigenvalues --  -10.32170 -10.31920 -10.31913 -10.31893 -10.31608
 Alpha  occ. eigenvalues --  -10.31564 -10.31436 -10.31252 -10.31079 -10.31079
 Alpha  occ. eigenvalues --  -10.30865 -10.30791 -10.30742 -10.30733 -10.30721
 Alpha  occ. eigenvalues --  -10.30709 -10.30446 -10.30422 -10.30152 -10.29988
 Alpha  occ. eigenvalues --  -10.29911 -10.29758 -10.29737 -10.29729 -10.29701
 Alpha  occ. eigenvalues --  -10.29394 -10.29317 -10.29280 -10.29159 -10.28871
 Alpha  occ. eigenvalues --  -10.28830  -3.21824  -3.21271  -1.95421  -1.94936
 Alpha  occ. eigenvalues --   -1.94843  -1.94782  -1.94406  -1.94240  -1.20834
 Alpha  occ. eigenvalues --   -1.17911  -1.12288  -1.12198  -1.11935  -1.10455
 Alpha  occ. eigenvalues --   -1.10382  -1.09716  -1.07567  -1.06916  -1.06091
 Alpha  occ. eigenvalues --   -1.05876  -1.05809  -1.04671  -1.04513  -1.03774
 Alpha  occ. eigenvalues --   -0.95907  -0.95644  -0.91412  -0.91037  -0.91009
 Alpha  occ. eigenvalues --   -0.90412  -0.90268  -0.90247  -0.89838  -0.89743
 Alpha  occ. eigenvalues --   -0.88854  -0.88771  -0.88211  -0.88177  -0.87375
 Alpha  occ. eigenvalues --   -0.86537  -0.86526  -0.85403  -0.84954  -0.84521
 Alpha  occ. eigenvalues --   -0.84166  -0.83965  -0.83658  -0.83458  -0.82752
 Alpha  occ. eigenvalues --   -0.82479  -0.80251  -0.80139  -0.79670  -0.79559
 Alpha  occ. eigenvalues --   -0.79095  -0.78509  -0.78429  -0.78279  -0.77131
 Alpha  occ. eigenvalues --   -0.77122  -0.75507  -0.75196  -0.74389  -0.73475
 Alpha  occ. eigenvalues --   -0.71842  -0.71387  -0.71206  -0.70939  -0.70099
 Alpha  occ. eigenvalues --   -0.69439  -0.69359  -0.68212  -0.68100  -0.67853
 Alpha  occ. eigenvalues --   -0.67850  -0.67495  -0.66872  -0.66870  -0.66828
 Alpha  occ. eigenvalues --   -0.66470  -0.65036  -0.64713  -0.62490  -0.62316
 Alpha  occ. eigenvalues --   -0.61929  -0.61887  -0.61309  -0.61143  -0.61103
 Alpha  occ. eigenvalues --   -0.61068  -0.60196  -0.60173  -0.60010  -0.59740
 Alpha  occ. eigenvalues --   -0.58436  -0.58341  -0.58110  -0.58090  -0.57468
 Alpha  occ. eigenvalues --   -0.57135  -0.56900  -0.56794  -0.56321  -0.55706
 Alpha  occ. eigenvalues --   -0.55517  -0.55337  -0.55337  -0.55231  -0.54923
 Alpha  occ. eigenvalues --   -0.54673  -0.54594  -0.54357  -0.54261  -0.54055
 Alpha  occ. eigenvalues --   -0.54009  -0.53813  -0.53648  -0.53503  -0.53449
 Alpha  occ. eigenvalues --   -0.53420  -0.53221  -0.53039  -0.52303  -0.52087
 Alpha  occ. eigenvalues --   -0.52031  -0.51951  -0.51933  -0.51794  -0.51526
 Alpha  occ. eigenvalues --   -0.51425  -0.51265  -0.51010  -0.50981  -0.50928
 Alpha  occ. eigenvalues --   -0.50698  -0.50541  -0.50336  -0.50214  -0.50206
 Alpha  occ. eigenvalues --   -0.50149  -0.49620  -0.49441  -0.49340  -0.48864
 Alpha  occ. eigenvalues --   -0.48840  -0.48712  -0.48707  -0.48652  -0.48537
 Alpha  occ. eigenvalues --   -0.48170  -0.48083  -0.48074  -0.47987  -0.47900
 Alpha  occ. eigenvalues --   -0.47762  -0.47755  -0.47425  -0.47263  -0.47188
 Alpha  occ. eigenvalues --   -0.47095  -0.46752  -0.46666  -0.46505  -0.46493
 Alpha  occ. eigenvalues --   -0.46425  -0.45840  -0.45627  -0.45561  -0.45380
 Alpha  occ. eigenvalues --   -0.45364  -0.45088  -0.44903  -0.44833  -0.44590
 Alpha  occ. eigenvalues --   -0.44521  -0.44148  -0.44137  -0.44011  -0.43860
 Alpha  occ. eigenvalues --   -0.43836  -0.43805  -0.43552  -0.43407  -0.43333
 Alpha  occ. eigenvalues --   -0.43136  -0.42923  -0.42893  -0.42207  -0.42182
 Alpha  occ. eigenvalues --   -0.41997  -0.41633  -0.41573  -0.41030  -0.40301
 Alpha  occ. eigenvalues --   -0.40149  -0.40083  -0.39912  -0.39847  -0.39412
 Alpha  occ. eigenvalues --   -0.39245  -0.39098  -0.38572  -0.38284  -0.38256
 Alpha  occ. eigenvalues --   -0.37764  -0.37589  -0.36836  -0.36669  -0.36501
 Alpha  occ. eigenvalues --   -0.36121  -0.35768  -0.35161  -0.34039  -0.33721
 Alpha  occ. eigenvalues --   -0.33570  -0.33274  -0.32866  -0.32680  -0.32629
 Alpha  occ. eigenvalues --   -0.32606  -0.31650  -0.31594  -0.26486  -0.26047
 Alpha  occ. eigenvalues --   -0.23353  -0.23115
 Alpha virt. eigenvalues --   -0.07555  -0.07286  -0.00380   0.00448   0.01847
 Alpha virt. eigenvalues --    0.01890   0.04120   0.04442   0.05401   0.05673
 Alpha virt. eigenvalues --    0.06221   0.07182   0.07814   0.08126   0.08349

 Mulliken charges:
               1
     1  Mg   0.968502
     2  C   -0.020834
     3  C   -0.037296
     4  C   -0.069042
     5  C   -0.100351
     6  N   -0.318786
     7  C   -0.004868
     8  C   -0.025591
     9  C   -0.108439
    10  C    0.038766
    11  C    0.011080
    12  C    0.007037
    13  C   -0.131900
    14  H    0.014340
    15  N   -0.444984
    16  C    0.109636
    17  C   -0.188460
    18  C   -0.082182
    19  C    0.150601
    20  C    0.090865
    21  C    0.056787
    22  O   -0.260084
    23  C   -0.010186
    24  N   -0.428936
    25  C    0.096551
    26  C   -0.123036
    27  C   -0.081929
    28  C    0.106366
    29  C    0.027995
    30  C    0.012438
    31  C   -0.064928
    32  N   -0.411650
    33  C    0.113940
    34  C   -0.170911
    35  C   -0.051412
    36  C    0.143941
    37  C    0.088554
    38  C    0.114943
    39  O   -0.251354
    40  C   -0.029016
    41  C    0.225735
    42  O   -0.205807
    43  O   -0.332408
    44  C    0.138715
    45  H   -0.013841
    46  H    0.020127
    47  H   -0.001530
    48  H    0.046116
    49  H    0.041910
    50  H    0.041065
    51  H    0.040364
    52  H    0.039987
    53  H    0.033340
    54  H    0.031250
    55  H    0.045760
    56  H    0.057651
    57  H    0.058265
    58  H    0.041381
    59  H    0.035363
    60  H    0.054150
    61  H    0.046930
    62  H    0.066218
    63  H    0.046341
    64  H    0.023292
    65  H    0.051616
    66  H    0.034837
    67  H    0.038261
    68  H    0.040934
    69  H    0.022555
    70  H    0.029647
    71  H    0.032291
    72  H    0.037088
    73  H    0.030947
    74  H    0.058231
    75  H    0.072579
    76  H    0.069287
    77  H    0.047668
    78  H    0.056357
    79  H    0.061164
    80  Mg   0.939096
    81  C   -0.063612
    82  C   -0.088151
    83  C   -0.039684
    84  C   -0.124239
    85  N   -0.332207
    86  C    0.013032
    87  C   -0.124765
    88  C   -0.102968
    89  C    0.083858
    90  C    0.035827
    91  C    0.029677
    92  C   -0.116608
    93  H    0.044730
    94  N   -0.455853
    95  C    0.158414
    96  C   -0.182172
    97  C   -0.057374
    98  C    0.198264
    99  C    0.076295
   100  C    0.004779
   101  O   -0.236061
   102  C    0.002897
   103  N   -0.353972
   104  C   -0.009388
   105  C   -0.086551
   106  C   -0.051292
   107  C    0.062133
   108  C    0.022931
   109  C   -0.053254
   110  C   -0.067786
   111  N   -0.434044
   112  C    0.194462
   113  C   -0.187384
   114  C    0.053575
   115  C    0.162309
   116  C    0.075222
   117  C    0.056243
   118  O   -0.207008
   119  C   -0.077538
   120  C    0.295466
   121  O   -0.257335
   122  O   -0.388877
   123  C    0.139753
   124  H   -0.000088
   125  H   -0.030125
   126  H   -0.003596
   127  H    0.037147
   128  H    0.045713
   129  H    0.048950
   130  H    0.034003
   131  H    0.036041
   132  H    0.037199
   133  H    0.027157
   134  H    0.055803
   135  H    0.044480
   136  H    0.060680
   137  H    0.065557
   138  H    0.024390
   139  H    0.059353
   140  H    0.051997
   141  H    0.063631
   142  H    0.053035
   143  H    0.024103
   144  H    0.042372
   145  H    0.053160
   146  H    0.040434
   147  H    0.043627
   148  H    0.030914
   149  H    0.022322
   150  H    0.047993
   151  H    0.040148
   152  H    0.047476
   153  H    0.037836
   154  H    0.062239
   155  H    0.083028
   156  H    0.056874
   157  H    0.068869
   158  H    0.036438
 Sum of Mulliken charges =  -0.00000

 Dipole moment (field-independent basis, Debye):
    X=             -0.0250    Y=             -0.1495    Z=             -0.8144  Tot=              0.8284
 Quadrupole moment (field-independent basis, Debye-Ang):
   XX=           -189.3254   YY=           -557.3931   ZZ=           -482.1980
   XY=             -0.1363   XZ=             82.5219   YZ=             -9.9214

 Normal termination of Gaussian 16 at Mon Sep 20 09:17:58 2021.
