 Gaussian 16, Revision A.03,
 Gaussian 16:  ES64L-G16RevA.03 25-Dec-2016

 --------------------------------
 #p wB97XD/Def2SVP td=(nstates=5)
 --------------------------------

 --------------------------------
 TDDFT excited states in gaussian
 --------------------------------
 Symbolic Z-matrix:
 Charge =  0 Multiplicity = 1

                         Standard orientation:
 ---------------------------------------------------------------------
 Center     Atomic      Atomic             Coordinates (Angstroms)
 Number     Number       Type             X           Y           Z
 ---------------------------------------------------------------------
      1         12           0      -30.352455    0.404971    0.373426
      2          6           0      -27.818421   -1.911396   -0.294445
      3          6           0      -32.051645   -0.974416   -2.318792
      4          6           0      -32.508601    2.815444    0.707972
      5          6           0      -28.304541    1.765944    2.922441
      6          7           0      -29.787871   -1.024085   -1.418194
      7          6           0      -28.800723   -1.922419   -1.341013
      8          6           0      -28.956012   -2.867595   -2.485207
      9          6           0      -30.078601   -2.258982   -3.360966
     10          6           0      -30.724819   -1.373178   -2.314277
     11          6           0      -29.721525   -1.513154   -4.647901
     12          6           0      -29.311243   -4.310812   -2.005836
     13          6           0      -28.495826   -5.518964   -2.569791
     14          1           0      -27.892377   -5.425581   -4.005943
     15          7           0      -32.161728    0.778576   -0.591307
     16          6           0      -32.739728   -0.044831   -1.548427
     17          6           0      -34.027304    0.501797   -1.829361
     18          6           0      -34.155431    1.715426   -1.041812
     19          6           0      -32.941231    1.831663   -0.248028
     20          6           0      -35.004373   -0.053235   -2.888783
     21          6           0      -35.288901    2.781096   -1.031031
     22          8           0      -35.287200    3.760075   -0.354266
     23          6           0      -36.488523    2.482819   -1.908713
     24          7           0      -30.370911    2.023578    1.649550
     25          6           0      -31.365313    2.933315    1.545031
     26          6           0      -31.249576    4.112179    2.550247
     27          6           0      -30.030066    3.599833    3.430712
     28          6           0      -29.528578    2.378208    2.669803
     29          6           0      -31.020739    5.525403    1.758372
     30          6           0      -30.383833    3.398595    4.937748
     31          6           0      -30.713104    1.993169    5.408179
     32          7           0      -28.445278    0.033688    1.240754
     33          6           0      -27.803822    0.603924    2.307019
     34          6           0      -26.509685   -0.133455    2.523362
     35          6           0      -26.497240   -1.124159    1.515612
     36          6           0      -27.676607   -0.977103    0.712818
     37          6           0      -25.391235    0.224120    3.464109
     38          6           0      -25.734087   -2.232758    0.947573
     39          8           0      -24.636652   -2.664508    1.311994
     40          6           0      -26.638627   -2.854794   -0.112113
     41          6           0      -25.793589   -2.975349   -1.347850
     42          8           0      -25.520607   -2.060361   -2.103024
     43          8           0      -25.279197   -4.193685   -1.314836
     44          6           0      -24.112921   -4.470617   -2.138634
     45          1           0      -32.523212   -1.305235   -3.245993
     46          1           0      -33.301276    3.523184    0.958173
     47          1           0      -27.680632    2.177377    3.719020
     48          1           0      -28.009521   -2.920695   -3.022263
     49          1           0      -30.684710   -3.100306   -3.697234
     50          1           0      -28.664783   -1.484903   -4.914200
     51          1           0      -30.077211   -0.483661   -4.597759
     52          1           0      -30.261866   -2.019614   -5.447364
     53          1           0      -30.372887   -4.545206   -2.080904
     54          1           0      -29.103090   -4.192665   -0.942529
     55          1           0      -29.215876   -6.338043   -2.551592
     56          1           0      -27.680293   -5.738092   -1.881068
     57          1           0      -35.338937    0.699552   -3.602628
     58          1           0      -35.949377   -0.375840   -2.451479
     59          1           0      -34.624869   -0.908528   -3.449408
     60          1           0      -36.896831    1.485751   -1.742372
     61          1           0      -36.195588    2.650741   -2.945172
     62          1           0      -37.249795    3.252817   -1.783683
     63          1           0      -32.143614    4.229087    3.162478
     64          1           0      -29.215713    4.321551    3.492793
     65          1           0      -29.980369    5.780670    1.960238
     66          1           0      -31.570854    6.360656    2.192329
     67          1           0      -31.098080    5.445391    0.673479
     68          1           0      -31.324425    3.936758    5.055910
     69          1           0      -29.647105    3.847609    5.603557
     70          1           0      -31.363423    1.600389    4.625621
     71          1           0      -31.226457    2.200480    6.346818
     72          1           0      -29.934885    1.235035    5.492141
     73          1           0      -25.458196    1.155358    4.026698
     74          1           0      -24.459433    0.290627    2.902305
     75          1           0      -25.279617   -0.644920    4.111734
     76          1           0      -26.911203   -3.894088    0.072439
     77          1           0      -23.626508   -3.663934   -2.686122
     78          1           0      -24.520254   -5.123654   -2.911077
     79          1           0      -23.533839   -5.255812   -1.652439
     80         12           0       30.446281    0.028485   -0.633729
     81          6           0       27.348709   -0.802175    0.928560
     82          6           0       29.109249    3.005431   -1.235503
     83          6           0       33.550262    1.241861   -1.194550
     84          6           0       31.758276   -2.836117    1.031480
     85          7           0       28.493015    0.911638   -0.323181
     86          6           0       27.320616    0.381829    0.258023
     87          6           0       26.122508    1.382675    0.243991
     88          6           0       26.742498    2.584484   -0.523646
     89          6           0       28.188779    2.123572   -0.802561
     90          6           0       25.850504    2.861012   -1.745364
     91          6           0       25.507210    1.816469    1.644018
     92          6           0       24.076238    1.376072    1.930183
     93          1           0       23.051160    2.474824    2.277786
     94          7           0       31.227734    1.791579   -1.222818
     95          6           0       30.470765    2.946389   -1.419475
     96          6           0       31.268129    3.973639   -1.956706
     97          6           0       32.550808    3.482152   -2.114755
     98          6           0       32.528717    2.163112   -1.515577
     99          6           0       30.848375    5.431670   -2.374842
    100          6           0       33.665812    4.279384   -2.749956
    101          8           0       33.517755    5.343846   -3.272597
    102          6           0       35.091510    3.540122   -2.817504
    103          7           0       32.388605   -0.644513   -0.094684
    104          6           0       33.509049    0.033672   -0.490579
    105          6           0       34.748974   -0.703484    0.162482
    106          6           0       34.239262   -2.031810    0.746061
    107          6           0       32.684293   -1.838392    0.575017
    108          6           0       35.965587   -0.793117   -0.714333
    109          6           0       34.578657   -2.098161    2.229928
    110          6           0       34.651690   -3.463009    2.861464
    111          7           0       29.679354   -1.663911    0.510742
    112          6           0       30.328750   -2.734248    1.078086
    113          6           0       29.393807   -3.607743    1.688819
    114          6           0       28.135965   -2.962933    1.623482
    115          6           0       28.420992   -1.719695    0.991424
    116          6           0       29.674840   -4.862016    2.414473
    117          6           0       26.704448   -2.960540    1.953877
    118          8           0       26.033312   -3.855430    2.485168
    119          6           0       26.108929   -1.572619    1.500355
    120          6           0       25.220780   -1.781312    0.388013
    121          8           0       25.664693   -2.026687   -0.758594
    122          8           0       23.961158   -1.706899    0.860932
    123          6           0       22.834679   -1.692629   -0.112135
    124          1           0       28.690183    3.983120   -1.483813
    125          1           0       34.533737    1.641128   -1.451549
    126          1           0       32.083473   -3.788217    1.455217
    127          1           0       25.303992    0.967262   -0.343776
    128          1           0       26.816516    3.491924    0.074898
    129          1           0       26.378279    3.588995   -2.360797
    130          1           0       24.858301    3.257908   -1.531052
    131          1           0       25.681252    1.967057   -2.346663
    132          1           0       25.424200    2.900476    1.565381
    133          1           0       26.184315    1.539979    2.452287
    134          1           0       24.118683    0.647294    2.740341
    135          1           0       23.668908    0.887893    1.044119
    136          1           0       31.535072    6.095511   -1.849218
    137          1           0       29.825072    5.662424   -2.079100
    138          1           0       30.805924    5.625746   -3.446554
    139          1           0       35.734543    4.198556   -3.400755
    140          1           0       34.850462    2.591510   -3.297813
    141          1           0       35.345731    3.449001   -1.761531
    142          1           0       35.026070   -0.039423    0.981986
    143          1           0       34.599728   -2.946751    0.276005
    144          1           0       36.516820   -1.692892   -0.442478
    145          1           0       36.540730    0.111979   -0.518099
    146          1           0       35.757631   -0.733315   -1.782003
    147          1           0       33.910899   -1.498316    2.848980
    148          1           0       35.522988   -1.603947    2.458074
    149          1           0       34.642258   -4.270599    2.129700
    150          1           0       33.786272   -3.572463    3.515365
    151          1           0       35.477905   -3.516411    3.570353
    152          1           0       30.576018   -5.350101    2.041972
    153          1           0       28.802602   -5.494829    2.248825
    154          1           0       29.838807   -4.565142    3.450623
    155          1           0       25.678193   -0.975652    2.304234
    156          1           0       22.079079   -2.225776    0.466700
    157          1           0       23.070000   -2.154355   -1.070607
    158          1           0       22.389664   -0.700389   -0.193745
 ---------------------------------------------------------------------

 SCF Done:  E(RwB97XD) =  -4070.60935849     A.U. after   19 cycles

 Excitation energies and oscillator strengths:

 Excited State   1:      Singlet-A      1.6724 eV  741.38 nm  f=0.3840  <S**2>=0.000
     309 -> 315       -0.17569
     311 -> 313        0.68494
     309 <- 315       -0.11216
 This state for optimization and/or second-order correction.
 Total Energy, E(TD-HF/TD-DFT) =  -4070.54790071
 Copying the excited state density for this state as the 1-particle RhoCI density.

 Excited State   2:      Singlet-A      1.6771 eV  739.26 nm  f=0.3992  <S**2>=0.000
     310 -> 316       -0.19176
     312 -> 314        0.68123
     310 <- 316       -0.11857

 Excited State   3:      Singlet-A      2.1599 eV  574.03 nm  f=0.0977  <S**2>=0.000
     310 -> 314        0.64018
     312 -> 316        0.28506

 Excited State   4:      Singlet-A      2.2043 eV  562.48 nm  f=0.1140  <S**2>=0.000
     309 -> 313        0.63532
     311 -> 315        0.29119

 Excited State   5:      Singlet-A      3.2883 eV  377.04 nm  f=0.0022  <S**2>=0.000
     302 -> 313        0.11889
     308 -> 313        0.66485

 The electronic state is 1-A.
 Alpha  occ. eigenvalues --  -46.95126 -46.94875 -19.31703 -19.31509 -19.24704
 Alpha  occ. eigenvalues --  -19.24639 -19.24588 -19.24552 -19.23773 -19.23561
 Alpha  occ. eigenvalues --  -14.47179 -14.46781 -14.46361 -14.46186 -14.44176
 Alpha  occ. eigenvalues --  -14.43953 -14.43296 -14.43046 -10.43330 -10.43040
 Alpha  occ. eigenvalues --  -10.39561 -10.39484 -10.39405 -10.38388 -10.36580
 Alpha  occ. eigenvalues --  -10.35822 -10.35711 -10.35514 -10.35321 -10.35137
 Alpha  occ. eigenvalues --  -10.35105 -10.34784 -10.34753 -10.34608 -10.34519
 Alpha  occ. eigenvalues --  -10.33702 -10.33699 -10.33628 -10.33533 -10.33483
 Alpha  occ. eigenvalues --  -10.33350 -10.33009 -10.32914 -10.32639 -10.32436
 Alpha  occ. eigenvalues --  -10.32416 -10.32416 -10.32402 -10.32385 -10.32201
 Alpha  occ. eigenvalues --  -10.32132 -10.31973 -10.31971 -10.31806 -10.31647
 Alpha  occ. eigenvalues --  -10.31621 -10.31339 -10.31284 -10.31188 -10.31136
 Alpha  occ. eigenvalues --  -10.31119 -10.31063 -10.31041 -10.30991 -10.30968
 Alpha  occ. eigenvalues --  -10.30716 -10.30626 -10.30598 -10.30424 -10.30336
 Alpha  occ. eigenvalues --  -10.30327 -10.30276 -10.30269 -10.30246 -10.30058
 Alpha  occ. eigenvalues --  -10.29948 -10.29939 -10.29803 -10.29696 -10.29658
 Alpha  occ. eigenvalues --  -10.29266 -10.29212 -10.29036 -10.28975 -10.28893
 Alpha  occ. eigenvalues --  -10.28856  -3.21033  -3.20914  -1.94629  -1.94479
 Alpha  occ. eigenvalues --   -1.94190  -1.94018  -1.93962  -1.93906  -1.20566
 Alpha  occ. eigenvalues --   -1.18805  -1.14232  -1.13516  -1.11922  -1.10897
 Alpha  occ. eigenvalues --   -1.10877  -1.09555  -1.07024  -1.06154  -1.05780
 Alpha  occ. eigenvalues --   -1.05242  -1.04847  -1.04676  -1.03857  -1.03762
 Alpha  occ. eigenvalues --   -0.95407  -0.94163  -0.91516  -0.91212  -0.90683
 Alpha  occ. eigenvalues --   -0.90591  -0.90486  -0.89934  -0.89288  -0.89029
 Alpha  occ. eigenvalues --   -0.88633  -0.88422  -0.88233  -0.87432  -0.86719
 Alpha  occ. eigenvalues --   -0.86382  -0.86127  -0.85617  -0.85187  -0.84506
 Alpha  occ. eigenvalues --   -0.83835  -0.83349  -0.83106  -0.82702  -0.82262
 Alpha  occ. eigenvalues --   -0.81960  -0.79876  -0.79651  -0.79335  -0.79310
 Alpha  occ. eigenvalues --   -0.78908  -0.78613  -0.78228  -0.78166  -0.77100
 Alpha  occ. eigenvalues --   -0.77035  -0.74729  -0.74693  -0.73709  -0.73693
 Alpha  occ. eigenvalues --   -0.71462  -0.71245  -0.70889  -0.70518  -0.70000
 Alpha  occ. eigenvalues --   -0.69716  -0.69239  -0.68064  -0.67654  -0.67497
 Alpha  occ. eigenvalues --   -0.67247  -0.67005  -0.66906  -0.66627  -0.66563
 Alpha  occ. eigenvalues --   -0.66337  -0.64814  -0.64215  -0.62186  -0.61836
 Alpha  occ. eigenvalues --   -0.61653  -0.61611  -0.61387  -0.61179  -0.60481
 Alpha  occ. eigenvalues --   -0.60459  -0.60194  -0.60106  -0.59304  -0.59145
 Alpha  occ. eigenvalues --   -0.58837  -0.58379  -0.58003  -0.57992  -0.56965
 Alpha  occ. eigenvalues --   -0.56918  -0.56743  -0.56646  -0.56622  -0.56201
 Alpha  occ. eigenvalues --   -0.55770  -0.55591  -0.55210  -0.55100  -0.54831
 Alpha  occ. eigenvalues --   -0.54823  -0.54450  -0.54429  -0.54358  -0.53895
 Alpha  occ. eigenvalues --   -0.53630  -0.53607  -0.53393  -0.53342  -0.53144
 Alpha  occ. eigenvalues --   -0.53143  -0.52996  -0.52452  -0.52270  -0.52132
 Alpha  occ. eigenvalues --   -0.52079  -0.51932  -0.51751  -0.51624  -0.51322
 Alpha  occ. eigenvalues --   -0.51171  -0.51105  -0.50884  -0.50758  -0.50628
 Alpha  occ. eigenvalues --   -0.50385  -0.50312  -0.50163  -0.50015  -0.49970
 Alpha  occ. eigenvalues --   -0.49888  -0.49459  -0.49415  -0.49257  -0.48892
 Alpha  occ. eigenvalues --   -0.48817  -0.48366  -0.48321  -0.48238  -0.48030
 Alpha  occ. eigenvalues --   -0.47928  -0.47833  -0.47792  -0.47599  -0.47575
 Alpha  occ. eigenvalues --   -0.47535  -0.47324  -0.47242  -0.47052  -0.46956
 Alpha  occ. eigenvalues --   -0.46882  -0.46746  -0.46682  -0.46427  -0.46241
 Alpha  occ. eigenvalues --   -0.46068  -0.45744  -0.45707  -0.45437  -0.45328
 Alpha  occ. eigenvalues --   -0.45249  -0.45167  -0.45029  -0.44989  -0.44902
 Alpha  occ. eigenvalues --   -0.44714  -0.44636  -0.44514  -0.44226  -0.44103
 Alpha  occ. eigenvalues --   -0.43832  -0.43710  -0.43579  -0.43552  -0.43547
 Alpha  occ. eigenvalues --   -0.43108  -0.42952  -0.42598  -0.42507  -0.42165
 Alpha  occ. eigenvalues --   -0.42106  -0.41998  -0.41537  -0.41196  -0.41090
 Alpha  occ. eigenvalues --   -0.40389  -0.40287  -0.40123  -0.39576  -0.39246
 Alpha  occ. eigenvalues --   -0.39189  -0.39023  -0.38787  -0.38771  -0.38426
 Alpha  occ. eigenvalues --   -0.38148  -0.37933  -0.36415  -0.36233  -0.36143
 Alpha  occ. eigenvalues --   -0.36088  -0.35342  -0.35195  -0.34022  -0.33449
 Alpha  occ. eigenvalues --   -0.33003  -0.32984  -0.32734  -0.32662  -0.32277
 Alpha  occ. eigenvalues --   -0.32152  -0.31074  -0.31062  -0.26210  -0.25720
 Alpha  occ. eigenvalues --   -0.23065  -0.22880
 Alpha virt. eigenvalues --   -0.07093  -0.06832   0.00227   0.00395   0.02216
 Alpha virt. eigenvalues --    0.02656   0.04789   0.04987   0.05447   0.05889
 Alpha virt. eigenvalues --    0.06760   0.07226   0.07693   0.07865   0.08101

 Mulliken charges:
               1
     1  Mg   0.943629
     2  C   -0.009766
     3  C   -0.053613
     4  C   -0.049833
     5  C   -0.089597
     6  N   -0.281245
     7  C    0.032504
     8  C   -0.102465
     9  C   -0.079032
    10  C   -0.023314
    11  C    0.044054
    12  C   -0.008055
    13  C   -0.108879
    14  H    0.034720
    15  N   -0.486560
    16  C    0.194353
    17  C   -0.162083
    18  C   -0.110841
    19  C    0.127489
    20  C    0.066709
    21  C    0.057589
    22  O   -0.197975
    23  C   -0.025020
    24  N   -0.388410
    25  C    0.068320
    26  C   -0.106337
    27  C   -0.052038
    28  C    0.081503
    29  C    0.014975
    30  C   -0.034357
    31  C   -0.035168
    32  N   -0.430874
    33  C    0.126591
    34  C   -0.181597
    35  C   -0.031520
    36  C    0.144677
    37  C    0.071995
    38  C    0.142829
    39  O   -0.213875
    40  C   -0.092531
    41  C    0.223550
    42  O   -0.247772
    43  O   -0.327075
    44  C    0.146667
    45  H   -0.006213
    46  H    0.024707
    47  H   -0.006549
    48  H    0.040521
    49  H    0.020988
    50  H    0.046970
    51  H    0.041494
    52  H    0.029952
    53  H    0.038460
    54  H    0.025598
    55  H    0.053012
    56  H    0.060556
    57  H    0.037188
    58  H    0.040657
    59  H    0.034241
    60  H    0.057431
    61  H    0.052151
    62  H    0.039908
    63  H    0.050018
    64  H    0.031429
    65  H    0.019119
    66  H    0.045892
    67  H    0.058988
    68  H    0.022765
    69  H    0.029632
    70  H    0.030072
    71  H    0.044302
    72  H    0.041690
    73  H    0.038402
    74  H    0.061886
    75  H    0.059412
    76  H    0.073387
    77  H    0.085470
    78  H    0.026935
    79  H    0.057206
    80  Mg   0.984672
    81  C   -0.043648
    82  C   -0.132086
    83  C   -0.102587
    84  C   -0.063457
    85  N   -0.377665
    86  C    0.011579
    87  C   -0.047373
    88  C   -0.123607
    89  C    0.121246
    90  C    0.014118
    91  C    0.012195
    92  C   -0.135765
    93  H    0.033949
    94  N   -0.505015
    95  C    0.212705
    96  C   -0.172194
    97  C   -0.054832
    98  C    0.150104
    99  C    0.105928
   100  C    0.008118
   101  O   -0.195269
   102  C   -0.027618
   103  N   -0.393370
   104  C    0.110638
   105  C   -0.081187
   106  C   -0.082582
   107  C    0.107898
   108  C    0.029350
   109  C   -0.045298
   110  C   -0.025555
   111  N   -0.385841
   112  C    0.093615
   113  C   -0.223118
   114  C    0.000610
   115  C    0.116487
   116  C    0.079646
   117  C    0.128966
   118  O   -0.222383
   119  C   -0.072249
   120  C    0.292459
   121  O   -0.279955
   122  O   -0.349487
   123  C    0.124654
   124  H   -0.016747
   125  H   -0.040292
   126  H   -0.012839
   127  H    0.028340
   128  H    0.045434
   129  H    0.027681
   130  H    0.042804
   131  H    0.043029
   132  H    0.041054
   133  H    0.048504
   134  H    0.069483
   135  H    0.033053
   136  H    0.061762
   137  H    0.011480
   138  H    0.062653
   139  H    0.058136
   140  H    0.066147
   141  H    0.068465
   142  H    0.046803
   143  H    0.038421
   144  H    0.041324
   145  H    0.031651
   146  H    0.038556
   147  H    0.030401
   148  H    0.021519
   149  H    0.036068
   150  H    0.030048
   151  H    0.032961
   152  H    0.030627
   153  H    0.066811
   154  H    0.060802
   155  H    0.055718
   156  H    0.061761
   157  H    0.085143
   158  H    0.056441
 Sum of Mulliken charges =  -0.00000

 Dipole moment (field-independent basis, Debye):
    X=             -0.2572    Y=             -0.7335    Z=             -0.3750  Tot=              0.8630
 Quadrupole moment (field-independent basis, Debye-Ang):
   XX=           -366.1657   YY=           -519.0423   ZZ=           -498.1909
   XY=             98.3216   XZ=             29.8924   YZ=             34.4813

 Normal termination of Gaussian 16 at Mon Sep 20 20:36:03 2021.
