 Gaussian 16, Revision A.03,
 Gaussian 16:  ES64L-G16RevA.03 25-Dec-2016

 --------------------------------
 #p wB97XD/Def2SVP td=(nstates=5)
 --------------------------------

 --------------------------------
 TDDFT excited states in gaussian
 --------------------------------
 Symbolic Z-matrix:
 Charge =  0 Multiplicity = 1

                         Standard orientation:
 ---------------------------------------------------------------------
 Center     Atomic      Atomic             Coordinates (Angstroms)
 Number     Number       Type             X           Y           Z
 ---------------------------------------------------------------------
      1         12           0       18.989049   -0.283327    0.082888
      2          6           0       15.371144   -0.821122   -0.212340
      3          6           0       18.767717    0.968350   -3.136428
      4          6           0       21.784566    1.146311    0.640644
      5          6           0       18.578513   -1.261200    3.516107
      6          7           0       17.125942    0.156665   -1.463079
      7          6           0       15.785769   -0.150194   -1.373439
      8          6           0       15.037325    0.412500   -2.636759
      9          6           0       16.157958    0.711753   -3.647619
     10          6           0       17.420699    0.610042   -2.710063
     11          6           0       16.339365   -0.258813   -4.887772
     12          6           0       14.097023    1.626433   -2.323572
     13          6           0       12.775282    1.661106   -3.060192
     14          1           0       12.674510    2.635407   -4.275570
     15          7           0       20.174995    0.777005   -1.094624
     16          6           0       19.996268    1.111899   -2.409321
     17          6           0       21.174357    1.878496   -2.899453
     18          6           0       22.041093    1.946678   -1.777677
     19          6           0       21.325381    1.313899   -0.672558
     20          6           0       21.353629    2.520220   -4.285009
     21          6           0       23.340931    2.741654   -1.624161
     22          8           0       23.765096    3.321661   -2.620045
     23          6           0       24.098760    2.829185   -0.438740
     24          7           0       19.910583    0.134702    1.947007
     25          6           0       21.224057    0.532258    1.794540
     26          6           0       21.931468    0.430230    3.201121
     27          6           0       20.781888   -0.048925    4.158361
     28          6           0       19.726815   -0.511583    3.125079
     29          6           0       23.195696   -0.470761    3.255566
     30          6           0       20.208771    0.962646    5.231015
     31          6           0       21.010073    1.173130    6.527498
     32          7           0       17.384012   -0.966963    1.449057
     33          6           0       17.426328   -1.434393    2.747401
     34          6           0       16.170015   -2.018594    3.150138
     35          6           0       15.325532   -1.811124    1.995934
     36          6           0       16.049496   -1.113964    0.966624
     37          6           0       15.902331   -2.583597    4.511054
     38          6           0       14.018571   -1.965533    1.535155
     39          8           0       12.995857   -2.303327    2.115768
     40          6           0       13.933860   -1.234497    0.163979
     41          6           0       13.422527   -2.284898   -0.794129
     42          8           0       12.483652   -2.095990   -1.571572
     43          8           0       14.215056   -3.500299   -0.869722
     44          6           0       13.891142   -4.305107   -2.046534
     45          1           0       18.742327    1.300848   -4.175788
     46          1           0       22.801459    1.421859    0.927781
     47          1           0       18.635065   -1.599858    4.552637
     48          1           0       14.509159   -0.411288   -3.118995
     49          1           0       16.134446    1.748366   -3.983726
     50          1           0       15.961264    0.309518   -5.737298
     51          1           0       15.709262   -1.142566   -4.791798
     52          1           0       17.348304   -0.640537   -5.043730
     53          1           0       14.492912    2.597393   -2.622344
     54          1           0       13.835660    1.639616   -1.265234
     55          1           0       12.000710    1.829471   -2.311978
     56          1           0       12.603541    0.665672   -3.470963
     57          1           0       22.381546    2.386473   -4.623102
     58          1           0       21.060512    3.558502   -4.130026
     59          1           0       20.732791    2.023476   -5.029360
     60          1           0       24.506515    1.840382   -0.226318
     61          1           0       23.572341    3.263824    0.411066
     62          1           0       24.823783    3.594405   -0.718121
     63          1           0       22.273208    1.388721    3.590334
     64          1           0       21.056270   -0.965500    4.680012
     65          1           0       22.980492   -1.215532    4.021919
     66          1           0       24.040838    0.145727    3.560209
     67          1           0       23.274849   -0.857163    2.238694
     68          1           0       19.234754    0.539221    5.478335
     69          1           0       20.148378    1.971527    4.822301
     70          1           0       21.807883    0.442717    6.389941
     71          1           0       20.453941    0.820734    7.397369
     72          1           0       21.419271    2.167739    6.703071
     73          1           0       16.114972   -1.771302    5.204840
     74          1           0       16.602295   -3.366513    4.802383
     75          1           0       14.846528   -2.792347    4.684107
     76          1           0       13.171166   -0.462670    0.265526
     77          1           0       14.861425   -4.799532   -2.106794
     78          1           0       13.518214   -3.697690   -2.871170
     79          1           0       13.179119   -5.059875   -1.712465
     80         12           0      -18.397013    0.577013    0.535535
     81          6           0      -15.660108   -1.127450   -0.807277
     82          6           0      -20.022006   -2.525805    0.697860
     83          6           0      -21.273649    2.105839    1.301459
     84          6           0      -17.066344    3.521376   -0.649094
     85          7           0      -17.866003   -1.662725    0.098474
     86          6           0      -16.693818   -2.006809   -0.498199
     87          6           0      -16.643559   -3.563531   -0.764469
     88          6           0      -18.184083   -3.954265   -0.497580
     89          6           0      -18.760608   -2.655094    0.089779
     90          6           0      -18.854811   -4.190199   -1.897387
     91          6           0      -15.703386   -4.195337    0.326835
     92          6           0      -15.590939   -5.743819    0.363858
     93          1           0      -15.613595   -6.662825    1.548877
     94          7           0      -20.272733   -0.137915    1.123724
     95          6           0      -20.774792   -1.448938    1.177059
     96          6           0      -22.108648   -1.380700    1.604954
     97          6           0      -22.430740   -0.078731    1.964089
     98          6           0      -21.302936    0.695212    1.472110
     99          6           0      -22.897166   -2.633090    1.806828
    100          6           0      -23.742997    0.523049    2.566606
    101          8           0      -23.903537    1.703405    2.858027
    102          6           0      -24.893766   -0.361633    3.053850
    103          7           0      -19.087063    2.509702    0.233085
    104          6           0      -20.257341    2.914719    0.774980
    105          6           0      -20.442152    4.444821    0.774105
    106          6           0      -19.156999    4.889017    0.021882
    107          6           0      -18.320302    3.624235   -0.049270
    108          6           0      -21.832317    4.931730    0.245919
    109          6           0      -18.388482    6.113686    0.589646
    110          6           0      -17.595167    5.884451    1.805577
    111          7           0      -16.681149    1.157236   -0.428897
    112          6           0      -16.275061    2.337615   -0.835581
    113          6           0      -14.913416    2.292553   -1.378283
    114          6           0      -14.656447    0.884378   -1.361014
    115          6           0      -15.753220    0.241299   -0.821404
    116          6           0      -13.928147    3.361206   -1.479777
    117          6           0      -13.634840   -0.098598   -1.676760
    118          8           0      -12.493064    0.042256   -2.052217
    119          6           0      -14.310375   -1.443937   -1.384634
    120          6           0      -14.314963   -2.356598   -2.615465
    121          8           0      -15.080216   -2.248355   -3.538080
    122          8           0      -13.273020   -3.248246   -2.524025
    123          6           0      -13.216319   -4.174479   -3.678348
    124          1           0      -20.468089   -3.507517    0.865175
    125          1           0      -22.110504    2.653622    1.740299
    126          1           0      -16.823270    4.575008   -0.797036
    127          1           0      -16.385517   -3.803221   -1.796318
    128          1           0      -18.327716   -4.826098    0.141900
    129          1           0      -19.525524   -3.409172   -2.254059
    130          1           0      -19.609710   -4.975472   -1.850727
    131          1           0      -18.145163   -4.390294   -2.699915
    132          1           0      -16.036620   -3.820756    1.294312
    133          1           0      -14.719303   -3.744772    0.194906
    134          1           0      -14.708801   -5.952511   -0.242147
    135          1           0      -16.499782   -6.017433   -0.170664
    136          1           0      -22.389670   -3.559848    1.537786
    137          1           0      -23.879162   -2.484554    1.355611
    138          1           0      -23.032500   -2.677029    2.887851
    139          1           0      -25.408233   -0.893815    2.253646
    140          1           0      -25.607397    0.139494    3.708035
    141          1           0      -24.451050   -1.084983    3.738846
    142          1           0      -20.378249    4.590498    1.852074
    143          1           0      -19.503087    5.090841   -0.991822
    144          1           0      -22.605942    4.190129    0.442228
    145          1           0      -21.772573    5.084378   -0.832004
    146          1           0      -22.171856    5.846606    0.731970
    147          1           0      -19.208116    6.800835    0.797346
    148          1           0      -17.802844    6.579329   -0.203246
    149          1           0      -16.623606    5.473024    1.532360
    150          1           0      -18.134248    5.254870    2.513207
    151          1           0      -17.345792    6.818095    2.310656
    152          1           0      -14.226937    4.084949   -0.721107
    153          1           0      -13.881021    3.972214   -2.381330
    154          1           0      -12.956393    2.902806   -1.299374
    155          1           0      -13.761433   -1.919082   -0.570948
    156          1           0      -12.169888   -4.389462   -3.894012
    157          1           0      -13.520970   -3.762078   -4.640461
    158          1           0      -13.694976   -5.123973   -3.440875
 ---------------------------------------------------------------------

 SCF Done:  E(RwB97XD) =  -4070.57334904     A.U. after   19 cycles

 Excitation energies and oscillator strengths:

 Excited State   1:      Singlet-A      1.6685 eV  743.10 nm  f=0.3696  <S**2>=0.000
     309 -> 315        0.20206
     311 -> 313        0.67694
     309 <- 315        0.11954
 This state for optimization and/or second-order correction.
 Total Energy, E(TD-HF/TD-DFT) =  -4070.51203386
 Copying the excited state density for this state as the 1-particle RhoCI density.

 Excited State   2:      Singlet-A      1.6937 eV  732.03 nm  f=0.3747  <S**2>=0.000
     310 -> 316       -0.19053
     312 -> 314        0.68122
     310 <- 316       -0.11526

 Excited State   3:      Singlet-A      2.1895 eV  566.27 nm  f=0.0673  <S**2>=0.000
     309 -> 313        0.61432
     311 -> 315       -0.33151

 Excited State   4:      Singlet-A      2.2137 eV  560.08 nm  f=0.1126  <S**2>=0.000
     310 -> 314        0.64264
     312 -> 316        0.27814

 Excited State   5:      Singlet-A      3.2138 eV  385.78 nm  f=0.0156  <S**2>=0.000
     308 -> 313        0.61823
     308 -> 317        0.12016
     311 -> 315        0.24275

 The electronic state is 1-A.
 Alpha  occ. eigenvalues --  -46.97067 -46.94996 -19.30951 -19.28900 -19.25276
 Alpha  occ. eigenvalues --  -19.24991 -19.24446 -19.23804 -19.23788 -19.22864
 Alpha  occ. eigenvalues --  -14.47313 -14.46801 -14.46536 -14.45560 -14.45385
 Alpha  occ. eigenvalues --  -14.43728 -14.43709 -14.43634 -10.43570 -10.43233
 Alpha  occ. eigenvalues --  -10.40147 -10.38866 -10.38425 -10.37451 -10.36381
 Alpha  occ. eigenvalues --  -10.35931 -10.35614 -10.35571 -10.35491 -10.35426
 Alpha  occ. eigenvalues --  -10.35069 -10.34975 -10.34626 -10.34511 -10.34455
 Alpha  occ. eigenvalues --  -10.34403 -10.33886 -10.33842 -10.33682 -10.33515
 Alpha  occ. eigenvalues --  -10.33334 -10.33201 -10.33031 -10.32944 -10.32863
 Alpha  occ. eigenvalues --  -10.32697 -10.32647 -10.32609 -10.32588 -10.32517
 Alpha  occ. eigenvalues --  -10.32417 -10.32336 -10.32267 -10.32228 -10.32085
 Alpha  occ. eigenvalues --  -10.31938 -10.31670 -10.31636 -10.31594 -10.31561
 Alpha  occ. eigenvalues --  -10.31513 -10.31473 -10.31368 -10.31318 -10.31095
 Alpha  occ. eigenvalues --  -10.30960 -10.30845 -10.30835 -10.30818 -10.30747
 Alpha  occ. eigenvalues --  -10.30689 -10.30587 -10.30486 -10.30206 -10.30092
 Alpha  occ. eigenvalues --  -10.30045 -10.30005 -10.29921 -10.29823 -10.29654
 Alpha  occ. eigenvalues --  -10.29626 -10.29269 -10.29222 -10.29043 -10.28877
 Alpha  occ. eigenvalues --  -10.28247  -3.22970  -3.21001  -1.96494  -1.96137
 Alpha  occ. eigenvalues --   -1.95890  -1.94576  -1.94139  -1.93957  -1.18928
 Alpha  occ. eigenvalues --   -1.16043  -1.12658  -1.12602  -1.12445  -1.11159
 Alpha  occ. eigenvalues --   -1.10902  -1.08512  -1.07077  -1.06905  -1.05744
 Alpha  occ. eigenvalues --   -1.05332  -1.05321  -1.05303  -1.04448  -1.03057
 Alpha  occ. eigenvalues --   -0.95739  -0.94841  -0.91230  -0.90865  -0.90788
 Alpha  occ. eigenvalues --   -0.90460  -0.90378  -0.90035  -0.89405  -0.89082
 Alpha  occ. eigenvalues --   -0.88955  -0.88854  -0.88054  -0.87825  -0.86895
 Alpha  occ. eigenvalues --   -0.85924  -0.85741  -0.85569  -0.85459  -0.84449
 Alpha  occ. eigenvalues --   -0.84243  -0.83414  -0.83083  -0.82802  -0.82312
 Alpha  occ. eigenvalues --   -0.81815  -0.80449  -0.80211  -0.79462  -0.79250
 Alpha  occ. eigenvalues --   -0.78925  -0.78454  -0.77993  -0.77733  -0.77200
 Alpha  occ. eigenvalues --   -0.76752  -0.74797  -0.74395  -0.73890  -0.73705
 Alpha  occ. eigenvalues --   -0.71901  -0.71073  -0.71072  -0.70524  -0.70258
 Alpha  occ. eigenvalues --   -0.69681  -0.68973  -0.68968  -0.67478  -0.67299
 Alpha  occ. eigenvalues --   -0.67280  -0.66972  -0.66723  -0.66354  -0.66002
 Alpha  occ. eigenvalues --   -0.65916  -0.64419  -0.63852  -0.62388  -0.62048
 Alpha  occ. eigenvalues --   -0.61782  -0.61394  -0.61273  -0.61233  -0.60880
 Alpha  occ. eigenvalues --   -0.60500  -0.60186  -0.59289  -0.59157  -0.58972
 Alpha  occ. eigenvalues --   -0.58635  -0.58420  -0.57561  -0.57539  -0.57410
 Alpha  occ. eigenvalues --   -0.57174  -0.56718  -0.56494  -0.56271  -0.55877
 Alpha  occ. eigenvalues --   -0.55807  -0.55654  -0.55446  -0.55197  -0.55173
 Alpha  occ. eigenvalues --   -0.55009  -0.54823  -0.54541  -0.54457  -0.54410
 Alpha  occ. eigenvalues --   -0.53972  -0.53873  -0.53646  -0.53391  -0.53003
 Alpha  occ. eigenvalues --   -0.52941  -0.52857  -0.52497  -0.52445  -0.52220
 Alpha  occ. eigenvalues --   -0.51808  -0.51787  -0.51766  -0.51556  -0.51484
 Alpha  occ. eigenvalues --   -0.51314  -0.51109  -0.51072  -0.50870  -0.50847
 Alpha  occ. eigenvalues --   -0.50679  -0.50538  -0.50405  -0.50308  -0.50056
 Alpha  occ. eigenvalues --   -0.49870  -0.49788  -0.49632  -0.49374  -0.49212
 Alpha  occ. eigenvalues --   -0.48994  -0.48629  -0.48555  -0.48436  -0.48013
 Alpha  occ. eigenvalues --   -0.48009  -0.47844  -0.47823  -0.47579  -0.47288
 Alpha  occ. eigenvalues --   -0.47217  -0.46935  -0.46878  -0.46849  -0.46580
 Alpha  occ. eigenvalues --   -0.46579  -0.46408  -0.46292  -0.46286  -0.46063
 Alpha  occ. eigenvalues --   -0.45999  -0.45926  -0.45707  -0.45696  -0.45561
 Alpha  occ. eigenvalues --   -0.45535  -0.45206  -0.45124  -0.45120  -0.44774
 Alpha  occ. eigenvalues --   -0.44532  -0.44458  -0.44370  -0.44357  -0.44254
 Alpha  occ. eigenvalues --   -0.44230  -0.44016  -0.43876  -0.43752  -0.43566
 Alpha  occ. eigenvalues --   -0.43393  -0.43228  -0.42573  -0.42144  -0.42096
 Alpha  occ. eigenvalues --   -0.42085  -0.41806  -0.41451  -0.41183  -0.40749
 Alpha  occ. eigenvalues --   -0.40674  -0.40334  -0.39784  -0.39756  -0.39614
 Alpha  occ. eigenvalues --   -0.39587  -0.39254  -0.39130  -0.38758  -0.38251
 Alpha  occ. eigenvalues --   -0.38214  -0.37308  -0.36840  -0.36515  -0.36199
 Alpha  occ. eigenvalues --   -0.35909  -0.35349  -0.35236  -0.33813  -0.33563
 Alpha  occ. eigenvalues --   -0.33500  -0.33179  -0.33050  -0.32712  -0.32202
 Alpha  occ. eigenvalues --   -0.32086  -0.31271  -0.30838  -0.26373  -0.25672
 Alpha  occ. eigenvalues --   -0.23240  -0.22833
 Alpha virt. eigenvalues --   -0.07108  -0.06669  -0.00775   0.00654   0.01906
 Alpha virt. eigenvalues --    0.02543   0.03668   0.04345   0.04410   0.05449
 Alpha virt. eigenvalues --    0.06845   0.07015   0.07416   0.08130   0.08191

 Mulliken charges:
               1
     1  Mg   0.966356
     2  C   -0.023698
     3  C   -0.063223
     4  C   -0.092073
     5  C   -0.100980
     6  N   -0.282635
     7  C   -0.034074
     8  C    0.018331
     9  C   -0.119681
    10  C   -0.008145
    11  C    0.015343
    12  C    0.017529
    13  C   -0.125863
    14  H    0.022283
    15  N   -0.499391
    16  C    0.163131
    17  C   -0.190140
    18  C   -0.055728
    19  C    0.215184
    20  C    0.097073
    21  C    0.017710
    22  O   -0.245780
    23  C    0.020216
    24  N   -0.384816
    25  C    0.048408
    26  C   -0.125759
    27  C   -0.090009
    28  C    0.044994
    29  C    0.037769
    30  C   -0.003809
    31  C   -0.042734
    32  N   -0.423547
    33  C    0.155294
    34  C   -0.159552
    35  C   -0.021028
    36  C    0.159052
    37  C    0.093614
    38  C    0.074425
    39  O   -0.216279
    40  C   -0.098693
    41  C    0.286665
    42  O   -0.256723
    43  O   -0.417837
    44  C    0.139071
    45  H   -0.001266
    46  H   -0.023818
    47  H   -0.001958
    48  H    0.034665
    49  H    0.044293
    50  H    0.048611
    51  H    0.036667
    52  H    0.049325
    53  H    0.048460
    54  H    0.043924
    55  H    0.057444
    56  H    0.052657
    57  H    0.068182
    58  H    0.069350
    59  H    0.030862
    60  H    0.075401
    61  H    0.063992
    62  H    0.054786
    63  H    0.035863
    64  H    0.019902
    65  H    0.037811
    66  H    0.042190
    67  H    0.042224
    68  H    0.028974
    69  H    0.036398
    70  H    0.015373
    71  H    0.040170
    72  H    0.050232
    73  H    0.034102
    74  H    0.047772
    75  H    0.062853
    76  H    0.072159
    77  H    0.050680
    78  H    0.068875
    79  H    0.052597
    80  Mg   0.973418
    81  C   -0.006574
    82  C   -0.074236
    83  C   -0.111546
    84  C   -0.060576
    85  N   -0.282098
    86  C   -0.051619
    87  C   -0.081032
    88  C   -0.121310
    89  C    0.038113
    90  C    0.009325
    91  C   -0.013316
    92  C   -0.096413
    93  H    0.058593
    94  N   -0.474628
    95  C    0.176425
    96  C   -0.164469
    97  C   -0.081320
    98  C    0.151292
    99  C    0.070960
   100  C    0.085446
   101  O   -0.233862
   102  C   -0.021467
   103  N   -0.406398
   104  C    0.075888
   105  C   -0.112083
   106  C   -0.035742
   107  C   -0.010024
   108  C    0.035634
   109  C   -0.020901
   110  C   -0.015387
   111  N   -0.411433
   112  C    0.152278
   113  C   -0.157210
   114  C   -0.070505
   115  C    0.151250
   116  C    0.070549
   117  C    0.116343
   118  O   -0.187445
   119  C   -0.074746
   120  C    0.263792
   121  O   -0.227693
   122  O   -0.360558
   123  C    0.124763
   124  H   -0.012674
   125  H    0.022379
   126  H   -0.019470
   127  H    0.047446
   128  H    0.048723
   129  H    0.042484
   130  H    0.025794
   131  H    0.050551
   132  H    0.035466
   133  H    0.032248
   134  H    0.051201
   135  H    0.036138
   136  H    0.044503
   137  H    0.048645
   138  H    0.050231
   139  H    0.058301
   140  H    0.054701
   141  H    0.041258
   142  H    0.041019
   143  H    0.042804
   144  H    0.049004
   145  H    0.031734
   146  H    0.040026
   147  H    0.022721
   148  H    0.034925
   149  H    0.032108
   150  H    0.032797
   151  H    0.035412
   152  H    0.029567
   153  H    0.041858
   154  H    0.064113
   155  H    0.079314
   156  H    0.050097
   157  H    0.069064
   158  H    0.056031
 Sum of Mulliken charges =  -0.00000

 Dipole moment (field-independent basis, Debye):
    X=              2.7050    Y=             -2.4838    Z=              2.3090  Tot=              4.3379
 Quadrupole moment (field-independent basis, Debye-Ang):
   XX=           -260.8218   YY=           -475.8999   ZZ=           -494.4667
   XY=             28.1697   XZ=              9.5378   YZ=             13.3756

 Normal termination of Gaussian 16 at Mon Sep 20 05:15:26 2021.
