 Gaussian 16, Revision A.03,
 Gaussian 16:  ES64L-G16RevA.03 25-Dec-2016

 --------------------------------
 #p wB97XD/Def2SVP td=(nstates=5)
 --------------------------------

 --------------------------------
 TDDFT excited states in gaussian
 --------------------------------
 Symbolic Z-matrix:
 Charge =  0 Multiplicity = 1

                         Standard orientation:
 ---------------------------------------------------------------------
 Center     Atomic      Atomic             Coordinates (Angstroms)
 Number     Number       Type             X           Y           Z
 ---------------------------------------------------------------------
      1         12           0      -13.546728   -0.525476    0.272727
      2          6           0      -13.553618    2.681042   -1.128288
      3          6           0      -12.334013    0.762446    3.196968
      4          6           0      -13.246418   -3.618289    1.406533
      5          6           0      -14.632614   -1.759672   -2.901236
      6          7           0      -12.965031    1.513985    0.916161
      7          6           0      -13.101748    2.704537    0.237495
      8          6           0      -12.894874    3.878612    1.176488
      9          6           0      -12.238588    3.205961    2.446412
     10          6           0      -12.634093    1.713569    2.179781
     11          6           0      -10.729802    3.399461    2.529146
     12          6           0      -14.234264    4.687992    1.327537
     13          6           0      -14.175371    5.779116    2.432391
     14          1           0      -12.822038    6.404882    2.698572
     15          7           0      -12.919971   -1.287974    2.001966
     16          6           0      -12.347490   -0.618714    3.076295
     17          6           0      -11.926180   -1.550131    4.137495
     18          6           0      -12.242788   -2.836395    3.601800
     19          6           0      -12.819755   -2.608161    2.279615
     20          6           0      -11.369261   -1.103415    5.437115
     21          6           0      -12.004663   -4.162356    4.277144
     22          8           0      -12.357647   -5.253558    3.749900
     23          6           0      -11.404158   -4.240929    5.654567
     24          7           0      -13.951591   -2.433369   -0.621497
     25          6           0      -13.730229   -3.530668    0.102702
     26          6           0      -13.949286   -4.833573   -0.785317
     27          6           0      -14.371148   -4.218182   -2.233858
     28          6           0      -14.303901   -2.723385   -1.917971
     29          6           0      -12.605094   -5.670847   -0.789448
     30          6           0      -15.838676   -4.598817   -2.707809
     31          6           0      -15.976885   -5.951398   -3.463896
     32          7           0      -13.942105    0.211796   -1.630071
     33          6           0      -14.488043   -0.364510   -2.807380
     34          6           0      -14.724794    0.728743   -3.848538
     35          6           0      -14.308297    1.923410   -3.269911
     36          6           0      -13.915532    1.558967   -1.884709
     37          6           0      -15.330109    0.583502   -5.209569
     38          6           0      -14.186185    3.353720   -3.427977
     39          8           0      -14.430048    4.106589   -4.376193
     40          6           0      -13.858153    3.945185   -1.968284
     41          6           0      -12.723740    4.944040   -1.983143
     42          8           0      -11.563245    4.645487   -1.897157
     43          8           0      -13.207983    6.266926   -1.870529
     44          6           0      -12.257768    7.296275   -1.423027
     45          1           0      -11.908406    1.315923    4.037029
     46          1           0      -13.130316   -4.637621    1.781029
     47          1           0      -14.862705   -2.075165   -3.921124
     48          1           0      -12.185315    4.554895    0.701460
     49          1           0      -12.677728    3.482273    3.405554
     50          1           0      -10.547957    3.873905    3.493359
     51          1           0      -10.404801    3.953638    1.648899
     52          1           0      -10.191026    2.462439    2.667863
     53          1           0      -14.968363    3.882918    1.336778
     54          1           0      -14.384926    5.172490    0.363413
     55          1           0      -14.550561    5.256353    3.312238
     56          1           0      -14.856197    6.581535    2.148673
     57          1           0      -10.355343   -1.501799    5.404473
     58          1           0      -11.951218   -1.441600    6.294055
     59          1           0      -11.235390   -0.037445    5.625603
     60          1           0      -12.081431   -3.765064    6.362432
     61          1           0      -10.470634   -3.715386    5.449648
     62          1           0      -11.128361   -5.234107    6.007932
     63          1           0      -14.794430   -5.278280   -0.258453
     64          1           0      -13.630891   -4.260090   -3.033965
     65          1           0      -11.787748   -5.217311   -0.229040
     66          1           0      -12.251310   -5.796901   -1.813053
     67          1           0      -12.839415   -6.596153   -0.263966
     68          1           0      -16.347596   -3.764510   -3.189699
     69          1           0      -16.415334   -4.730879   -1.792891
     70          1           0      -16.723464   -6.534211   -2.925568
     71          1           0      -14.990816   -6.411029   -3.532276
     72          1           0      -16.344107   -5.815774   -4.481452
     73          1           0      -16.327525    1.018790   -5.144296
     74          1           0      -15.362548   -0.467798   -5.498153
     75          1           0      -14.856545    1.112619   -6.036273
     76          1           0      -14.783640    4.398755   -1.614717
     77          1           0      -11.662964    7.526616   -2.306511
     78          1           0      -11.723813    6.968319   -0.530925
     79          1           0      -12.861390    8.144283   -1.100680
     80         12           0       12.885178   -0.803173   -0.465973
     81          6           0       14.914599    2.080527   -0.200134
     82          6           0       10.303272    1.009392    0.867233
     83          6           0       11.206484   -3.635638   -0.109665
     84          6           0       15.745622   -2.614290   -1.354329
     85          7           0       12.690687    1.269034    0.403670
     86          6           0       13.642720    2.284936    0.284020
     87          6           0       12.993657    3.655422    0.598232
     88          6           0       11.510584    3.277312    0.958739
     89          6           0       11.434226    1.746745    0.701797
     90          6           0       10.955031    3.818755    2.264384
     91          6           0       13.090268    4.727802   -0.498087
     92          6           0       13.723144    6.063207   -0.019290
     93          1           0       12.877418    7.298377   -0.236258
     94          7           0       10.965823   -1.212513    0.206880
     95          6           0       10.047990   -0.363427    0.751910
     96          6           0        8.814964   -1.096299    0.914162
     97          6           0        9.110606   -2.518812    0.766855
     98          6           0       10.485647   -2.465711    0.294546
     99          6           0        7.465921   -0.411048    1.480769
    100          6           0        8.408972   -3.718562    1.239649
    101          8           0        8.722401   -4.861970    1.067503
    102          6           0        7.143194   -3.471827    2.055093
    103          7           0       13.496879   -2.875752   -0.508163
    104          6           0       12.577448   -3.852969   -0.386141
    105          6           0       13.158393   -5.200257   -0.821616
    106          6           0       14.455139   -4.794609   -1.540385
    107          6           0       14.585011   -3.335673   -1.163546
    108          6           0       13.432302   -6.150415    0.432897
    109          6           0       14.226025   -4.942396   -3.130100
    110          6           0       13.307494   -3.872391   -3.780959
    111          7           0       14.928711   -0.421164   -0.863556
    112          6           0       15.930489   -1.242779   -1.216533
    113          6           0       17.126182   -0.456466   -1.359911
    114          6           0       16.763583    0.834684   -1.025122
    115          6           0       15.415317    0.825164   -0.657319
    116          6           0       18.521288   -0.899204   -1.757960
    117          6           0       17.355619    2.165041   -0.860987
    118          8           0       18.439093    2.676580   -0.898084
    119          6           0       16.167626    3.047931   -0.395611
    120          6           0       16.583679    3.618579    0.909620
    121          8           0       16.942617    2.913074    1.818674
    122          8           0       16.597944    5.003996    0.928086
    123          6           0       17.285837    5.647829    2.096858
    124          1           0        9.441997    1.642252    1.091718
    125          1           0       10.664414   -4.583887   -0.124396
    126          1           0       16.629162   -3.047873   -1.827486
    127          1           0       13.425396    4.041145    1.522002
    128          1           0       10.855239    3.786091    0.251528
    129          1           0       11.753768    4.163387    2.919488
    130          1           0       10.325332    3.109241    2.801790
    131          1           0       10.394132    4.714323    1.998269
    132          1           0       12.164870    5.074744   -0.957870
    133          1           0       13.673197    4.363096   -1.343527
    134          1           0       14.738117    6.182700   -0.398165
    135          1           0       13.826438    6.005465    1.063520
    136          1           0        6.645076   -0.702349    0.825533
    137          1           0        7.442955    0.678049    1.484394
    138          1           0        7.176795   -0.599880    2.514594
    139          1           0        6.489828   -2.955769    1.351213
    140          1           0        7.463671   -2.829208    2.874505
    141          1           0        6.620783   -4.375357    2.370975
    142          1           0       12.546686   -5.720957   -1.559123
    143          1           0       15.404750   -5.253902   -1.264917
    144          1           0       13.334946   -7.176626    0.077641
    145          1           0       12.774911   -6.073598    1.299605
    146          1           0       14.471450   -5.948997    0.692637
    147          1           0       13.854761   -5.927115   -3.413311
    148          1           0       15.157052   -4.723163   -3.652993
    149          1           0       13.016122   -4.069946   -4.812003
    150          1           0       13.852936   -2.928547   -3.777814
    151          1           0       12.425387   -3.769467   -3.148141
    152          1           0       18.592773   -1.308414   -2.765443
    153          1           0       18.749766   -1.691206   -1.045254
    154          1           0       19.271435   -0.125622   -1.593890
    155          1           0       16.138391    3.838604   -1.145119
    156          1           0       16.550477    6.422832    2.312992
    157          1           0       18.237450    6.108270    1.831934
    158          1           0       17.513311    5.066200    2.989853
 ---------------------------------------------------------------------

 SCF Done:  E(RwB97XD) =  -4070.63386056     A.U. after   19 cycles

 Excitation energies and oscillator strengths:

 Excited State   1:      Singlet-A      1.6438 eV  754.25 nm  f=0.3993  <S**2>=0.000
     309 -> 316       -0.17866
     311 -> 313        0.67482
     312 -> 314       -0.11699
     309 <- 316       -0.11518
 This state for optimization and/or second-order correction.
 Total Energy, E(TD-HF/TD-DFT) =  -4070.57345170
 Copying the excited state density for this state as the 1-particle RhoCI density.

 Excited State   2:      Singlet-A      1.6552 eV  749.04 nm  f=0.3834  <S**2>=0.000
     310 -> 315        0.20244
     311 -> 313        0.11795
     312 -> 314        0.66787
     310 <- 315        0.11962

 Excited State   3:      Singlet-A      2.1358 eV  580.50 nm  f=0.1329  <S**2>=0.000
     309 -> 313        0.65466
     311 -> 316        0.25211

 Excited State   4:      Singlet-A      2.2347 eV  554.82 nm  f=0.0335  <S**2>=0.000
     310 -> 314        0.58750
     312 -> 315       -0.38608

 Excited State   5:      Singlet-A      3.4631 eV  358.02 nm  f=0.0000  <S**2>=0.000
     312 -> 313        0.70702

 The electronic state is 1-A.
 Alpha  occ. eigenvalues --  -46.95881 -46.94462 -19.30374 -19.29267 -19.25273
 Alpha  occ. eigenvalues --  -19.24657 -19.24310 -19.24215 -19.23492 -19.23407
 Alpha  occ. eigenvalues --  -14.46783 -14.46722 -14.46516 -14.46165 -14.44618
 Alpha  occ. eigenvalues --  -14.44546 -14.44362 -14.43821 -10.43329 -10.42642
 Alpha  occ. eigenvalues --  -10.39625 -10.39273 -10.39183 -10.38308 -10.35580
 Alpha  occ. eigenvalues --  -10.35570 -10.35541 -10.34984 -10.34800 -10.34794
 Alpha  occ. eigenvalues --  -10.34771 -10.34760 -10.34703 -10.34429 -10.34414
 Alpha  occ. eigenvalues --  -10.34408 -10.34260 -10.34216 -10.33978 -10.33813
 Alpha  occ. eigenvalues --  -10.33638 -10.33534 -10.33449 -10.33368 -10.33282
 Alpha  occ. eigenvalues --  -10.33193 -10.32823 -10.32662 -10.32385 -10.32336
 Alpha  occ. eigenvalues --  -10.32281 -10.32264 -10.32096 -10.32054 -10.32027
 Alpha  occ. eigenvalues --  -10.31938 -10.31913 -10.31851 -10.31800 -10.31739
 Alpha  occ. eigenvalues --  -10.31610 -10.31544 -10.31362 -10.31158 -10.31078
 Alpha  occ. eigenvalues --  -10.31029 -10.30990 -10.30678 -10.30676 -10.30572
 Alpha  occ. eigenvalues --  -10.30472 -10.30412 -10.30354 -10.30343 -10.30124
 Alpha  occ. eigenvalues --  -10.30095 -10.30076 -10.29824 -10.29812 -10.29672
 Alpha  occ. eigenvalues --  -10.29463 -10.29454 -10.29237 -10.29228 -10.29103
 Alpha  occ. eigenvalues --  -10.28927  -3.21745  -3.20560  -1.95312  -1.94879
 Alpha  occ. eigenvalues --   -1.94705  -1.94160  -1.93673  -1.93564  -1.17849
 Alpha  occ. eigenvalues --   -1.17671  -1.13924  -1.13274  -1.11421  -1.10062
 Alpha  occ. eigenvalues --   -1.10033  -1.09829  -1.07207  -1.06370  -1.06332
 Alpha  occ. eigenvalues --   -1.05868  -1.05520  -1.04866  -1.04006  -1.03446
 Alpha  occ. eigenvalues --   -0.94347  -0.93624  -0.90894  -0.90771  -0.90675
 Alpha  occ. eigenvalues --   -0.90479  -0.90152  -0.89788  -0.89674  -0.89528
 Alpha  occ. eigenvalues --   -0.88684  -0.88511  -0.88280  -0.88273  -0.86339
 Alpha  occ. eigenvalues --   -0.86197  -0.85392  -0.84887  -0.84392  -0.84157
 Alpha  occ. eigenvalues --   -0.83853  -0.83148  -0.82821  -0.82733  -0.82114
 Alpha  occ. eigenvalues --   -0.82003  -0.80982  -0.80325  -0.79386  -0.79355
 Alpha  occ. eigenvalues --   -0.78939  -0.78706  -0.78079  -0.77745  -0.77156
 Alpha  occ. eigenvalues --   -0.76521  -0.75101  -0.74110  -0.73747  -0.73480
 Alpha  occ. eigenvalues --   -0.71388  -0.71283  -0.71203  -0.70548  -0.70330
 Alpha  occ. eigenvalues --   -0.70060  -0.69238  -0.69125  -0.67445  -0.67421
 Alpha  occ. eigenvalues --   -0.67286  -0.67156  -0.67142  -0.66454  -0.65958
 Alpha  occ. eigenvalues --   -0.65807  -0.64288  -0.63319  -0.62700  -0.62418
 Alpha  occ. eigenvalues --   -0.61693  -0.61511  -0.61286  -0.60744  -0.60732
 Alpha  occ. eigenvalues --   -0.60101  -0.59783  -0.59565  -0.59538  -0.58801
 Alpha  occ. eigenvalues --   -0.58172  -0.57982  -0.57865  -0.57341  -0.57161
 Alpha  occ. eigenvalues --   -0.56591  -0.56568  -0.56177  -0.56114  -0.55926
 Alpha  occ. eigenvalues --   -0.55642  -0.55363  -0.55245  -0.54930  -0.54605
 Alpha  occ. eigenvalues --   -0.54484  -0.54328  -0.54185  -0.54065  -0.53876
 Alpha  occ. eigenvalues --   -0.53831  -0.53684  -0.53470  -0.53395  -0.53215
 Alpha  occ. eigenvalues --   -0.53137  -0.52829  -0.52682  -0.52435  -0.52075
 Alpha  occ. eigenvalues --   -0.52000  -0.51744  -0.51502  -0.51437  -0.51421
 Alpha  occ. eigenvalues --   -0.51297  -0.51278  -0.51234  -0.50974  -0.50958
 Alpha  occ. eigenvalues --   -0.50815  -0.50470  -0.50342  -0.50192  -0.50096
 Alpha  occ. eigenvalues --   -0.50063  -0.49872  -0.49532  -0.49408  -0.49397
 Alpha  occ. eigenvalues --   -0.48958  -0.48823  -0.48368  -0.48145  -0.48065
 Alpha  occ. eigenvalues --   -0.48053  -0.48044  -0.47822  -0.47715  -0.47551
 Alpha  occ. eigenvalues --   -0.47489  -0.47234  -0.47180  -0.47136  -0.47045
 Alpha  occ. eigenvalues --   -0.46806  -0.46666  -0.46476  -0.46146  -0.45993
 Alpha  occ. eigenvalues --   -0.45954  -0.45594  -0.45459  -0.45359  -0.45286
 Alpha  occ. eigenvalues --   -0.45109  -0.45038  -0.44994  -0.44881  -0.44842
 Alpha  occ. eigenvalues --   -0.44518  -0.44392  -0.44298  -0.44260  -0.44142
 Alpha  occ. eigenvalues --   -0.44028  -0.43940  -0.43534  -0.43369  -0.43339
 Alpha  occ. eigenvalues --   -0.43294  -0.42865  -0.42795  -0.42290  -0.42227
 Alpha  occ. eigenvalues --   -0.42127  -0.41645  -0.41162  -0.40993  -0.40978
 Alpha  occ. eigenvalues --   -0.40511  -0.40228  -0.40138  -0.40013  -0.39937
 Alpha  occ. eigenvalues --   -0.39806  -0.39148  -0.38868  -0.38355  -0.38302
 Alpha  occ. eigenvalues --   -0.38213  -0.37850  -0.36533  -0.36401  -0.36181
 Alpha  occ. eigenvalues --   -0.36041  -0.35646  -0.35453  -0.33828  -0.33519
 Alpha  occ. eigenvalues --   -0.33245  -0.33108  -0.32638  -0.32557  -0.32487
 Alpha  occ. eigenvalues --   -0.32373  -0.32274  -0.32217  -0.26102  -0.25954
 Alpha  occ. eigenvalues --   -0.23392  -0.22262
 Alpha virt. eigenvalues --   -0.07532  -0.06280  -0.00282   0.00484   0.01794
 Alpha virt. eigenvalues --    0.02596   0.04216   0.04581   0.04807   0.06271
 Alpha virt. eigenvalues --    0.06657   0.07556   0.07650   0.07913   0.08441

 Mulliken charges:
               1
     1  Mg   0.984933
     2  C   -0.029971
     3  C   -0.097694
     4  C   -0.088030
     5  C   -0.091527
     6  N   -0.320775
     7  C   -0.001419
     8  C   -0.052500
     9  C   -0.133812
    10  C    0.011333
    11  C    0.044541
    12  C   -0.023198
    13  C   -0.099808
    14  H    0.046536
    15  N   -0.499703
    16  C    0.214617
    17  C   -0.158525
    18  C   -0.076701
    19  C    0.175279
    20  C    0.073692
    21  C    0.037729
    22  O   -0.272429
    23  C    0.020584
    24  N   -0.348984
    25  C    0.045728
    26  C   -0.087817
    27  C   -0.049385
    28  C    0.040572
    29  C    0.013471
    30  C   -0.039909
    31  C   -0.032207
    32  N   -0.452036
    33  C    0.124859
    34  C   -0.194142
    35  C   -0.008995
    36  C    0.139372
    37  C    0.070684
    38  C    0.151155
    39  O   -0.215018
    40  C   -0.144375
    41  C    0.289261
    42  O   -0.219413
    43  O   -0.405839
    44  C    0.143401
    45  H   -0.011226
    46  H    0.021272
    47  H    0.001258
    48  H    0.028608
    49  H    0.029484
    50  H    0.028535
    51  H    0.058984
    52  H    0.036089
    53  H    0.041327
    54  H    0.036926
    55  H    0.058474
    56  H    0.059662
    57  H    0.054022
    58  H    0.057926
    59  H    0.036077
    60  H    0.065674
    61  H    0.039175
    62  H    0.055304
    63  H    0.050686
    64  H    0.044458
    65  H    0.052620
    66  H    0.038294
    67  H    0.049674
    68  H    0.034815
    69  H    0.019232
    70  H    0.041811
    71  H    0.039446
    72  H    0.036846
    73  H    0.060634
    74  H    0.027159
    75  H    0.060439
    76  H    0.091862
    77  H    0.068472
    78  H    0.050080
    79  H    0.052364
    80  Mg   0.945892
    81  C   -0.040823
    82  C   -0.093324
    83  C   -0.065062
    84  C   -0.068495
    85  N   -0.371840
    86  C    0.009102
    87  C   -0.037786
    88  C   -0.103081
    89  C    0.075295
    90  C    0.021463
    91  C    0.015411
    92  C   -0.142014
    93  H    0.025743
    94  N   -0.445107
    95  C    0.174493
    96  C   -0.128435
    97  C   -0.081711
    98  C    0.149688
    99  C    0.018180
   100  C    0.023385
   101  O   -0.210384
   102  C   -0.005986
   103  N   -0.331079
   104  C    0.048195
   105  C   -0.089076
   106  C   -0.066819
   107  C    0.055959
   108  C    0.021697
   109  C   -0.041430
   110  C   -0.066579
   111  N   -0.411983
   112  C    0.080595
   113  C   -0.175910
   114  C   -0.085157
   115  C    0.178338
   116  C    0.073507
   117  C    0.147743
   118  O   -0.174267
   119  C   -0.066782
   120  C    0.252361
   121  O   -0.231263
   122  O   -0.382073
   123  C    0.126249
   124  H   -0.010002
   125  H    0.025910
   126  H   -0.003871
   127  H    0.040917
   128  H    0.034039
   129  H    0.030172
   130  H    0.043260
   131  H    0.031377
   132  H    0.042813
   133  H    0.033053
   134  H    0.067834
   135  H    0.036313
   136  H    0.049101
   137  H    0.027003
   138  H    0.053619
   139  H    0.041884
   140  H    0.056397
   141  H    0.049618
   142  H    0.042215
   143  H    0.039929
   144  H    0.039837
   145  H    0.057617
   146  H    0.036701
   147  H    0.045279
   148  H    0.027655
   149  H    0.048427
   150  H    0.041050
   151  H    0.039468
   152  H    0.051907
   153  H    0.041761
   154  H    0.060818
   155  H    0.063018
   156  H    0.052980
   157  H    0.061582
   158  H    0.073490
 Sum of Mulliken charges =  -0.00000

 Dipole moment (field-independent basis, Debye):
    X=             -3.1072    Y=              1.4071    Z=              3.1410  Tot=              4.6369
 Quadrupole moment (field-independent basis, Debye-Ang):
   XX=           -575.3229   YY=           -501.9128   ZZ=           -493.4522
   XY=             -7.6884   XZ=            -74.4012   YZ=             52.6202

 Normal termination of Gaussian 16 at Sun Sep 19 13:21:18 2021.
