 Gaussian 16, Revision A.03,
 Gaussian 16:  ES64L-G16RevA.03 25-Dec-2016

 --------------------------------
 #p wB97XD/Def2SVP td=(nstates=5)
 --------------------------------

 --------------------------------
 TDDFT excited states in gaussian
 --------------------------------
 Symbolic Z-matrix:
 Charge =  0 Multiplicity = 1

                         Standard orientation:
 ---------------------------------------------------------------------
 Center     Atomic      Atomic             Coordinates (Angstroms)
 Number     Number       Type             X           Y           Z
 ---------------------------------------------------------------------
      1         12           0      -17.089156    0.586067    0.368547
      2          6           0      -15.997871   -2.349424   -1.135410
      3          6           0      -18.194568   -1.405107    2.984454
      4          6           0      -18.613567    3.356710    1.619926
      5          6           0      -16.067138    2.358396   -2.418965
      6          7           0      -17.140092   -1.634311    0.833892
      7          6           0      -16.597390   -2.669009    0.087240
      8          6           0      -16.857339   -4.101427    0.699186
      9          6           0      -17.854698   -3.719717    1.860757
     10          6           0      -17.772069   -2.149056    1.893043
     11          6           0      -19.326225   -4.140988    1.809331
     12          6           0      -15.534849   -4.765350    1.124456
     13          6           0      -15.035604   -5.905501    0.276537
     14          1           0      -14.349935   -7.069575    1.013664
     15          7           0      -18.077206    1.013967    2.140351
     16          6           0      -18.337627    0.060835    3.074909
     17          6           0      -19.067289    0.756810    4.152686
     18          6           0      -19.294429    2.085058    3.759808
     19          6           0      -18.669714    2.232808    2.502930
     20          6           0      -19.337776    0.088867    5.439572
     21          6           0      -20.058365    3.179637    4.445546
     22          8           0      -20.091639    4.371000    4.029425
     23          6           0      -20.852618    2.984416    5.617518
     24          7           0      -17.237712    2.540163   -0.243246
     25          6           0      -17.890038    3.515828    0.446026
     26          6           0      -17.866298    4.832315   -0.225503
     27          6           0      -16.996948    4.550997   -1.503359
     28          6           0      -16.816126    3.082602   -1.408822
     29          6           0      -19.154054    5.628340   -0.589591
     30          6           0      -15.662022    5.437539   -1.639202
     31          6           0      -14.316885    5.060237   -0.950444
     32          7           0      -16.253466    0.168598   -1.439111
     33          6           0      -15.857588    0.986788   -2.457728
     34          6           0      -15.113233    0.264352   -3.394336
     35          6           0      -15.236220   -1.099417   -2.923395
     36          6           0      -15.913809   -1.084311   -1.720551
     37          6           0      -14.354052    0.799156   -4.607209
     38          6           0      -14.761797   -2.424462   -3.202084
     39          8           0      -14.005517   -2.904769   -4.021651
     40          6           0      -15.459485   -3.339578   -2.135586
     41          6           0      -16.522499   -4.137931   -2.777687
     42          8           0      -17.753319   -4.029785   -2.583676
     43          8           0      -16.077350   -5.045416   -3.674000
     44          6           0      -17.023110   -6.078530   -4.218528
     45          1           0      -18.596571   -2.043253    3.773342
     46          1           0      -19.111734    4.271085    1.949435
     47          1           0      -15.566839    2.867252   -3.246141
     48          1           0      -17.532919   -4.694993    0.082364
     49          1           0      -17.400029   -4.108540    2.771854
     50          1           0      -19.961712   -3.268823    1.653933
     51          1           0      -19.587919   -4.443225    2.822296
     52          1           0      -19.570348   -4.909747    1.075364
     53          1           0      -15.738001   -5.192908    2.107003
     54          1           0      -14.790662   -3.980796    1.261422
     55          1           0      -14.313049   -5.494216   -0.428837
     56          1           0      -15.779200   -6.372616   -0.369347
     57          1           0      -18.791654    0.676079    6.176707
     58          1           0      -19.078205   -0.962828    5.567360
     59          1           0      -20.401319    0.156478    5.668354
     60          1           0      -21.413582    2.068767    5.432265
     61          1           0      -21.377949    3.899896    5.886514
     62          1           0      -20.233166    2.704903    6.469760
     63          1           0      -17.304586    5.394124    0.520217
     64          1           0      -17.602775    4.716351   -2.393498
     65          1           0      -19.235212    6.556604   -0.023977
     66          1           0      -20.051458    5.058194   -0.347004
     67          1           0      -19.246936    5.838318   -1.655073
     68          1           0      -15.970472    6.378239   -1.182588
     69          1           0      -15.600809    5.535464   -2.723172
     70          1           0      -14.286446    4.070926   -0.494625
     71          1           0      -13.887826    5.815362   -0.291200
     72          1           0      -13.600729    5.079529   -1.770887
     73          1           0      -14.680474    0.325282   -5.533541
     74          1           0      -13.306912    0.522759   -4.484980
     75          1           0      -14.358918    1.885279   -4.702640
     76          1           0      -14.735269   -4.097841   -1.837351
     77          1           0      -16.264078   -6.742562   -4.632328
     78          1           0      -17.728042   -5.712597   -4.964306
     79          1           0      -17.590996   -6.523800   -3.401031
     80         12           0       16.560910    0.735789    0.176302
     81          6           0       18.437336   -2.080403    1.358542
     82          6           0       14.197553   -1.316141   -0.816526
     83          6           0       15.397237    3.321764   -1.539226
     84          6           0       19.516567    2.745945    1.043542
     85          7           0       16.337331   -1.447788    0.311529
     86          6           0       17.220528   -2.432562    0.797046
     87          6           0       16.669565   -3.902490    0.663303
     88          6           0       15.210133   -3.540723   -0.015530
     89          6           0       15.199907   -2.025038   -0.187569
     90          6           0       14.998938   -4.265781   -1.413437
     91          6           0       16.616900   -4.736109    1.990805
     92          6           0       15.727052   -5.973028    1.961569
     93          1           0       16.481245   -7.310340    2.077200
     94          7           0       14.946953    0.986747   -0.937969
     95          6           0       14.003524    0.041977   -1.267002
     96          6           0       12.923539    0.592650   -2.058353
     97          6           0       13.303986    1.980389   -2.245609
     98          6           0       14.589389    2.153909   -1.479691
     99          6           0       11.713759   -0.096401   -2.484987
    100          6           0       12.587504    3.098030   -2.983451
    101          8           0       12.940057    4.244034   -2.973566
    102          6           0       11.421577    2.650553   -3.824479
    103          7           0       17.378944    2.740437   -0.250708
    104          6           0       16.642277    3.620213   -0.974875
    105          6           0       17.332389    5.009375   -1.030431
    106          6           0       18.566143    4.808783   -0.083253
    107          6           0       18.470558    3.348506    0.314795
    108          6           0       17.740496    5.577085   -2.432483
    109          6           0       18.615520    5.723129    1.191406
    110          6           0       19.071131    7.168199    0.890746
    111          7           0       18.555236    0.475451    0.986029
    112          6           0       19.560138    1.346925    1.337754
    113          6           0       20.577310    0.630502    1.998723
    114          6           0       20.253414   -0.674347    1.996672
    115          6           0       18.989976   -0.772770    1.338768
    116          6           0       21.762050    1.346721    2.633827
    117          6           0       20.625141   -2.057172    2.312725
    118          8           0       21.617155   -2.502620    2.829540
    119          6           0       19.426913   -3.024501    1.868388
    120          6           0       19.919219   -3.837622    0.713905
    121          8           0       19.936402   -3.620493   -0.476724
    122          8           0       20.356089   -5.018723    1.280271
    123          6           0       20.890589   -6.049924    0.359304
    124          1           0       13.386358   -1.920353   -1.227753
    125          1           0       15.041209    4.081138   -2.239578
    126          1           0       20.257457    3.494893    1.332758
    127          1           0       17.248209   -4.402156   -0.113794
    128          1           0       14.431051   -3.911358    0.651033
    129          1           0       13.990577   -4.677009   -1.457702
    130          1           0       15.704647   -5.036326   -1.722668
    131          1           0       14.982684   -3.532597   -2.219250
    132          1           0       16.306167   -3.955193    2.686085
    133          1           0       17.556948   -5.061176    2.437151
    134          1           0       15.167100   -5.985535    1.026900
    135          1           0       15.111650   -5.979373    2.860778
    136          1           0       10.978850    0.469582   -1.912604
    137          1           0       11.762270   -1.159512   -2.248813
    138          1           0       11.429618   -0.029549   -3.534979
    139          1           0       10.503257    2.742829   -3.244743
    140          1           0       11.641515    1.787593   -4.453661
    141          1           0       11.476535    3.316075   -4.685507
    142          1           0       16.700955    5.660078   -0.424737
    143          1           0       19.478678    4.848296   -0.678493
    144          1           0       18.798775    5.797516   -2.575298
    145          1           0       17.287255    6.566979   -2.480312
    146          1           0       17.452129    4.964689   -3.286827
    147          1           0       19.328543    5.308973    1.903389
    148          1           0       17.613732    5.660278    1.618614
    149          1           0       19.629213    7.204358   -0.045050
    150          1           0       19.655966    7.480405    1.755880
    151          1           0       18.252555    7.871414    0.734486
    152          1           0       22.172700    0.770552    3.463054
    153          1           0       21.442354    2.339824    2.949652
    154          1           0       22.521890    1.562459    1.882366
    155          1           0       19.082371   -3.646164    2.695123
    156          1           0       21.749851   -6.480628    0.873218
    157          1           0       21.198610   -5.667080   -0.613544
    158          1           0       20.028077   -6.716234    0.325124
 ---------------------------------------------------------------------

 SCF Done:  E(RwB97XD) =  -4070.62219358     A.U. after   19 cycles

 Excitation energies and oscillator strengths:

 Excited State   1:      Singlet-A      1.6365 eV  757.61 nm  f=0.4022  <S**2>=0.000
     310 -> 316       -0.18172
     311 -> 313       -0.10489
     312 -> 314        0.67608
     310 <- 316       -0.11602
 This state for optimization and/or second-order correction.
 Total Energy, E(TD-HF/TD-DFT) =  -4070.56205276
 Copying the excited state density for this state as the 1-particle RhoCI density.

 Excited State   2:      Singlet-A      1.6447 eV  753.86 nm  f=0.3804  <S**2>=0.000
     309 -> 315        0.18093
     311 -> 313        0.67449
     312 -> 314        0.10497
     309 <- 315        0.11582

 Excited State   3:      Singlet-A      2.1515 eV  576.26 nm  f=0.1136  <S**2>=0.000
     309 -> 313        0.64619
     311 -> 315       -0.26345

 Excited State   4:      Singlet-A      2.1546 eV  575.44 nm  f=0.1581  <S**2>=0.000
     310 -> 314        0.64636
     312 -> 316        0.26760

 Excited State   5:      Singlet-A      3.3483 eV  370.29 nm  f=0.0040  <S**2>=0.000
     305 -> 313       -0.19128
     308 -> 313        0.65661

 The electronic state is 1-A.
 Alpha  occ. eigenvalues --  -46.94890 -46.93912 -19.29299 -19.29074 -19.24836
 Alpha  occ. eigenvalues --  -19.24157 -19.23955 -19.23310 -19.23230 -19.23030
 Alpha  occ. eigenvalues --  -14.46812 -14.46645 -14.46485 -14.45886 -14.44204
 Alpha  occ. eigenvalues --  -14.44187 -14.43443 -14.42986 -10.42805 -10.42394
 Alpha  occ. eigenvalues --  -10.39291 -10.38709 -10.38500 -10.38222 -10.35787
 Alpha  occ. eigenvalues --  -10.35039 -10.34954 -10.34927 -10.34875 -10.34829
 Alpha  occ. eigenvalues --  -10.34706 -10.34524 -10.34371 -10.34228 -10.34168
 Alpha  occ. eigenvalues --  -10.34128 -10.34117 -10.34099 -10.33345 -10.33098
 Alpha  occ. eigenvalues --  -10.32964 -10.32934 -10.32918 -10.32895 -10.32572
 Alpha  occ. eigenvalues --  -10.32546 -10.32504 -10.32306 -10.32258 -10.31919
 Alpha  occ. eigenvalues --  -10.31899 -10.31793 -10.31747 -10.31687 -10.31452
 Alpha  occ. eigenvalues --  -10.31388 -10.31363 -10.31155 -10.31133 -10.31123
 Alpha  occ. eigenvalues --  -10.31032 -10.30909 -10.30876 -10.30875 -10.30848
 Alpha  occ. eigenvalues --  -10.30847 -10.30840 -10.30835 -10.30833 -10.30809
 Alpha  occ. eigenvalues --  -10.30775 -10.30642 -10.30231 -10.30024 -10.29992
 Alpha  occ. eigenvalues --  -10.29884 -10.29812 -10.29721 -10.29585 -10.29575
 Alpha  occ. eigenvalues --  -10.29569 -10.29544 -10.29469 -10.29373 -10.28738
 Alpha  occ. eigenvalues --  -10.28691  -3.20880  -3.20041  -1.94466  -1.93982
 Alpha  occ. eigenvalues --   -1.93869  -1.93646  -1.93174  -1.93019  -1.17846
 Alpha  occ. eigenvalues --   -1.17323  -1.13571  -1.13037  -1.11798  -1.10179
 Alpha  occ. eigenvalues --   -1.09652  -1.07293  -1.06916  -1.06150  -1.05809
 Alpha  occ. eigenvalues --   -1.05329  -1.05286  -1.04487  -1.04317  -1.03603
 Alpha  occ. eigenvalues --   -0.95105  -0.94990  -0.90923  -0.90817  -0.90367
 Alpha  occ. eigenvalues --   -0.90236  -0.90129  -0.89958  -0.89570  -0.89085
 Alpha  occ. eigenvalues --   -0.88965  -0.88751  -0.88081  -0.87963  -0.86315
 Alpha  occ. eigenvalues --   -0.85810  -0.85597  -0.85073  -0.84763  -0.84376
 Alpha  occ. eigenvalues --   -0.84058  -0.83948  -0.82960  -0.82649  -0.82530
 Alpha  occ. eigenvalues --   -0.82028  -0.80557  -0.80066  -0.79456  -0.78874
 Alpha  occ. eigenvalues --   -0.78811  -0.78556  -0.78166  -0.77461  -0.77265
 Alpha  occ. eigenvalues --   -0.76749  -0.75124  -0.74749  -0.73349  -0.73267
 Alpha  occ. eigenvalues --   -0.72057  -0.71558  -0.70759  -0.70658  -0.70002
 Alpha  occ. eigenvalues --   -0.69715  -0.69138  -0.68954  -0.67168  -0.67054
 Alpha  occ. eigenvalues --   -0.66997  -0.66658  -0.66557  -0.66402  -0.66343
 Alpha  occ. eigenvalues --   -0.65884  -0.63509  -0.63456  -0.62061  -0.61990
 Alpha  occ. eigenvalues --   -0.61642  -0.61456  -0.61178  -0.60795  -0.60623
 Alpha  occ. eigenvalues --   -0.60251  -0.59817  -0.59759  -0.59323  -0.58890
 Alpha  occ. eigenvalues --   -0.58184  -0.58084  -0.57657  -0.57590  -0.56975
 Alpha  occ. eigenvalues --   -0.56906  -0.56378  -0.56364  -0.56187  -0.56044
 Alpha  occ. eigenvalues --   -0.55806  -0.55600  -0.55223  -0.54872  -0.54608
 Alpha  occ. eigenvalues --   -0.54486  -0.54411  -0.54297  -0.53996  -0.53884
 Alpha  occ. eigenvalues --   -0.53843  -0.53549  -0.53273  -0.53040  -0.52927
 Alpha  occ. eigenvalues --   -0.52829  -0.52439  -0.52326  -0.52125  -0.52089
 Alpha  occ. eigenvalues --   -0.51748  -0.51716  -0.51603  -0.51601  -0.51406
 Alpha  occ. eigenvalues --   -0.51400  -0.51053  -0.50944  -0.50755  -0.50750
 Alpha  occ. eigenvalues --   -0.50393  -0.50332  -0.50125  -0.49904  -0.49868
 Alpha  occ. eigenvalues --   -0.49738  -0.49730  -0.49651  -0.49206  -0.48956
 Alpha  occ. eigenvalues --   -0.48729  -0.48666  -0.48494  -0.48276  -0.48196
 Alpha  occ. eigenvalues --   -0.47956  -0.47818  -0.47657  -0.47642  -0.47348
 Alpha  occ. eigenvalues --   -0.47339  -0.47218  -0.47208  -0.47123  -0.47106
 Alpha  occ. eigenvalues --   -0.46953  -0.46772  -0.46736  -0.46643  -0.46209
 Alpha  occ. eigenvalues --   -0.45950  -0.45931  -0.45855  -0.45767  -0.45732
 Alpha  occ. eigenvalues --   -0.45448  -0.45384  -0.45092  -0.44872  -0.44724
 Alpha  occ. eigenvalues --   -0.44668  -0.44468  -0.44429  -0.43984  -0.43786
 Alpha  occ. eigenvalues --   -0.43572  -0.43555  -0.43446  -0.43068  -0.43037
 Alpha  occ. eigenvalues --   -0.42800  -0.42723  -0.42685  -0.42385  -0.42270
 Alpha  occ. eigenvalues --   -0.42040  -0.41626  -0.41214  -0.40862  -0.40695
 Alpha  occ. eigenvalues --   -0.40168  -0.39980  -0.39845  -0.39666  -0.38985
 Alpha  occ. eigenvalues --   -0.38882  -0.38574  -0.38501  -0.38447  -0.38424
 Alpha  occ. eigenvalues --   -0.37726  -0.37643  -0.36559  -0.36339  -0.35919
 Alpha  occ. eigenvalues --   -0.35483  -0.34861  -0.34793  -0.33466  -0.33248
 Alpha  occ. eigenvalues --   -0.32823  -0.32578  -0.32566  -0.32282  -0.32192
 Alpha  occ. eigenvalues --   -0.31964  -0.31914  -0.31523  -0.25588  -0.25492
 Alpha  occ. eigenvalues --   -0.22951  -0.22754
 Alpha virt. eigenvalues --   -0.07080  -0.06882   0.00576   0.00809   0.02716
 Alpha virt. eigenvalues --    0.02949   0.04426   0.04735   0.05663   0.06594
 Alpha virt. eigenvalues --    0.07453   0.07503   0.08049   0.08149   0.08384

 Mulliken charges:
               1
     1  Mg   0.984021
     2  C   -0.026415
     3  C   -0.064953
     4  C   -0.072288
     5  C   -0.099244
     6  N   -0.335777
     7  C   -0.019323
     8  C   -0.046051
     9  C   -0.130742
    10  C    0.025582
    11  C    0.037426
    12  C    0.055365
    13  C   -0.144099
    14  H    0.038335
    15  N   -0.481464
    16  C    0.183223
    17  C   -0.191620
    18  C   -0.022517
    19  C    0.131707
    20  C    0.056780
    21  C    0.038466
    22  O   -0.281102
    23  C    0.024625
    24  N   -0.375226
    25  C    0.076361
    26  C   -0.094274
    27  C   -0.055042
    28  C    0.063618
    29  C    0.027618
    30  C   -0.032308
    31  C   -0.043706
    32  N   -0.452892
    33  C    0.130631
    34  C   -0.169484
    35  C   -0.056357
    36  C    0.215947
    37  C    0.092249
    38  C    0.091474
    39  O   -0.190148
    40  C   -0.123765
    41  C    0.263215
    42  O   -0.290764
    43  O   -0.356992
    44  C    0.146662
    45  H   -0.008994
    46  H    0.021600
    47  H   -0.013533
    48  H    0.038457
    49  H    0.026761
    50  H    0.047631
    51  H    0.032146
    52  H    0.052304
    53  H    0.035793
    54  H    0.046963
    55  H    0.065080
    56  H    0.052692
    57  H    0.057317
    58  H    0.043333
    59  H    0.035734
    60  H    0.042628
    61  H    0.066664
    62  H    0.043736
    63  H    0.047304
    64  H    0.036222
    65  H    0.044695
    66  H    0.039228
    67  H    0.036262
    68  H    0.035278
    69  H    0.040172
    70  H    0.056328
    71  H    0.040421
    72  H    0.028951
    73  H    0.060719
    74  H    0.053694
    75  H    0.024487
    76  H    0.056436
    77  H    0.065999
    78  H    0.067051
    79  H    0.053691
    80  Mg   0.977170
    81  C   -0.038898
    82  C   -0.071927
    83  C   -0.068541
    84  C   -0.096372
    85  N   -0.383273
    86  C   -0.009598
    87  C   -0.027007
    88  C   -0.121288
    89  C    0.109286
    90  C   -0.013795
    91  C   -0.019379
    92  C   -0.123105
    93  H    0.029462
    94  N   -0.491535
    95  C    0.111773
    96  C   -0.136062
    97  C   -0.128105
    98  C    0.164647
    99  C    0.081508
   100  C    0.041216
   101  O   -0.208239
   102  C   -0.027511
   103  N   -0.338813
   104  C    0.031397
   105  C   -0.031749
   106  C   -0.109674
   107  C    0.026621
   108  C    0.019875
   109  C   -0.035731
   110  C   -0.029314
   111  N   -0.401550
   112  C    0.165485
   113  C   -0.241987
   114  C    0.013944
   115  C    0.138199
   116  C    0.096292
   117  C    0.119888
   118  O   -0.173101
   119  C   -0.118140
   120  C    0.285034
   121  O   -0.233235
   122  O   -0.386713
   123  C    0.128186
   124  H   -0.028624
   125  H    0.025148
   126  H    0.001856
   127  H    0.050900
   128  H    0.047798
   129  H    0.031159
   130  H    0.050489
   131  H    0.042823
   132  H    0.033676
   133  H    0.059756
   134  H    0.061142
   135  H    0.063920
   136  H    0.057875
   137  H    0.039909
   138  H    0.047190
   139  H    0.079783
   140  H    0.047410
   141  H    0.039957
   142  H    0.038784
   143  H    0.032525
   144  H    0.032674
   145  H    0.039110
   146  H    0.051700
   147  H    0.028436
   148  H    0.032715
   149  H    0.031899
   150  H    0.042741
   151  H    0.037459
   152  H    0.058665
   153  H    0.027603
   154  H    0.045752
   155  H    0.080994
   156  H    0.063669
   157  H    0.072782
   158  H    0.054989
 Sum of Mulliken charges =  -0.00000

 Dipole moment (field-independent basis, Debye):
    X=             -4.4712    Y=             -0.9793    Z=              2.4651  Tot=              5.1988
 Quadrupole moment (field-independent basis, Debye-Ang):
   XX=           -609.3732   YY=           -472.2725   ZZ=           -500.5234
   XY=             39.8092   XZ=            -53.1745   YZ=            -12.3008

 Normal termination of Gaussian 16 at Sat Sep 18 19:50:55 2021.
