 Gaussian 16, Revision A.03,
 Gaussian 16:  ES64L-G16RevA.03 25-Dec-2016

 --------------------------------
 #p wB97XD/Def2SVP td=(nstates=5)
 --------------------------------

 --------------------------------
 TDDFT excited states in gaussian
 --------------------------------
 Symbolic Z-matrix:
 Charge =  0 Multiplicity = 1

                         Standard orientation:
 ---------------------------------------------------------------------
 Center     Atomic      Atomic             Coordinates (Angstroms)
 Number     Number       Type             X           Y           Z
 ---------------------------------------------------------------------
      1         12           0       21.222614    0.184358    0.448903
      2          6           0       18.342899   -1.619435    0.302677
      3          6           0       23.010879   -2.756431   -0.364951
      4          6           0       23.798231    2.111856   -0.448390
      5          6           0       19.281806    3.216589    0.734311
      6          7           0       20.698455   -1.890670    0.060205
      7          6           0       19.531151   -2.443056    0.028672
      8          6           0       19.587058   -4.011171   -0.026306
      9          6           0       21.122479   -4.357641    0.055006
     10          6           0       21.713751   -2.910052   -0.055202
     11          6           0       21.554611   -5.266212    1.206785
     12          6           0       18.788648   -4.614970   -1.328181
     13          6           0       18.580639   -3.717496   -2.537327
     14          1           0       18.258297   -4.318562   -3.905422
     15          7           0       23.135352   -0.275421   -0.311591
     16          6           0       23.706530   -1.509431   -0.509991
     17          6           0       24.996502   -1.353413   -1.026730
     18          6           0       25.267395    0.066760   -1.111436
     19          6           0       24.017772    0.724270   -0.646278
     20          6           0       25.907583   -2.551503   -1.221468
     21          6           0       26.594330    0.665633   -1.611849
     22          8           0       27.493419   -0.128011   -1.969853
     23          6           0       26.897540    2.064219   -1.709149
     24          7           0       21.468500    2.424367    0.018426
     25          6           0       22.682674    2.871590   -0.133304
     26          6           0       22.774757    4.421914   -0.050887
     27          6           0       21.337201    4.784418    0.381550
     28          6           0       20.574063    3.399000    0.420044
     29          6           0       23.780481    4.930443    0.917939
     30          6           0       20.654420    5.869325   -0.577745
     31          6           0       20.405691    7.300692    0.053466
     32          7           0       19.251722    0.761922    0.627092
     33          6           0       18.587036    1.986229    0.770836
     34          6           0       17.122409    1.719103    0.918787
     35          6           0       17.020353    0.338644    0.695585
     36          6           0       18.322983   -0.204899    0.489169
     37          6           0       16.039075    2.653184    1.159612
     38          6           0       16.058044   -0.657254    0.567492
     39          8           0       14.822629   -0.675226    0.669781
     40          6           0       16.859017   -1.980012    0.402441
     41          6           0       16.434107   -2.944127    1.535497
     42          8           0       16.023448   -4.086624    1.423217
     43          8           0       16.569114   -2.373189    2.782535
     44          6           0       16.161593   -3.172466    3.944142
     45          1           0       23.465363   -3.703319   -0.663257
     46          1           0       24.646708    2.787744   -0.572119
     47          1           0       18.727498    4.121640    0.990943
     48          1           0       19.192745   -4.361118    0.928088
     49          1           0       21.484712   -4.835520   -0.855755
     50          1           0       22.199260   -4.711758    1.888496
     51          1           0       22.128155   -6.126729    0.860377
     52          1           0       20.746487   -5.732318    1.770579
     53          1           0       17.863187   -4.958493   -0.865394
     54          1           0       19.272590   -5.459012   -1.820071
     55          1           0       19.520149   -3.168599   -2.596086
     56          1           0       17.819256   -3.000274   -2.230222
     57          1           0       26.880067   -2.579693   -0.729272
     58          1           0       26.018788   -2.732176   -2.290879
     59          1           0       25.395455   -3.444942   -0.864789
     60          1           0       26.892522    2.651446   -0.791040
     61          1           0       26.116812    2.583063   -2.264448
     62          1           0       27.799926    2.277769   -2.281185
     63          1           0       23.044012    4.977861   -0.948859
     64          1           0       21.269443    5.112061    1.419001
     65          1           0       24.692792    5.325593    0.471394
     66          1           0       24.205974    4.109629    1.496388
     67          1           0       23.335633    5.694270    1.555522
     68          1           0       19.651407    5.516643   -0.821721
     69          1           0       21.236969    6.117102   -1.464039
     70          1           0       20.732670    8.069667   -0.645309
     71          1           0       21.076208    7.410076    0.905937
     72          1           0       19.323587    7.371007    0.165498
     73          1           0       16.495384    3.446610    1.751984
     74          1           0       15.244218    2.179842    1.737139
     75          1           0       15.636692    2.910667    0.180319
     76          1           0       16.497530   -2.601648   -0.416379
     77          1           0       15.913790   -2.490965    4.758151
     78          1           0       16.894956   -3.844493    4.389559
     79          1           0       15.344176   -3.864032    3.737909
     80         12           0      -20.450615    0.785836    0.407971
     81          6           0      -20.577136   -2.736794    0.468326
     82          6           0      -17.494997    0.524072   -1.266234
     83          6           0      -20.703780    4.116576   -0.315586
     84          6           0      -23.775175    0.710812    1.689256
     85          7           0      -19.233849   -0.952513   -0.451937
     86          6           0      -19.357253   -2.288276   -0.197064
     87          6           0      -18.304054   -3.124233   -0.944613
     88          6           0      -17.208839   -1.960362   -1.113225
     89          6           0      -18.027562   -0.706692   -0.929930
     90          6           0      -16.017219   -2.007454   -0.119568
     91          6           0      -18.780785   -3.679412   -2.361610
     92          6           0      -18.100555   -4.912938   -2.935028
     93          1           0      -17.180932   -4.844113   -4.172801
     94          7           0      -19.258120    2.241469   -0.632549
     95          6           0      -18.023253    1.915182   -1.113027
     96          6           0      -17.317221    3.055447   -1.500107
     97          6           0      -18.207908    4.158425   -1.216742
     98          6           0      -19.480966    3.560385   -0.724177
     99          6           0      -15.900893    3.060433   -2.062599
    100          6           0      -17.816778    5.600164   -1.450148
    101          8           0      -16.672647    5.867989   -1.899534
    102          6           0      -18.720777    6.821860   -1.059039
    103          7           0      -22.012571    2.134527    0.674230
    104          6           0      -21.855774    3.501241    0.317412
    105          6           0      -22.955520    4.321090    0.932803
    106          6           0      -24.065333    3.295986    1.251766
    107          6           0      -23.256058    1.966986    1.292756
    108          6           0      -22.686767    5.120264    2.227979
    109          6           0      -25.189647    3.224532    0.089483
    110          6           0      -26.327116    4.234331    0.116172
    111          7           0      -21.804180   -0.722617    1.133915
    112          6           0      -23.095259   -0.599853    1.625100
    113          6           0      -23.659255   -1.832842    1.893461
    114          6           0      -22.669214   -2.749585    1.500253
    115          6           0      -21.570418   -2.015711    1.022392
    116          6           0      -25.022757   -2.051609    2.469217
    117          6           0      -22.332277   -4.074304    1.496078
    118          8           0      -22.908896   -5.031062    1.974534
    119          6           0      -21.080539   -4.130863    0.595315
    120          6           0      -21.553325   -4.758349   -0.681993
    121          8           0      -22.432579   -4.319636   -1.356172
    122          8           0      -20.871596   -5.954467   -0.913052
    123          6           0      -21.399978   -6.671210   -2.021232
    124          1           0      -16.459947    0.496839   -1.613890
    125          1           0      -20.756028    5.207555   -0.335550
    126          1           0      -24.734387    0.776251    2.206591
    127          1           0      -17.834009   -3.870832   -0.305368
    128          1           0      -16.779270   -2.086742   -2.106617
    129          1           0      -15.238398   -2.489621   -0.711044
    130          1           0      -16.226422   -2.633179    0.747992
    131          1           0      -15.685959   -1.006624    0.157877
    132          1           0      -18.626633   -2.927104   -3.135212
    133          1           0      -19.862158   -3.801010   -2.295119
    134          1           0      -18.928462   -5.589061   -3.153280
    135          1           0      -17.531501   -5.370298   -2.125804
    136          1           0      -15.220170    3.872693   -1.805546
    137          1           0      -16.158874    2.992014   -3.119161
    138          1           0      -15.345200    2.206129   -1.675928
    139          1           0      -18.873312    6.828710    0.019874
    140          1           0      -19.623312    6.634974   -1.640608
    141          1           0      -18.397322    7.796123   -1.425252
    142          1           0      -23.322423    4.978264    0.145052
    143          1           0      -24.559087    3.502453    2.201404
    144          1           0      -23.219985    4.766250    3.110105
    145          1           0      -22.570851    6.184301    2.020804
    146          1           0      -21.657287    4.864715    2.478401
    147          1           0      -25.556582    2.211126    0.250914
    148          1           0      -24.731381    3.291312   -0.897427
    149          1           0      -26.393883    4.722185   -0.855895
    150          1           0      -26.124294    4.983171    0.882315
    151          1           0      -27.288380    3.746017    0.278326
    152          1           0      -25.502244   -2.790042    1.827290
    153          1           0      -25.649372   -1.160377    2.417357
    154          1           0      -24.996122   -2.447665    3.484514
    155          1           0      -20.344363   -4.769021    1.082875
    156          1           0      -22.153404   -7.377610   -1.673809
    157          1           0      -20.681140   -7.349173   -2.482955
    158          1           0      -21.850548   -6.015207   -2.764088
 ---------------------------------------------------------------------

 SCF Done:  E(RwB97XD) =  -4070.55268988     A.U. after   19 cycles

 Excitation energies and oscillator strengths:

 Excited State   1:      Singlet-A      1.6461 eV  753.19 nm  f=0.4310  <S**2>=0.000
     310 -> 315       -0.19076
     311 -> 313        0.67905
     310 <- 315       -0.11771
 This state for optimization and/or second-order correction.
 Total Energy, E(TD-HF/TD-DFT) =  -4070.49219589
 Copying the excited state density for this state as the 1-particle RhoCI density.

 Excited State   2:      Singlet-A      1.6548 eV  749.23 nm  f=0.4042  <S**2>=0.000
     309 -> 316       -0.16594
     312 -> 314        0.68513
     309 <- 316       -0.11127

 Excited State   3:      Singlet-A      2.0913 eV  592.86 nm  f=0.1257  <S**2>=0.000
     310 -> 313        0.64856
     311 -> 315        0.26302

 Excited State   4:      Singlet-A      2.1981 eV  564.06 nm  f=0.1159  <S**2>=0.000
     309 -> 314        0.64042
     312 -> 316        0.27524

 Excited State   5:      Singlet-A      3.1710 eV  390.99 nm  f=0.0097  <S**2>=0.000
     306 -> 313       -0.26037
     307 -> 313        0.61062
     307 -> 318       -0.13706

 The electronic state is 1-A.
 Alpha  occ. eigenvalues --  -46.96683 -46.96645 -19.30619 -19.30185 -19.25832
 Alpha  occ. eigenvalues --  -19.25113 -19.24135 -19.23157 -19.22915 -19.22403
 Alpha  occ. eigenvalues --  -14.47824 -14.47768 -14.47263 -14.46511 -14.45197
 Alpha  occ. eigenvalues --  -14.44395 -14.44390 -14.43809 -10.43648 -10.43547
 Alpha  occ. eigenvalues --  -10.39012 -10.38817 -10.38174 -10.37344 -10.37090
 Alpha  occ. eigenvalues --  -10.36463 -10.36355 -10.35930 -10.35680 -10.35344
 Alpha  occ. eigenvalues --  -10.35296 -10.34982 -10.34763 -10.34729 -10.34716
 Alpha  occ. eigenvalues --  -10.34709 -10.34629 -10.34495 -10.34276 -10.33969
 Alpha  occ. eigenvalues --  -10.33880 -10.33536 -10.33380 -10.33308 -10.33065
 Alpha  occ. eigenvalues --  -10.32960 -10.32937 -10.32566 -10.32463 -10.32409
 Alpha  occ. eigenvalues --  -10.32367 -10.32358 -10.32356 -10.32094 -10.32081
 Alpha  occ. eigenvalues --  -10.32025 -10.31891 -10.31858 -10.31747 -10.31701
 Alpha  occ. eigenvalues --  -10.31639 -10.31610 -10.31520 -10.31485 -10.31289
 Alpha  occ. eigenvalues --  -10.31157 -10.31139 -10.31085 -10.31073 -10.30856
 Alpha  occ. eigenvalues --  -10.30810 -10.30754 -10.30455 -10.30424 -10.30342
 Alpha  occ. eigenvalues --  -10.30271 -10.30224 -10.30006 -10.29954 -10.29869
 Alpha  occ. eigenvalues --  -10.29780 -10.29748 -10.29475 -10.29458 -10.28783
 Alpha  occ. eigenvalues --  -10.28184  -3.22556  -3.22414  -1.96116  -1.95995
 Alpha  occ. eigenvalues --   -1.95706  -1.95524  -1.95488  -1.95373  -1.19788
 Alpha  occ. eigenvalues --   -1.18369  -1.12251  -1.11732  -1.11381  -1.09774
 Alpha  occ. eigenvalues --   -1.09621  -1.09520  -1.07769  -1.07073  -1.06704
 Alpha  occ. eigenvalues --   -1.06530  -1.05969  -1.05738  -1.04246  -1.03897
 Alpha  occ. eigenvalues --   -0.96364  -0.95068  -0.91627  -0.91300  -0.90926
 Alpha  occ. eigenvalues --   -0.90854  -0.90622  -0.90553  -0.90345  -0.89702
 Alpha  occ. eigenvalues --   -0.89516  -0.89019  -0.87857  -0.87207  -0.86576
 Alpha  occ. eigenvalues --   -0.86291  -0.86079  -0.85524  -0.84842  -0.84823
 Alpha  occ. eigenvalues --   -0.84422  -0.83808  -0.83462  -0.82642  -0.82293
 Alpha  occ. eigenvalues --   -0.82282  -0.80460  -0.80010  -0.79356  -0.79300
 Alpha  occ. eigenvalues --   -0.78887  -0.78884  -0.78312  -0.77897  -0.77638
 Alpha  occ. eigenvalues --   -0.77233  -0.75599  -0.75423  -0.74232  -0.73958
 Alpha  occ. eigenvalues --   -0.71633  -0.71468  -0.70855  -0.70410  -0.70379
 Alpha  occ. eigenvalues --   -0.70360  -0.69155  -0.68837  -0.68242  -0.67959
 Alpha  occ. eigenvalues --   -0.67648  -0.67315  -0.66843  -0.66704  -0.66557
 Alpha  occ. eigenvalues --   -0.66228  -0.65372  -0.64796  -0.62905  -0.62494
 Alpha  occ. eigenvalues --   -0.62151  -0.62003  -0.61575  -0.61181  -0.61023
 Alpha  occ. eigenvalues --   -0.60937  -0.60540  -0.60078  -0.60026  -0.59245
 Alpha  occ. eigenvalues --   -0.58486  -0.58307  -0.57682  -0.57621  -0.57609
 Alpha  occ. eigenvalues --   -0.57272  -0.57068  -0.56757  -0.56500  -0.55857
 Alpha  occ. eigenvalues --   -0.55799  -0.55500  -0.55445  -0.55215  -0.55115
 Alpha  occ. eigenvalues --   -0.54802  -0.54726  -0.54609  -0.54519  -0.54208
 Alpha  occ. eigenvalues --   -0.54178  -0.53775  -0.53424  -0.53344  -0.53268
 Alpha  occ. eigenvalues --   -0.53142  -0.52853  -0.52780  -0.52617  -0.52539
 Alpha  occ. eigenvalues --   -0.52267  -0.52060  -0.51911  -0.51772  -0.51657
 Alpha  occ. eigenvalues --   -0.51489  -0.51326  -0.51174  -0.50936  -0.50923
 Alpha  occ. eigenvalues --   -0.50763  -0.50734  -0.50486  -0.50408  -0.50264
 Alpha  occ. eigenvalues --   -0.49859  -0.49575  -0.49352  -0.49267  -0.49145
 Alpha  occ. eigenvalues --   -0.49136  -0.48954  -0.48816  -0.48750  -0.48533
 Alpha  occ. eigenvalues --   -0.48335  -0.48250  -0.48117  -0.47963  -0.47864
 Alpha  occ. eigenvalues --   -0.47714  -0.47672  -0.47224  -0.47198  -0.46997
 Alpha  occ. eigenvalues --   -0.46980  -0.46841  -0.46656  -0.46549  -0.46505
 Alpha  occ. eigenvalues --   -0.46399  -0.45808  -0.45757  -0.45707  -0.45585
 Alpha  occ. eigenvalues --   -0.45278  -0.45164  -0.44887  -0.44716  -0.44560
 Alpha  occ. eigenvalues --   -0.44544  -0.44428  -0.44186  -0.44146  -0.44076
 Alpha  occ. eigenvalues --   -0.43902  -0.43439  -0.43428  -0.43283  -0.43164
 Alpha  occ. eigenvalues --   -0.42904  -0.42883  -0.42765  -0.42624  -0.42388
 Alpha  occ. eigenvalues --   -0.42196  -0.41985  -0.41770  -0.41345  -0.40987
 Alpha  occ. eigenvalues --   -0.40681  -0.40431  -0.40117  -0.39814  -0.39811
 Alpha  occ. eigenvalues --   -0.39570  -0.39122  -0.38885  -0.38826  -0.38622
 Alpha  occ. eigenvalues --   -0.38522  -0.38414  -0.37481  -0.37051  -0.36824
 Alpha  occ. eigenvalues --   -0.36328  -0.36256  -0.35662  -0.33804  -0.33646
 Alpha  occ. eigenvalues --   -0.33206  -0.33150  -0.32452  -0.32149  -0.32029
 Alpha  occ. eigenvalues --   -0.31971  -0.31628  -0.31143  -0.26879  -0.26227
 Alpha  occ. eigenvalues --   -0.23828  -0.23486
 Alpha virt. eigenvalues --   -0.07945  -0.07892  -0.00573   0.00021   0.01986
 Alpha virt. eigenvalues --    0.02015   0.03801   0.04349   0.04574   0.04706
 Alpha virt. eigenvalues --    0.06764   0.07183   0.07451   0.07599   0.08007

 Mulliken charges:
               1
     1  Mg   0.956817
     2  C    0.004073
     3  C   -0.072027
     4  C   -0.044023
     5  C   -0.099271
     6  N   -0.349277
     7  C    0.011041
     8  C   -0.050955
     9  C   -0.100598
    10  C    0.039691
    11  C    0.023930
    12  C   -0.030568
    13  C   -0.101662
    14  H    0.062357
    15  N   -0.458683
    16  C    0.154402
    17  C   -0.150892
    18  C   -0.094597
    19  C    0.205496
    20  C    0.091872
    21  C    0.063151
    22  O   -0.267815
    23  C    0.000006
    24  N   -0.297868
    25  C    0.010961
    26  C   -0.080711
    27  C   -0.045996
    28  C    0.048422
    29  C    0.002564
    30  C   -0.042792
    31  C   -0.065012
    32  N   -0.464729
    33  C    0.133636
    34  C   -0.171321
    35  C   -0.013182
    36  C    0.155609
    37  C    0.081437
    38  C    0.117911
    39  O   -0.220281
    40  C   -0.108050
    41  C    0.242747
    42  O   -0.244101
    43  O   -0.368859
    44  C    0.139795
    45  H    0.011732
    46  H   -0.042741
    47  H    0.000706
    48  H    0.052489
    49  H    0.038600
    50  H    0.039477
    51  H    0.034758
    52  H    0.041340
    53  H    0.057341
    54  H    0.041157
    55  H    0.052220
    56  H    0.036598
    57  H    0.060601
    58  H    0.046862
    59  H    0.000120
    60  H    0.063458
    61  H    0.040900
    62  H    0.054678
    63  H    0.045307
    64  H    0.032494
    65  H    0.028515
    66  H    0.031373
    67  H    0.039489
    68  H    0.036138
    69  H    0.041013
    70  H    0.033315
    71  H    0.036182
    72  H    0.047810
    73  H    0.043722
    74  H    0.066857
    75  H    0.074613
    76  H    0.058541
    77  H    0.052707
    78  H    0.037442
    79  H    0.061541
    80  Mg   0.948383
    81  C    0.000504
    82  C   -0.064808
    83  C   -0.087286
    84  C   -0.085764
    85  N   -0.297922
    86  C   -0.038053
    87  C   -0.036669
    88  C   -0.151808
    89  C    0.082403
    90  C    0.029885
    91  C   -0.001038
    92  C   -0.097747
    93  H    0.043842
    94  N   -0.425973
    95  C    0.122603
    96  C   -0.157733
    97  C   -0.085223
    98  C    0.168938
    99  C    0.086371
   100  C    0.032088
   101  O   -0.271669
   102  C   -0.011494
   103  N   -0.428217
   104  C    0.087236
   105  C   -0.092007
   106  C   -0.113430
   107  C    0.082450
   108  C    0.055257
   109  C   -0.033206
   110  C   -0.022698
   111  N   -0.388464
   112  C    0.120740
   113  C   -0.174825
   114  C    0.038981
   115  C    0.121380
   116  C    0.098349
   117  C    0.025903
   118  O   -0.206354
   119  C   -0.074471
   120  C    0.254127
   121  O   -0.209759
   122  O   -0.358091
   123  C    0.118676
   124  H   -0.004271
   125  H   -0.015973
   126  H    0.009929
   127  H    0.028238
   128  H    0.041491
   129  H    0.039214
   130  H    0.042963
   131  H    0.043392
   132  H    0.044047
   133  H    0.047686
   134  H    0.049648
   135  H    0.043114
   136  H    0.069614
   137  H    0.065480
   138  H    0.029183
   139  H    0.067712
   140  H    0.050353
   141  H    0.051424
   142  H    0.031748
   143  H    0.027901
   144  H    0.049136
   145  H    0.044367
   146  H    0.015819
   147  H    0.024913
   148  H    0.037003
   149  H    0.036015
   150  H    0.032830
   151  H    0.043074
   152  H    0.055727
   153  H    0.023767
   154  H    0.063695
   155  H    0.047929
   156  H    0.048916
   157  H    0.048463
   158  H    0.062046
 Sum of Mulliken charges =  -0.00000

 Dipole moment (field-independent basis, Debye):
    X=              1.0612    Y=              5.2846    Z=              4.2733  Tot=              6.8785
 Quadrupole moment (field-independent basis, Debye-Ang):
   XX=           -515.7535   YY=           -485.3298   ZZ=           -505.0526
   XY=              4.0839   XZ=             60.6455   YZ=             21.4716

 Normal termination of Gaussian 16 at Sat Sep 18 22:01:08 2021.
