 Gaussian 16, Revision A.03,
 Gaussian 16:  ES64L-G16RevA.03 25-Dec-2016

 --------------------------------
 #p wB97XD/Def2SVP td=(nstates=5)
 --------------------------------

 --------------------------------
 TDDFT excited states in gaussian
 --------------------------------
 Symbolic Z-matrix:
 Charge =  0 Multiplicity = 1

                         Standard orientation:
 ---------------------------------------------------------------------
 Center     Atomic      Atomic             Coordinates (Angstroms)
 Number     Number       Type             X           Y           Z
 ---------------------------------------------------------------------
      1         12           0       -0.637665   -0.025660   -0.217153
      2          6           0        2.830579    0.274591    0.452073
      3          6           0       -0.288682   -3.386037    0.120034
      4          6           0       -4.027445   -0.213348   -0.034004
      5          6           0       -0.872481    3.425637   -0.002310
      6          7           0        1.130167   -1.291105    0.399275
      7          6           0        2.465736   -1.015533    0.527333
      8          6           0        3.273505   -2.246493    0.709531
      9          6           0        2.270115   -3.409232    0.257949
     10          6           0        0.968266   -2.683381    0.269710
     11          6           0        2.646889   -3.989166   -1.095825
     12          6           0        3.761698   -2.260537    2.166615
     13          6           0        5.321298   -2.411309    2.417274
     14          1           0        5.889978   -3.541168    3.327618
     15          7           0       -2.021382   -1.543244   -0.036003
     16          6           0       -1.650840   -2.894681    0.000518
     17          6           0       -2.845227   -3.675961   -0.117766
     18          6           0       -3.979032   -2.795144   -0.134200
     19          6           0       -3.356071   -1.444443   -0.142479
     20          6           0       -2.777753   -5.194555   -0.216323
     21          6           0       -5.450786   -3.140201   -0.180367
     22          8           0       -5.673632   -4.376430   -0.330553
     23          6           0       -6.676126   -2.207754    0.036190
     24          7           0       -2.270440    1.410941   -0.049081
     25          6           0       -3.579760    1.077763   -0.024914
     26          6           0       -4.520173    2.304518    0.110770
     27          6           0       -3.493742    3.484910    0.006899
     28          6           0       -2.093930    2.708759    0.038672
     29          6           0       -5.556181    2.278987   -0.998724
     30          6           0       -3.565066    4.497405    1.108959
     31          6           0       -4.050368    5.849812    0.662414
     32          7           0        0.626431    1.549558   -0.036483
     33          6           0        0.448489    2.938609   -0.011141
     34          6           0        1.641677    3.612950   -0.098545
     35          6           0        2.616642    2.604454    0.042876
     36          6           0        1.947054    1.388093    0.154888
     37          6           0        1.751213    5.087921   -0.422293
     38          6           0        4.082910    2.356867    0.025660
     39          8           0        4.977471    3.131184   -0.118135
     40          6           0        4.187439    0.825556    0.381239
     41          6           0        5.284343    0.245784   -0.484963
     42          8           0        6.415245   -0.034692   -0.087671
     43          8           0        4.807676    0.024290   -1.799869
     44          6           0        5.792606   -0.651983   -2.643551
     45          1           0       -0.160245   -4.464563    0.004941
     46          1           0       -5.119114   -0.225470   -0.075963
     47          1           0       -0.884962    4.476735    0.291310
     48          1           0        4.141038   -2.211472    0.050425
     49          1           0        2.325699   -4.209614    0.995301
     50          1           0        3.018877   -3.241751   -1.795263
     51          1           0        1.741595   -4.375045   -1.565671
     52          1           0        3.336230   -4.831428   -1.037074
     53          1           0        3.249533   -3.082887    2.665933
     54          1           0        3.411640   -1.413682    2.756869
     55          1           0        5.525699   -1.452147    2.893722
     56          1           0        5.872559   -2.318067    1.482325
     57          1           0       -2.163048   -5.612365    0.580983
     58          1           0       -2.289870   -5.413043   -1.166160
     59          1           0       -3.708191   -5.749734   -0.089637
     60          1           0       -6.667044   -1.577929   -0.852811
     61          1           0       -6.507886   -1.618294    0.937559
     62          1           0       -7.607177   -2.761409    0.160366
     63          1           0       -5.074351    2.338532    1.048423
     64          1           0       -3.530011    3.921033   -0.991060
     65          1           0       -6.016612    1.290864   -0.997574
     66          1           0       -5.042376    2.447630   -1.945664
     67          1           0       -6.318344    3.056349   -1.037276
     68          1           0       -2.601476    4.706928    1.573395
     69          1           0       -4.178050    4.240248    1.972576
     70          1           0       -4.895195    6.125916    1.292188
     71          1           0       -4.454120    5.840812   -0.350012
     72          1           0       -3.280030    6.621669    0.655029
     73          1           0        2.779408    5.247160   -0.748782
     74          1           0        1.541872    5.718043    0.441799
     75          1           0        1.014744    5.252744   -1.208456
     76          1           0        4.643476    0.858261    1.371390
     77          1           0        5.295881   -1.219168   -3.430856
     78          1           0        6.312813   -1.436815   -2.096274
     79          1           0        6.540790    0.026029   -3.055105
 ---------------------------------------------------------------------

 SCF Done:  E(RwB97XD) =  -2035.30311098     A.U. after   20 cycles

 Excitation energies and oscillator strengths:

 Excited State   1:      Singlet-A      1.6248 eV  763.06 nm  f=0.3608  <S**2>=0.000
     155 ->158         0.17982
     156 ->157         0.68479
     155 <-158         0.11752
 This state for optimization and/or second-order correction.
 Total Energy, E(TD-HF/TD-DFT) =  -2035.24339952
 Copying the excited state density for this state as the 1-particle RhoCI density.

 Excited State   2:      Singlet-A      2.1634 eV  573.09 nm  f=0.1555  <S**2>=0.000
     155 ->157         0.64639
     156 ->158        -0.27031

 Excited State   3:      Singlet-A      3.2312 eV  383.71 nm  f=0.0021  <S**2>=0.000
     153 ->157         0.24951
     153 ->159        -0.10044
     154 ->157         0.63521

 Excited State   4:      Singlet-A      3.3159 eV  373.91 nm  f=0.0018  <S**2>=0.000
     152 ->157         0.31629
     152 ->158         0.13529
     152 ->159         0.30958
     152 ->160         0.16579
     153 ->157         0.41330
     153 ->159         0.13698
     154 ->157        -0.10784
     154 ->159        -0.14180

 Excited State   5:      Singlet-A      3.4110 eV  363.48 nm  f=0.0009  <S**2>=0.000
     152 ->157         0.44194
     152 ->159         0.14560
     153 ->157        -0.43626
     154 ->157         0.21032
     156 ->158        -0.13920

 The electronic state is 1-A.
 Alpha  occ. eigenvalues --  -46.95381 -19.30876 -19.25984 -19.24898 -19.23381
 Alpha  occ. eigenvalues --  -14.47003 -14.46839 -14.44716 -14.43632 -10.44266
 Alpha  occ. eigenvalues --  -10.39694 -10.39508 -10.36077 -10.35420 -10.35139
 Alpha  occ. eigenvalues --  -10.34904 -10.34754 -10.34729 -10.34570 -10.33080
 Alpha  occ. eigenvalues --  -10.32885 -10.32726 -10.32606 -10.32596 -10.32459
 Alpha  occ. eigenvalues --  -10.32446 -10.32384 -10.32286 -10.32051 -10.31877
 Alpha  occ. eigenvalues --  -10.31582 -10.31411 -10.31273 -10.31105 -10.30946
 Alpha  occ. eigenvalues --  -10.30829 -10.30477 -10.30390 -10.30195 -10.29888
 Alpha  occ. eigenvalues --  -10.29334 -10.29149 -10.29021  -3.21386  -1.94955
 Alpha  occ. eigenvalues --   -1.94515  -1.94359  -1.17771  -1.14298  -1.10188
 Alpha  occ. eigenvalues --   -1.09872  -1.07276  -1.06314  -1.05414  -1.04825
 Alpha  occ. eigenvalues --   -0.95307  -0.91797  -0.91279  -0.90969  -0.89816
 Alpha  occ. eigenvalues --   -0.88986  -0.87929  -0.86794  -0.86223  -0.84585
 Alpha  occ. eigenvalues --   -0.83885  -0.82682  -0.82472  -0.79792  -0.79397
 Alpha  occ. eigenvalues --   -0.78846  -0.78443  -0.77483  -0.75543  -0.74232
 Alpha  occ. eigenvalues --   -0.71397  -0.70940  -0.69684  -0.69274  -0.68263
 Alpha  occ. eigenvalues --   -0.67694  -0.67400  -0.66966  -0.65133  -0.62549
 Alpha  occ. eigenvalues --   -0.62087  -0.61627  -0.60988  -0.60106  -0.58843
 Alpha  occ. eigenvalues --   -0.58251  -0.57808  -0.57651  -0.56875  -0.56337
 Alpha  occ. eigenvalues --   -0.55855  -0.55542  -0.55188  -0.54653  -0.54262
 Alpha  occ. eigenvalues --   -0.54028  -0.53694  -0.53068  -0.52839  -0.52491
 Alpha  occ. eigenvalues --   -0.52268  -0.52018  -0.51850  -0.51624  -0.50875
 Alpha  occ. eigenvalues --   -0.50585  -0.50288  -0.49954  -0.49692  -0.49182
 Alpha  occ. eigenvalues --   -0.48865  -0.48573  -0.48446  -0.47976  -0.47855
 Alpha  occ. eigenvalues --   -0.47710  -0.47458  -0.47273  -0.47150  -0.46838
 Alpha  occ. eigenvalues --   -0.46008  -0.45909  -0.45674  -0.45223  -0.44649
 Alpha  occ. eigenvalues --   -0.44443  -0.44394  -0.44343  -0.44003  -0.43676
 Alpha  occ. eigenvalues --   -0.43495  -0.43432  -0.43057  -0.42059  -0.40985
 Alpha  occ. eigenvalues --   -0.40701  -0.40175  -0.39768  -0.39519  -0.39291
 Alpha  occ. eigenvalues --   -0.38394  -0.37400  -0.36703  -0.35499  -0.34002
 Alpha  occ. eigenvalues --   -0.33138  -0.32572  -0.32186  -0.31976  -0.26344
 Alpha  occ. eigenvalues --   -0.23482
 Alpha virt. eigenvalues --   -0.07714   0.00059   0.02297   0.04416   0.04981
 Alpha virt. eigenvalues --    0.06256   0.07422   0.08137   0.09337   0.10380
 Alpha virt. eigenvalues --    0.11153   0.11748   0.12330   0.12798   0.13407

 Mulliken charges:
               1
     1  Mg   0.972007
     2  C    0.037753
     3  C   -0.077607
     4  C   -0.047397
     5  C   -0.093046
     6  N   -0.359197
     7  C   -0.051978
     8  C   -0.053774
     9  C   -0.081895
    10  C    0.068428
    11  C    0.030579
    12  C    0.005052
    13  C   -0.116257
    14  H    0.047957
    15  N   -0.473454
    16  C    0.150723
    17  C   -0.148673
    18  C   -0.063211
    19  C    0.180151
    20  C    0.070461
    21  C    0.021597
    22  O   -0.276273
    23  C    0.023587
    24  N   -0.303406
    25  C    0.005245
    26  C   -0.045760
    27  C   -0.064976
    28  C    0.055449
    29  C    0.009341
    30  C   -0.002883
    31  C   -0.061523
    32  N   -0.466547
    33  C    0.108578
    34  C   -0.190750
    35  C   -0.079741
    36  C    0.147881
    37  C    0.086724
    38  C    0.122393
    39  O   -0.159457
    40  C   -0.057527
    41  C    0.245423
    42  O   -0.241398
    43  O   -0.390682
    44  C    0.140094
    45  H    0.005746
    46  H   -0.060384
    47  H    0.006971
    48  H    0.035222
    49  H    0.038499
    50  H    0.038032
    51  H    0.024521
    52  H    0.047539
    53  H    0.031351
    54  H    0.047672
    55  H    0.050623
    56  H    0.054807
    57  H    0.034284
    58  H    0.046806
    59  H    0.065085
    60  H    0.062889
    61  H    0.064267
    62  H    0.063553
    63  H    0.043483
    64  H    0.043092
    65  H    0.033482
    66  H    0.024397
    67  H    0.040201
    68  H    0.030977
    69  H    0.026654
    70  H    0.031343
    71  H    0.020872
    72  H    0.039960
    73  H    0.062298
    74  H    0.052058
    75  H    0.046475
    76  H    0.069850
    77  H    0.047266
    78  H    0.043967
    79  H    0.064134
 Sum of Mulliken charges =  -0.00000

 Dipole moment (field-independent basis, Debye):
    X=             -3.6454    Y=              0.7149    Z=             -1.3918  Tot=              3.9670
 Quadrupole moment (field-independent basis, Debye-Ang):
   XX=           -279.7944   YY=           -255.4222   ZZ=           -249.6768
   XY=            -45.8549   XZ=            -10.4997   YZ=              2.4228

 Normal termination of Gaussian 16 at Sun Sep 19 21:22:40 2021.
