 Gaussian 16, Revision A.03,
 Gaussian 16:  ES64L-G16RevA.03 25-Dec-2016

 --------------------------------
 #p wB97XD/Def2SVP td=(nstates=5)
 --------------------------------

 --------------------------------
 TDDFT excited states in gaussian
 --------------------------------
 Symbolic Z-matrix:
 Charge =  0 Multiplicity = 1

                         Standard orientation:
 ---------------------------------------------------------------------
 Center     Atomic      Atomic             Coordinates (Angstroms)
 Number     Number       Type             X           Y           Z
 ---------------------------------------------------------------------
      1         12           0      -25.388553   -0.386393   -0.170671
      2          6           0      -23.270780    2.348782   -0.572402
      3          6           0      -27.484620    1.549834    1.750887
      4          6           0      -27.186322   -3.196959    0.349994
      5          6           0      -22.940904   -2.385274   -1.838961
      6          7           0      -25.287149    1.655466    0.572316
      7          6           0      -24.364020    2.609167    0.272792
      8          6           0      -24.761761    3.974303    0.848889
      9          6           0      -26.051180    3.595029    1.703223
     10          6           0      -26.291636    2.139847    1.287879
     11          6           0      -25.802622    3.718159    3.201696
     12          6           0      -25.197097    5.060907   -0.197734
     13          6           0      -24.985383    6.505206    0.175224
     14          1           0      -24.719880    6.860542    1.569489
     15          7           0      -27.113863   -0.734116    0.809998
     16          6           0      -27.831603    0.217112    1.562324
     17          6           0      -29.067070   -0.418050    1.939461
     18          6           0      -29.054447   -1.770906    1.515308
     19          6           0      -27.739830   -1.962984    0.854870
     20          6           0      -30.080854    0.224960    2.861510
     21          6           0      -30.072011   -2.828998    1.612714
     22          8           0      -29.843027   -3.996719    1.379566
     23          6           0      -31.497461   -2.510842    2.193559
     24          7           0      -25.218565   -2.527063   -0.815155
     25          6           0      -26.066204   -3.439205   -0.443387
     26          6           0      -25.642326   -4.851070   -0.948863
     27          6           0      -24.347841   -4.610905   -1.704242
     28          6           0      -24.071573   -3.089761   -1.424561
     29          6           0      -25.602168   -5.891615    0.267225
     30          6           0      -24.436617   -4.994046   -3.196627
     31          6           0      -23.916856   -6.422998   -3.605085
     32          7           0      -23.685945   -0.106270   -1.231082
     33          6           0      -22.784740   -1.002525   -1.857615
     34          6           0      -21.695477   -0.312714   -2.436393
     35          6           0      -21.832579    1.020596   -1.858757
     36          6           0      -23.083621    1.046357   -1.178557
     37          6           0      -20.488866   -0.948787   -3.102071
     38          6           0      -21.133466    2.250180   -1.784181
     39          8           0      -20.079800    2.629167   -2.279992
     40          6           0      -22.167957    3.257771   -0.950187
     41          6           0      -21.342971    3.827081    0.166438
     42          8           0      -20.777980    3.151984    1.033316
     43          8           0      -21.160095    5.237106    0.051344
     44          6           0      -20.336246    5.875836    1.124917
     45          1           0      -28.101460    2.221870    2.352362
     46          1           0      -27.718082   -4.076464    0.718011
     47          1           0      -22.185754   -2.938477   -2.400620
     48          1           0      -23.931387    4.289281    1.481237
     49          1           0      -26.907179    4.233931    1.486425
     50          1           0      -24.894896    4.285336    3.405931
     51          1           0      -25.811996    2.754467    3.711649
     52          1           0      -26.514730    4.364960    3.714243
     53          1           0      -26.248277    4.889992   -0.427287
     54          1           0      -24.699533    4.804134   -1.133190
     55          1           0      -25.919914    7.024951   -0.034853
     56          1           0      -24.164850    6.908592   -0.418215
     57          1           0      -30.160682   -0.274608    3.826935
     58          1           0      -31.039256    0.251126    2.341285
     59          1           0      -29.877264    1.254584    3.155221
     60          1           0      -31.385798   -2.531345    3.277941
     61          1           0      -32.177647   -3.338391    1.991580
     62          1           0      -31.827147   -1.516832    1.893778
     63          1           0      -26.464688   -5.128707   -1.608477
     64          1           0      -23.500256   -5.091069   -1.217648
     65          1           0      -24.618620   -6.355081    0.343004
     66          1           0      -26.258078   -6.751066    0.127164
     67          1           0      -25.805324   -5.283960    1.149994
     68          1           0      -23.844179   -4.251167   -3.731875
     69          1           0      -25.477876   -4.859371   -3.489824
     70          1           0      -22.841571   -6.347057   -3.770441
     71          1           0      -24.399490   -6.944181   -4.432066
     72          1           0      -24.035164   -6.950645   -2.659277
     73          1           0      -20.825302   -1.101899   -4.127149
     74          1           0      -20.247596   -1.911476   -2.652936
     75          1           0      -19.529611   -0.454541   -2.943002
     76          1           0      -22.550536    4.013167   -1.637678
     77          1           0      -19.311924    5.504981    1.118906
     78          1           0      -20.681296    5.802797    2.156622
     79          1           0      -20.337328    6.899526    0.750544
     80         12           0       24.721636   -0.782298    0.419035
     81          6           0       25.316914    2.463851   -1.069768
     82          6           0       25.277308    0.653275    3.259412
     83          6           0       24.420040   -3.863559    1.549265
     84          6           0       24.940923   -2.322208   -2.865814
     85          7           0       25.126090    1.400493    1.010324
     86          6           0       25.340453    2.559024    0.292895
     87          6           0       25.649524    3.685791    1.211450
     88          6           0       26.105138    2.977672    2.513221
     89          6           0       25.514308    1.571525    2.255023
     90          6           0       27.636870    2.905223    2.697181
     91          6           0       24.351592    4.500422    1.498991
     92          6           0       24.487105    6.072124    1.467439
     93          1           0       23.202691    6.972802    1.274863
     94          7           0       24.797422   -1.495607    2.277917
     95          6           0       24.923165   -0.758991    3.349493
     96          6           0       24.770783   -1.617435    4.509034
     97          6           0       24.403307   -2.872581    3.969352
     98          6           0       24.560082   -2.775603    2.543424
     99          6           0       24.834142   -1.040400    5.934874
    100          6           0       23.996724   -4.092908    4.747491
    101          8           0       23.737523   -5.110392    4.177487
    102          6           0       23.822271   -3.989183    6.227589
    103          7           0       24.975256   -2.869830   -0.587249
    104          6           0       24.625286   -3.901714    0.177847
    105          6           0       24.361956   -5.123557   -0.619558
    106          6           0       24.741125   -4.623051   -2.049289
    107          6           0       24.917667   -3.138099   -1.871881
    108          6           0       25.040253   -6.463591   -0.158614
    109          6           0       23.638989   -5.026660   -3.104889
    110          6           0       23.922894   -6.173224   -4.114952
    111          7           0       25.040686   -0.183818   -1.501179
    112          6           0       25.032546   -0.852685   -2.745606
    113          6           0       25.207574    0.131979   -3.833198
    114          6           0       25.294979    1.371575   -3.213846
    115          6           0       25.241461    1.169301   -1.845153
    116          6           0       25.412940   -0.216093   -5.327439
    117          6           0       25.456842    2.828278   -3.524951
    118          8           0       25.525815    3.463263   -4.550719
    119          6           0       25.652421    3.589447   -2.119565
    120          6           0       24.895733    4.785769   -2.059173
    121          8           0       23.750072    4.816242   -1.588458
    122          8           0       25.483538    5.927356   -2.595145
    123          6           0       24.821382    7.250802   -2.381830
    124          1           0       25.397818    1.018770    4.280735
    125          1           0       24.255751   -4.877086    1.920793
    126          1           0       24.999424   -2.768053   -3.859926
    127          1           0       26.510941    4.241620    0.840236
    128          1           0       25.741499    3.400275    3.449648
    129          1           0       27.936617    3.420465    3.610232
    130          1           0       28.082603    3.391215    1.829788
    131          1           0       28.045698    1.894572    2.715460
    132          1           0       24.056336    4.201679    2.504980
    133          1           0       23.607730    4.130096    0.793855
    134          1           0       25.224672    6.322501    0.705420
    135          1           0       24.914308    6.282919    2.448551
    136          1           0       23.849685   -1.146794    6.392381
    137          1           0       25.191009   -0.014530    6.019490
    138          1           0       25.442424   -1.681953    6.571808
    139          1           0       23.033757   -3.290723    6.506537
    140          1           0       24.655029   -3.570284    6.792403
    141          1           0       23.499529   -4.957992    6.609651
    142          1           0       23.286822   -5.301966   -0.600179
    143          1           0       25.735842   -4.988286   -2.305630
    144          1           0       25.525513   -6.246641    0.792425
    145          1           0       25.695232   -6.964942   -0.872053
    146          1           0       24.258356   -7.208016   -0.007434
    147          1           0       23.418676   -4.162163   -3.731747
    148          1           0       22.715295   -5.078885   -2.528566
    149          1           0       23.065162   -6.843853   -4.163805
    150          1           0       24.823041   -6.708677   -3.812598
    151          1           0       24.068024   -5.773498   -5.119291
    152          1           0       24.846681   -1.123344   -5.536144
    153          1           0       26.456607   -0.486357   -5.489794
    154          1           0       25.097786    0.594605   -5.984771
    155          1           0       26.710088    3.829789   -2.015574
    156          1           0       24.784247    7.504616   -1.321501
    157          1           0       23.907809    7.340320   -2.968373
    158          1           0       25.535472    8.007341   -2.706891
 ---------------------------------------------------------------------

 SCF Done:  E(RwB97XD) =  -4070.60776828     A.U. after   19 cycles

 Excitation energies and oscillator strengths:

 Excited State   1:      Singlet-A      1.6919 eV  732.82 nm  f=0.3563  <S**2>=0.000
     309 -> 315        0.17785
     312 -> 313        0.68352
     309 <- 315        0.11246
 This state for optimization and/or second-order correction.
 Total Energy, E(TD-HF/TD-DFT) =  -4070.54559278
 Copying the excited state density for this state as the 1-particle RhoCI density.

 Excited State   2:      Singlet-A      1.6948 eV  731.54 nm  f=0.3963  <S**2>=0.000
     310 -> 316        0.16812
     311 -> 314        0.68611
     310 <- 316        0.11037

 Excited State   3:      Singlet-A      2.1226 eV  584.11 nm  f=0.2207  <S**2>=0.000
     310 -> 314        0.67195
     311 -> 316       -0.20538

 Excited State   4:      Singlet-A      2.1733 eV  570.48 nm  f=0.1437  <S**2>=0.000
     309 -> 313        0.64717
     312 -> 315       -0.26321

 Excited State   5:      Singlet-A      3.4398 eV  360.44 nm  f=0.0065  <S**2>=0.000
     302 -> 314       -0.20104
     305 -> 314       -0.17612
     306 -> 314        0.63326

 The electronic state is 1-A.
 Alpha  occ. eigenvalues --  -46.95760 -46.94336 -19.29354 -19.29169 -19.24604
 Alpha  occ. eigenvalues --  -19.24373 -19.24358 -19.24296 -19.23432 -19.23204
 Alpha  occ. eigenvalues --  -14.47282 -14.46366 -14.46243 -14.44853 -14.44717
 Alpha  occ. eigenvalues --  -14.44394 -14.44348 -14.43911 -10.42904 -10.42302
 Alpha  occ. eigenvalues --  -10.39912 -10.39514 -10.39106 -10.38301 -10.35880
 Alpha  occ. eigenvalues --  -10.35704 -10.35348 -10.35339 -10.35273 -10.35075
 Alpha  occ. eigenvalues --  -10.34913 -10.34867 -10.34834 -10.34718 -10.34669
 Alpha  occ. eigenvalues --  -10.34055 -10.34006 -10.33970 -10.33810 -10.33564
 Alpha  occ. eigenvalues --  -10.33335 -10.32939 -10.32828 -10.32811 -10.32785
 Alpha  occ. eigenvalues --  -10.32394 -10.32248 -10.32222 -10.32202 -10.32114
 Alpha  occ. eigenvalues --  -10.32055 -10.32055 -10.31997 -10.31954 -10.31879
 Alpha  occ. eigenvalues --  -10.31867 -10.31837 -10.31782 -10.31665 -10.31519
 Alpha  occ. eigenvalues --  -10.31503 -10.31295 -10.31279 -10.31279 -10.30835
 Alpha  occ. eigenvalues --  -10.30804 -10.30780 -10.30541 -10.30461 -10.30373
 Alpha  occ. eigenvalues --  -10.30283 -10.30277 -10.30255 -10.30148 -10.29998
 Alpha  occ. eigenvalues --  -10.29883 -10.29857 -10.29738 -10.29677 -10.29604
 Alpha  occ. eigenvalues --  -10.29578 -10.29527 -10.29377 -10.29326 -10.29061
 Alpha  occ. eigenvalues --  -10.28494  -3.21739  -3.20444  -1.95314  -1.94869
 Alpha  occ. eigenvalues --   -1.94700  -1.94054  -1.93566  -1.93434  -1.16300
 Alpha  occ. eigenvalues --   -1.15564  -1.14408  -1.13418  -1.13023  -1.10799
 Alpha  occ. eigenvalues --   -1.08510  -1.07998  -1.07805  -1.07202  -1.06954
 Alpha  occ. eigenvalues --   -1.06896  -1.05945  -1.05395  -1.04541  -1.02941
 Alpha  occ. eigenvalues --   -0.94030  -0.93169  -0.91217  -0.91126  -0.90839
 Alpha  occ. eigenvalues --   -0.90795  -0.90351  -0.89862  -0.89788  -0.89749
 Alpha  occ. eigenvalues --   -0.89601  -0.89404  -0.88188  -0.87105  -0.86254
 Alpha  occ. eigenvalues --   -0.86238  -0.84924  -0.84880  -0.84141  -0.84057
 Alpha  occ. eigenvalues --   -0.83895  -0.83447  -0.82855  -0.82357  -0.82333
 Alpha  occ. eigenvalues --   -0.81978  -0.80798  -0.80753  -0.79178  -0.79016
 Alpha  occ. eigenvalues --   -0.78766  -0.78583  -0.78110  -0.77792  -0.77365
 Alpha  occ. eigenvalues --   -0.76996  -0.75113  -0.74706  -0.73606  -0.73069
 Alpha  occ. eigenvalues --   -0.71564  -0.71187  -0.70905  -0.70697  -0.69951
 Alpha  occ. eigenvalues --   -0.69948  -0.69311  -0.69260  -0.68035  -0.67718
 Alpha  occ. eigenvalues --   -0.67513  -0.67181  -0.66963  -0.66960  -0.66613
 Alpha  occ. eigenvalues --   -0.66217  -0.63472  -0.63380  -0.63028  -0.62428
 Alpha  occ. eigenvalues --   -0.62050  -0.61600  -0.61329  -0.61039  -0.60539
 Alpha  occ. eigenvalues --   -0.60011  -0.59739  -0.59508  -0.59309  -0.59151
 Alpha  occ. eigenvalues --   -0.58554  -0.58282  -0.57616  -0.57460  -0.57000
 Alpha  occ. eigenvalues --   -0.56563  -0.55952  -0.55897  -0.55812  -0.55379
 Alpha  occ. eigenvalues --   -0.55347  -0.55149  -0.54999  -0.54887  -0.54577
 Alpha  occ. eigenvalues --   -0.54437  -0.54356  -0.54276  -0.54224  -0.53950
 Alpha  occ. eigenvalues --   -0.53910  -0.53754  -0.53485  -0.53202  -0.52898
 Alpha  occ. eigenvalues --   -0.52511  -0.52507  -0.52164  -0.52137  -0.52052
 Alpha  occ. eigenvalues --   -0.51778  -0.51770  -0.51645  -0.51618  -0.51516
 Alpha  occ. eigenvalues --   -0.51489  -0.51206  -0.51151  -0.51005  -0.50737
 Alpha  occ. eigenvalues --   -0.50630  -0.50578  -0.50302  -0.50216  -0.50055
 Alpha  occ. eigenvalues --   -0.49924  -0.49676  -0.49598  -0.49447  -0.49420
 Alpha  occ. eigenvalues --   -0.49331  -0.49200  -0.49066  -0.48841  -0.48613
 Alpha  occ. eigenvalues --   -0.48355  -0.48124  -0.47750  -0.47691  -0.47436
 Alpha  occ. eigenvalues --   -0.47284  -0.47035  -0.46936  -0.46858  -0.46712
 Alpha  occ. eigenvalues --   -0.46654  -0.46503  -0.46498  -0.46409  -0.46226
 Alpha  occ. eigenvalues --   -0.46081  -0.45920  -0.45813  -0.45405  -0.45281
 Alpha  occ. eigenvalues --   -0.45254  -0.44946  -0.44887  -0.44818  -0.44710
 Alpha  occ. eigenvalues --   -0.44642  -0.44567  -0.44504  -0.44139  -0.43925
 Alpha  occ. eigenvalues --   -0.43758  -0.43755  -0.43457  -0.43184  -0.43183
 Alpha  occ. eigenvalues --   -0.42891  -0.42686  -0.42532  -0.42249  -0.42175
 Alpha  occ. eigenvalues --   -0.42072  -0.41776  -0.41766  -0.41742  -0.41325
 Alpha  occ. eigenvalues --   -0.40546  -0.40236  -0.39806  -0.39546  -0.39246
 Alpha  occ. eigenvalues --   -0.39078  -0.38965  -0.38450  -0.38149  -0.38104
 Alpha  occ. eigenvalues --   -0.37770  -0.37698  -0.36455  -0.35911  -0.35549
 Alpha  occ. eigenvalues --   -0.35538  -0.35019  -0.34740  -0.33956  -0.33850
 Alpha  occ. eigenvalues --   -0.33601  -0.33260  -0.33161  -0.32749  -0.32743
 Alpha  occ. eigenvalues --   -0.31774  -0.31746  -0.31593  -0.26142  -0.25445
 Alpha  occ. eigenvalues --   -0.23445  -0.23386
 Alpha virt. eigenvalues --   -0.07416  -0.07404   0.00254   0.01594   0.02242
 Alpha virt. eigenvalues --    0.03061   0.04490   0.04731   0.05508   0.06754
 Alpha virt. eigenvalues --    0.06842   0.06899   0.07746   0.07889   0.08590

 Mulliken charges:
               1
     1  Mg   0.981477
     2  C   -0.071070
     3  C   -0.108097
     4  C   -0.077373
     5  C   -0.077021
     6  N   -0.334149
     7  C    0.003382
     8  C   -0.040163
     9  C   -0.140173
    10  C    0.072965
    11  C    0.018683
    12  C    0.018234
    13  C   -0.105767
    14  H    0.036499
    15  N   -0.531926
    16  C    0.234464
    17  C   -0.151168
    18  C   -0.045562
    19  C    0.152482
    20  C    0.052064
    21  C    0.017218
    22  O   -0.224858
    23  C   -0.005347
    24  N   -0.321240
    25  C    0.056040
    26  C   -0.094119
    27  C   -0.043693
    28  C    0.027527
    29  C    0.014755
    30  C   -0.005386
    31  C   -0.042802
    32  N   -0.449260
    33  C    0.125071
    34  C   -0.138793
    35  C   -0.084675
    36  C    0.187615
    37  C    0.059596
    38  C    0.113511
    39  O   -0.211554
    40  C   -0.083801
    41  C    0.288668
    42  O   -0.260477
    43  O   -0.404773
    44  C    0.141044
    45  H    0.004101
    46  H    0.032124
    47  H    0.000467
    48  H    0.043800
    49  H    0.038823
    50  H    0.033325
    51  H    0.049261
    52  H    0.023048
    53  H    0.024365
    54  H    0.025387
    55  H    0.048815
    56  H    0.067403
    57  H    0.063460
    58  H    0.049918
    59  H    0.030809
    60  H    0.053328
    61  H    0.056015
    62  H    0.038226
    63  H    0.048293
    64  H    0.027366
    65  H    0.030050
    66  H    0.045668
    67  H    0.051180
    68  H    0.026167
    69  H    0.026668
    70  H    0.037044
    71  H    0.054578
    72  H    0.027397
    73  H    0.054158
    74  H    0.037488
    75  H    0.064175
    76  H    0.072275
    77  H    0.058595
    78  H    0.054400
    79  H    0.053774
    80  Mg   0.973911
    81  C   -0.021183
    82  C   -0.054231
    83  C   -0.053760
    84  C   -0.110112
    85  N   -0.302089
    86  C   -0.006964
    87  C   -0.073275
    88  C   -0.132809
    89  C    0.070356
    90  C    0.036907
    91  C    0.034125
    92  C   -0.096350
    93  H    0.049899
    94  N   -0.460696
    95  C    0.091514
    96  C   -0.147520
    97  C   -0.078547
    98  C    0.134334
    99  C    0.063344
   100  C    0.051899
   101  O   -0.201382
   102  C   -0.020628
   103  N   -0.271210
   104  C    0.014819
   105  C   -0.095347
   106  C   -0.044810
   107  C    0.058364
   108  C    0.023266
   109  C   -0.029533
   110  C   -0.028121
   111  N   -0.485385
   112  C    0.125823
   113  C   -0.223647
   114  C   -0.055347
   115  C    0.152341
   116  C    0.077578
   117  C    0.163257
   118  O   -0.174801
   119  C   -0.083059
   120  C    0.267081
   121  O   -0.273003
   122  O   -0.390013
   123  C    0.157566
   124  H   -0.025728
   125  H    0.021062
   126  H   -0.000205
   127  H    0.020572
   128  H    0.035024
   129  H    0.041917
   130  H    0.027847
   131  H    0.045263
   132  H    0.025026
   133  H    0.073858
   134  H    0.043901
   135  H    0.037047
   136  H    0.048508
   137  H    0.053688
   138  H    0.042009
   139  H    0.049857
   140  H    0.042916
   141  H    0.056135
   142  H    0.045898
   143  H    0.031639
   144  H    0.049280
   145  H    0.037530
   146  H    0.032026
   147  H    0.020914
   148  H    0.014757
   149  H    0.040161
   150  H    0.034879
   151  H    0.038240
   152  H    0.028680
   153  H    0.052689
   154  H    0.061926
   155  H    0.080194
   156  H    0.043683
   157  H    0.073824
   158  H    0.042425
 Sum of Mulliken charges =  -0.00000

 Dipole moment (field-independent basis, Debye):
    X=             -4.0478    Y=              0.1201    Z=              7.1513  Tot=              8.2183
 Quadrupole moment (field-independent basis, Debye-Ang):
   XX=           -185.9662   YY=           -482.1777   ZZ=           -490.2312
   XY=            -49.7765   XZ=             75.4982   YZ=             48.4198

 Normal termination of Gaussian 16 at Mon Sep 20 10:17:50 2021.
