 Gaussian 16, Revision A.03,
 Gaussian 16:  ES64L-G16RevA.03 25-Dec-2016

 --------------------------------
 #p wB97XD/Def2SVP td=(nstates=5)
 --------------------------------

 --------------------------------
 TDDFT excited states in gaussian
 --------------------------------
 Symbolic Z-matrix:
 Charge =  0 Multiplicity = 1

                         Standard orientation:
 ---------------------------------------------------------------------
 Center     Atomic      Atomic             Coordinates (Angstroms)
 Number     Number       Type             X           Y           Z
 ---------------------------------------------------------------------
      1         12           0       26.140064   -0.268486   -0.659623
      2          6           0       24.748107    1.849545    1.867948
      3          6           0       27.159625   -2.343060    1.850298
      4          6           0       27.765152   -1.915482   -2.828289
      5          6           0       26.019409    2.469608   -2.812283
      6          7           0       25.920240   -0.153949    1.540196
      7          6           0       25.313289    0.679292    2.379535
      8          6           0       25.267923    0.154811    3.845904
      9          6           0       26.516000   -0.836130    3.797540
     10          6           0       26.512037   -1.159515    2.313852
     11          6           0       27.839965   -0.166122    4.150680
     12          6           0       23.939746   -0.611704    4.162340
     13          6           0       23.672621   -0.870258    5.647987
     14          1           0       22.300960   -0.823332    6.131402
     15          7           0       26.866234   -2.104592   -0.594493
     16          6           0       27.209912   -2.800641    0.515772
     17          6           0       27.696600   -4.113272    0.039520
     18          6           0       27.786098   -4.053737   -1.445923
     19          6           0       27.497375   -2.662501   -1.683578
     20          6           0       27.974987   -5.268077    0.952030
     21          6           0       28.094777   -5.084424   -2.485410
     22          8           0       28.348200   -4.771887   -3.698947
     23          6           0       28.180900   -6.480756   -2.020780
     24          7           0       27.006029    0.255662   -2.485276
     25          6           0       27.600589   -0.661896   -3.255710
     26          6           0       27.891142   -0.120573   -4.624098
     27          6           0       27.148168    1.290333   -4.708287
     28          6           0       26.596993    1.353440   -3.262433
     29          6           0       29.375298    0.062762   -4.970049
     30          6           0       26.160158    1.495743   -5.883898
     31          6           0       24.963763    0.586488   -5.713626
     32          7           0       25.343380    1.749120   -0.584752
     33          6           0       25.426120    2.726030   -1.587486
     34          6           0       24.839878    3.961576   -1.036293
     35          6           0       24.469477    3.619987    0.262924
     36          6           0       24.827034    2.264962    0.516604
     37          6           0       24.759403    5.215616   -1.703632
     38          6           0       23.877164    4.091685    1.504102
     39          8           0       23.305764    5.125263    1.854403
     40          6           0       24.144263    3.000851    2.633069
     41          6           0       22.844173    2.762724    3.351659
     42          8           0       21.880097    2.225823    2.768853
     43          8           0       23.014891    2.983037    4.664236
     44          6           0       21.769819    2.735820    5.439371
     45          1           0       27.730532   -2.944877    2.560102
     46          1           0       28.226035   -2.478714   -3.642412
     47          1           0       25.870851    3.339949   -3.454070
     48          1           0       25.428319    0.918663    4.606973
     49          1           0       26.341734   -1.738927    4.382613
     50          1           0       27.725821    0.913070    4.251858
     51          1           0       28.514324   -0.402074    3.327237
     52          1           0       28.279971   -0.621572    5.038226
     53          1           0       24.024277   -1.638849    3.807533
     54          1           0       23.083408   -0.095906    3.726493
     55          1           0       24.321634   -0.264440    6.280977
     56          1           0       23.957954   -1.898064    5.872489
     57          1           0       27.978417   -4.960927    1.997110
     58          1           0       28.999229   -5.586571    0.759158
     59          1           0       27.292592   -6.100637    0.780238
     60          1           0       28.955922   -6.559083   -1.258051
     61          1           0       28.320291   -7.087174   -2.915027
     62          1           0       27.243075   -6.749249   -1.533600
     63          1           0       27.496410   -0.778817   -5.396968
     64          1           0       27.851478    2.117858   -4.804359
     65          1           0       29.685994   -0.476128   -5.865465
     66          1           0       29.963248   -0.243775   -4.105387
     67          1           0       29.691844    1.098391   -5.091238
     68          1           0       26.633742    1.229253   -6.828170
     69          1           0       25.801643    2.521516   -5.970548
     70          1           0       25.312648   -0.356142   -6.133816
     71          1           0       24.110696    0.971463   -6.273342
     72          1           0       24.743125    0.411917   -4.660379
     73          1           0       23.761731    5.605211   -1.501554
     74          1           0       24.932718    5.106419   -2.773978
     75          1           0       25.559813    5.761653   -1.204589
     76          1           0       24.907187    3.412887    3.292838
     77          1           0       21.551398    3.647700    5.995251
     78          1           0       21.936750    1.822599    6.010831
     79          1           0       20.853944    2.624962    4.857803
     80         12           0      -26.495379    0.350030   -0.070323
     81          6           0      -23.843157   -1.658012    1.052071
     82          6           0      -24.526227    3.072794    0.431001
     83          6           0      -28.877241    2.040038   -1.542395
     84          6           0      -27.940876   -2.726078   -1.259653
     85          7           0      -24.476686    0.638093    0.713435
     86          6           0      -23.565646   -0.307434    1.091348
     87          6           0      -22.197497    0.375502    1.236649
     88          6           0      -22.597213    1.807874    1.573144
     89          6           0      -23.911439    1.860441    0.770657
     90          6           0      -22.839769    2.025873    3.084528
     91          6           0      -21.364757    0.283080   -0.095220
     92          6           0      -20.021995   -0.600198   -0.097156
     93          1           0      -19.922586   -1.806725   -1.046092
     94          7           0      -26.656596    2.279314   -0.550601
     95          6           0      -25.746276    3.263130   -0.239575
     96          6           0      -26.321962    4.526303   -0.580776
     97          6           0      -27.658286    4.321053   -1.059201
     98          6           0      -27.803838    2.836698   -1.083309
     99          6           0      -25.574457    5.891061   -0.394825
    100          6           0      -28.669113    5.468167   -1.423823
    101          8           0      -28.379305    6.606961   -1.220708
    102          6           0      -30.044112    5.101680   -1.740641
    103          7           0      -28.013436   -0.248684   -1.513286
    104          6           0      -29.028828    0.642132   -1.610310
    105          6           0      -30.375189   -0.010671   -1.875052
    106          6           0      -30.008763   -1.460922   -2.150958
    107          6           0      -28.536996   -1.504421   -1.611095
    108          6           0      -31.374027    0.130802   -0.667503
    109          6           0      -30.128733   -2.036791   -3.639963
    110          6           0      -31.209468   -3.007076   -4.035100
    111          7           0      -26.143751   -1.746698    0.056165
    112          6           0      -26.802530   -2.867774   -0.464851
    113          6           0      -26.084847   -4.090696   -0.176732
    114          6           0      -24.937830   -3.654905    0.439882
    115          6           0      -24.967622   -2.226139    0.556248
    116          6           0      -26.508936   -5.444550   -0.569343
    117          6           0      -23.687366   -4.103368    1.033109
    118          8           0      -23.279090   -5.253475    1.236338
    119          6           0      -22.990465   -2.859758    1.543577
    120          6           0      -22.860487   -3.002830    3.056085
    121          8           0      -23.854629   -3.150639    3.763203
    122          8           0      -21.516737   -3.073419    3.455212
    123          6           0      -21.320955   -3.243526    4.870149
    124          1           0      -23.929473    3.929705    0.749458
    125          1           0      -29.766957    2.646056   -1.720229
    126          1           0      -28.440743   -3.660051   -1.525533
    127          1           0      -21.633978   -0.206024    1.966718
    128          1           0      -21.815279    2.471168    1.205491
    129          1           0      -22.224413    2.914601    3.220100
    130          1           0      -22.435882    1.131497    3.559771
    131          1           0      -23.871315    2.181401    3.400708
    132          1           0      -21.038083    1.293454   -0.340942
    133          1           0      -22.048000   -0.011940   -0.891220
    134          1           0      -19.967640   -1.038572    0.899613
    135          1           0      -19.102427   -0.029194   -0.219736
    136          1           0      -25.549714    6.579941   -1.238613
    137          1           0      -24.547060    5.628546   -0.140459
    138          1           0      -25.964470    6.473748    0.439913
    139          1           0      -30.145338    4.422997   -2.587822
    140          1           0      -30.602130    6.014005   -1.951139
    141          1           0      -30.562295    4.775971   -0.839741
    142          1           0      -30.911066    0.454716   -2.702982
    143          1           0      -30.575869   -2.124360   -1.497990
    144          1           0      -32.091566    0.941350   -0.793831
    145          1           0      -30.813768    0.158329    0.267072
    146          1           0      -31.959540   -0.788956   -0.630312
    147          1           0      -29.215850   -2.358173   -4.140262
    148          1           0      -30.375658   -1.078345   -4.097368
    149          1           0      -31.927126   -2.593825   -4.743120
    150          1           0      -31.769813   -3.308907   -3.149890
    151          1           0      -30.669150   -3.851319   -4.462750
    152          1           0      -27.151246   -5.349543   -1.445272
    153          1           0      -27.122174   -5.807548    0.255932
    154          1           0      -25.655130   -6.108012   -0.699112
    155          1           0      -22.008467   -2.934819    1.078480
    156          1           0      -21.466258   -2.338564    5.460696
    157          1           0      -20.317550   -3.603902    5.095131
    158          1           0      -21.965754   -3.994323    5.326115
 ---------------------------------------------------------------------

 SCF Done:  E(RwB97XD) =  -4070.61731867     A.U. after   19 cycles

 Excitation energies and oscillator strengths:

 Excited State   1:      Singlet-A      1.6216 eV  764.58 nm  f=0.3830  <S**2>=0.000
     310 -> 316        0.18180
     311 -> 313        0.68329
     310 <- 316        0.11454
 This state for optimization and/or second-order correction.
 Total Energy, E(TD-HF/TD-DFT) =  -4070.55772616
 Copying the excited state density for this state as the 1-particle RhoCI density.

 Excited State   2:      Singlet-A      1.6668 eV  743.87 nm  f=0.3633  <S**2>=0.000
     309 -> 315        0.19753
     312 -> 314        0.68093
     309 <- 315        0.12065

 Excited State   3:      Singlet-A      2.1385 eV  579.76 nm  f=0.0955  <S**2>=0.000
     310 -> 313        0.63836
     311 -> 316       -0.28191

 Excited State   4:      Singlet-A      2.2261 eV  556.95 nm  f=0.0510  <S**2>=0.000
     309 -> 314        0.60367
     312 -> 315       -0.35676

 Excited State   5:      Singlet-A      3.3015 eV  375.54 nm  f=0.0077  <S**2>=0.000
     307 -> 313       -0.44213
     308 -> 313        0.48831
     311 -> 316       -0.17033

 The electronic state is 1-A.
 Alpha  occ. eigenvalues --  -46.95021 -46.94111 -19.31479 -19.31280 -19.25547
 Alpha  occ. eigenvalues --  -19.24059 -19.23972 -19.23866 -19.23846 -19.23204
 Alpha  occ. eigenvalues --  -14.47021 -14.46720 -14.46672 -14.46030 -14.44002
 Alpha  occ. eigenvalues --  -14.43983 -14.43965 -14.43142 -10.44144 -10.42917
 Alpha  occ. eigenvalues --  -10.39412 -10.38970 -10.38604 -10.38392 -10.35433
 Alpha  occ. eigenvalues --  -10.35412 -10.35248 -10.35164 -10.35132 -10.34888
 Alpha  occ. eigenvalues --  -10.34864 -10.34686 -10.34591 -10.34562 -10.34525
 Alpha  occ. eigenvalues --  -10.34176 -10.33876 -10.33827 -10.33809 -10.33536
 Alpha  occ. eigenvalues --  -10.33272 -10.33226 -10.32796 -10.32618 -10.32483
 Alpha  occ. eigenvalues --  -10.32447 -10.32313 -10.32190 -10.32138 -10.32127
 Alpha  occ. eigenvalues --  -10.31937 -10.31936 -10.31934 -10.31910 -10.31849
 Alpha  occ. eigenvalues --  -10.31771 -10.31691 -10.31648 -10.31530 -10.31492
 Alpha  occ. eigenvalues --  -10.31454 -10.31408 -10.31205 -10.31170 -10.31017
 Alpha  occ. eigenvalues --  -10.30932 -10.30927 -10.30897 -10.30724 -10.30615
 Alpha  occ. eigenvalues --  -10.30356 -10.30258 -10.30116 -10.30077 -10.30063
 Alpha  occ. eigenvalues --  -10.30052 -10.29973 -10.29851 -10.29659 -10.29491
 Alpha  occ. eigenvalues --  -10.29415 -10.29256 -10.29194 -10.28848 -10.28786
 Alpha  occ. eigenvalues --  -10.28457  -3.21068  -3.20269  -1.94633  -1.94206
 Alpha  occ. eigenvalues --   -1.94035  -1.93846  -1.93413  -1.93250  -1.18802
 Alpha  occ. eigenvalues --   -1.18162  -1.14095  -1.11348  -1.10832  -1.10457
 Alpha  occ. eigenvalues --   -1.09413  -1.08815  -1.06774  -1.06548  -1.06271
 Alpha  occ. eigenvalues --   -1.05750  -1.05238  -1.04904  -1.04417  -1.04103
 Alpha  occ. eigenvalues --   -0.95049  -0.93907  -0.91391  -0.91028  -0.91005
 Alpha  occ. eigenvalues --   -0.90836  -0.90448  -0.90150  -0.89769  -0.89570
 Alpha  occ. eigenvalues --   -0.89565  -0.89209  -0.89043  -0.86927  -0.86856
 Alpha  occ. eigenvalues --   -0.86495  -0.86136  -0.85794  -0.84876  -0.84540
 Alpha  occ. eigenvalues --   -0.84456  -0.84436  -0.83500  -0.83000  -0.82819
 Alpha  occ. eigenvalues --   -0.82533  -0.80750  -0.79941  -0.79168  -0.79120
 Alpha  occ. eigenvalues --   -0.78827  -0.78332  -0.78211  -0.77834  -0.77035
 Alpha  occ. eigenvalues --   -0.76791  -0.74870  -0.74731  -0.74103  -0.73608
 Alpha  occ. eigenvalues --   -0.71776  -0.70946  -0.70810  -0.70590  -0.70095
 Alpha  occ. eigenvalues --   -0.69625  -0.69152  -0.68747  -0.67784  -0.67555
 Alpha  occ. eigenvalues --   -0.67198  -0.66857  -0.66817  -0.66572  -0.66466
 Alpha  occ. eigenvalues --   -0.66203  -0.64719  -0.64258  -0.62415  -0.62201
 Alpha  occ. eigenvalues --   -0.62044  -0.61736  -0.61098  -0.60950  -0.60872
 Alpha  occ. eigenvalues --   -0.60477  -0.60471  -0.59700  -0.59525  -0.59247
 Alpha  occ. eigenvalues --   -0.58272  -0.58211  -0.58057  -0.57836  -0.57473
 Alpha  occ. eigenvalues --   -0.57243  -0.57240  -0.56883  -0.56445  -0.55913
 Alpha  occ. eigenvalues --   -0.55792  -0.55472  -0.55221  -0.55141  -0.55096
 Alpha  occ. eigenvalues --   -0.54932  -0.54853  -0.54709  -0.54658  -0.54609
 Alpha  occ. eigenvalues --   -0.54300  -0.54119  -0.53813  -0.53721  -0.53508
 Alpha  occ. eigenvalues --   -0.53108  -0.52947  -0.52806  -0.52513  -0.52377
 Alpha  occ. eigenvalues --   -0.52084  -0.51920  -0.51857  -0.51728  -0.51573
 Alpha  occ. eigenvalues --   -0.51427  -0.51247  -0.51149  -0.51034  -0.50995
 Alpha  occ. eigenvalues --   -0.50603  -0.50492  -0.50400  -0.50361  -0.50255
 Alpha  occ. eigenvalues --   -0.50010  -0.49598  -0.49431  -0.49220  -0.49025
 Alpha  occ. eigenvalues --   -0.48674  -0.48511  -0.48454  -0.48302  -0.48291
 Alpha  occ. eigenvalues --   -0.48202  -0.48081  -0.48032  -0.47889  -0.47714
 Alpha  occ. eigenvalues --   -0.47366  -0.47276  -0.47083  -0.46481  -0.46392
 Alpha  occ. eigenvalues --   -0.46379  -0.46236  -0.46089  -0.46030  -0.45974
 Alpha  occ. eigenvalues --   -0.45918  -0.45788  -0.45522  -0.45357  -0.45303
 Alpha  occ. eigenvalues --   -0.45257  -0.45024  -0.44941  -0.44637  -0.44540
 Alpha  occ. eigenvalues --   -0.44530  -0.44373  -0.44082  -0.43894  -0.43880
 Alpha  occ. eigenvalues --   -0.43689  -0.43643  -0.43518  -0.43406  -0.43008
 Alpha  occ. eigenvalues --   -0.42993  -0.42840  -0.42752  -0.42719  -0.42596
 Alpha  occ. eigenvalues --   -0.42431  -0.42283  -0.42101  -0.41946  -0.41362
 Alpha  occ. eigenvalues --   -0.40889  -0.40339  -0.39933  -0.39668  -0.39462
 Alpha  occ. eigenvalues --   -0.39336  -0.39169  -0.39162  -0.38690  -0.38614
 Alpha  occ. eigenvalues --   -0.38579  -0.38167  -0.36824  -0.36710  -0.36264
 Alpha  occ. eigenvalues --   -0.35760  -0.35731  -0.35325  -0.33544  -0.33336
 Alpha  occ. eigenvalues --   -0.33189  -0.33166  -0.32940  -0.32317  -0.31983
 Alpha  occ. eigenvalues --   -0.31811  -0.31598  -0.31461  -0.26314  -0.25985
 Alpha  occ. eigenvalues --   -0.22904  -0.22795
 Alpha virt. eigenvalues --   -0.07086  -0.06649  -0.00324   0.00199   0.02003
 Alpha virt. eigenvalues --    0.02598   0.04330   0.04611   0.05199   0.06284
 Alpha virt. eigenvalues --    0.06372   0.07121   0.07276   0.07485   0.08509

 Mulliken charges:
               1
     1  Mg   0.978498
     2  C   -0.019950
     3  C   -0.101307
     4  C   -0.061206
     5  C   -0.071036
     6  N   -0.323159
     7  C   -0.008644
     8  C   -0.058232
     9  C   -0.138151
    10  C    0.061913
    11  C    0.058281
    12  C    0.014053
    13  C   -0.126913
    14  H    0.052379
    15  N   -0.518357
    16  C    0.183450
    17  C   -0.196104
    18  C   -0.036960
    19  C    0.166614
    20  C    0.061008
    21  C    0.056752
    22  O   -0.280030
    23  C    0.001558
    24  N   -0.410122
    25  C    0.066056
    26  C   -0.084869
    27  C   -0.063955
    28  C    0.089860
    29  C    0.031883
    30  C   -0.016698
    31  C   -0.058146
    32  N   -0.398839
    33  C    0.097223
    34  C   -0.187981
    35  C   -0.040095
    36  C    0.126412
    37  C    0.081479
    38  C    0.128872
    39  O   -0.224752
    40  C   -0.076957
    41  C    0.275940
    42  O   -0.284591
    43  O   -0.335657
    44  C    0.120611
    45  H    0.007889
    46  H    0.010678
    47  H   -0.017344
    48  H    0.026015
    49  H    0.022616
    50  H    0.047110
    51  H    0.037795
    52  H    0.040085
    53  H    0.035391
    54  H    0.067699
    55  H    0.038940
    56  H    0.040612
    57  H    0.029633
    58  H    0.048911
    59  H    0.062083
    60  H    0.057843
    61  H    0.061857
    62  H    0.053074
    63  H    0.042931
    64  H    0.035664
    65  H    0.045319
    66  H    0.034320
    67  H    0.025707
    68  H    0.032618
    69  H    0.029411
    70  H    0.029215
    71  H    0.042208
    72  H    0.049656
    73  H    0.070897
    74  H    0.031398
    75  H    0.069400
    76  H    0.065871
    77  H    0.061271
    78  H    0.062815
    79  H    0.070286
    80  Mg   0.957117
    81  C   -0.054771
    82  C   -0.098096
    83  C   -0.052919
    84  C   -0.094221
    85  N   -0.331923
    86  C   -0.023582
    87  C   -0.115078
    88  C   -0.115548
    89  C    0.039094
    90  C    0.060814
    91  C    0.025437
    92  C   -0.134581
    93  H    0.044833
    94  N   -0.518723
    95  C    0.210532
    96  C   -0.172918
    97  C   -0.106227
    98  C    0.151559
    99  C    0.083459
   100  C    0.062067
   101  O   -0.196875
   102  C   -0.021382
   103  N   -0.326816
   104  C    0.062266
   105  C   -0.102079
   106  C   -0.070035
   107  C    0.069770
   108  C    0.021113
   109  C   -0.022415
   110  C   -0.034764
   111  N   -0.429036
   112  C    0.127736
   113  C   -0.206699
   114  C   -0.016839
   115  C    0.192687
   116  C    0.097441
   117  C    0.099195
   118  O   -0.220869
   119  C   -0.022108
   120  C    0.288784
   121  O   -0.244385
   122  O   -0.362521
   123  C    0.139831
   124  H    0.001625
   125  H   -0.029253
   126  H   -0.001612
   127  H    0.017288
   128  H    0.023696
   129  H    0.042932
   130  H    0.038777
   131  H    0.055123
   132  H    0.032716
   133  H    0.055655
   134  H    0.047932
   135  H    0.058795
   136  H    0.056032
   137  H    0.011839
   138  H    0.051532
   139  H    0.070885
   140  H    0.042005
   141  H    0.069537
   142  H    0.033433
   143  H    0.024310
   144  H    0.046119
   145  H    0.041571
   146  H    0.029638
   147  H    0.043979
   148  H    0.016344
   149  H    0.044031
   150  H    0.026329
   151  H    0.041569
   152  H    0.036657
   153  H    0.058296
   154  H    0.066040
   155  H    0.061069
   156  H    0.042326
   157  H    0.050446
   158  H    0.054016
 Sum of Mulliken charges =  -0.00000

 Dipole moment (field-independent basis, Debye):
    X=              0.7719    Y=             -2.3081    Z=              2.0585  Tot=              3.1876
 Quadrupole moment (field-independent basis, Debye-Ang):
   XX=           -227.7085   YY=           -553.5508   ZZ=           -476.1157
   XY=            -69.3150   XZ=             78.1526   YZ=            -13.2091

 Normal termination of Gaussian 16 at Sun Sep 19 11:26:38 2021.
