 Gaussian 16, Revision A.03,
 Gaussian 16:  ES64L-G16RevA.03 25-Dec-2016

 --------------------------------
 #p wB97XD/Def2SVP td=(nstates=5)
 --------------------------------

 --------------------------------
 TDDFT excited states in gaussian
 --------------------------------
 Symbolic Z-matrix:
 Charge =  0 Multiplicity = 1

                         Standard orientation:
 ---------------------------------------------------------------------
 Center     Atomic      Atomic             Coordinates (Angstroms)
 Number     Number       Type             X           Y           Z
 ---------------------------------------------------------------------
      1         12           0       23.679893   -0.738099    0.036038
      2          6           0       21.617867    1.874039    1.112014
      3          6           0       26.185470    1.639066   -0.294364
      4          6           0       25.473340   -3.059661   -1.365807
      5          6           0       20.885247   -2.903438    0.248024
      6          7           0       23.765764    1.620222   -0.006460
      7          6           0       22.862970    2.386329    0.614396
      8          6           0       23.411797    3.772350    0.680624
      9          6           0       24.698319    3.737761   -0.180325
     10          6           0       24.946310    2.242568   -0.153770
     11          6           0       24.685880    4.323979   -1.593179
     12          6           0       23.707405    4.213368    2.149290
     13          6           0       23.177980    5.597344    2.646180
     14          1           0       23.018861    6.763599    1.621518
     15          7           0       25.663183   -0.748480   -0.604438
     16          6           0       26.551691    0.309398   -0.464401
     17          6           0       27.824715   -0.170753   -0.893871
     18          6           0       27.632774   -1.536369   -1.349717
     19          6           0       26.233820   -1.864058   -1.118557
     20          6           0       29.105544    0.688433   -0.973725
     21          6           0       28.637823   -2.510507   -2.029021
     22          8           0       28.370635   -3.614157   -2.385365
     23          6           0       30.059920   -2.004505   -2.170410
     24          7           0       23.212168   -2.684623   -0.454879
     25          6           0       24.129147   -3.439568   -1.100316
     26          6           0       23.643046   -4.878093   -1.428837
     27          6           0       22.256206   -4.880094   -0.653214
     28          6           0       22.084916   -3.427743   -0.224055
     29          6           0       23.561906   -5.104291   -3.047134
     30          6           0       22.163764   -5.964203    0.466146
     31          6           0       22.434689   -5.532873    1.896357
     32          7           0       21.631766   -0.630659    0.602666
     33          6           0       20.667842   -1.595486    0.718925
     34          6           0       19.420517   -0.948072    1.257773
     35          6           0       19.772389    0.410947    1.420456
     36          6           0       21.122910    0.592139    0.972937
     37          6           0       18.053224   -1.559298    1.401676
     38          6           0       19.287231    1.722250    1.843739
     39          8           0       18.163114    2.018163    2.258914
     40          6           0       20.503542    2.642722    1.806681
     41          6           0       20.069673    3.858842    1.039558
     42          8           0       19.969478    3.925269   -0.171870
     43          8           0       19.652290    4.726716    1.946540
     44          6           0       18.801602    5.822680    1.509819
     45          1           0       26.930266    2.399556   -0.536130
     46          1           0       26.107364   -3.896832   -1.664115
     47          1           0       20.028173   -3.575914    0.327258
     48          1           0       22.671082    4.458719    0.271562
     49          1           0       25.432190    4.340847    0.354456
     50          1           0       23.754881    4.790233   -1.916078
     51          1           0       24.940321    3.554491   -2.322583
     52          1           0       25.470586    5.079982   -1.610704
     53          1           0       24.757502    4.125042    2.427068
     54          1           0       23.188127    3.412193    2.675006
     55          1           0       23.914682    5.894117    3.393770
     56          1           0       22.212766    5.445986    3.128780
     57          1           0       29.583395    0.659439   -1.953018
     58          1           0       29.899696    0.308130   -0.331049
     59          1           0       28.966752    1.733566   -0.693933
     60          1           0       30.467930   -1.622428   -1.234422
     61          1           0       30.074176   -1.263658   -2.969909
     62          1           0       30.696604   -2.779213   -2.597642
     63          1           0       24.307309   -5.645100   -1.031024
     64          1           0       21.412595   -5.150360   -1.288177
     65          1           0       22.493371   -5.128220   -3.261470
     66          1           0       23.901973   -6.089922   -3.365691
     67          1           0       23.960240   -4.275190   -3.633051
     68          1           0       22.989161   -6.639387    0.239994
     69          1           0       21.235057   -6.532718    0.421681
     70          1           0       23.311548   -4.889443    1.814496
     71          1           0       22.633866   -6.493170    2.371448
     72          1           0       21.719558   -4.915135    2.438970
     73          1           0       17.888326   -2.567854    1.022443
     74          1           0       17.325673   -0.932526    0.885800
     75          1           0       17.815289   -1.470216    2.461185
     76          1           0       20.779664    3.074323    2.768953
     77          1           0       18.444188    5.860714    0.481283
     78          1           0       19.461509    6.685412    1.606050
     79          1           0       18.159817    6.106152    2.344091
     80         12           0      -23.406990   -0.653249    0.272145
     81          6           0      -22.719215    2.153531   -1.713735
     82          6           0      -23.149504    1.370351    3.045762
     83          6           0      -24.025277   -3.315854    2.121451
     84          6           0      -23.474692   -2.588746   -2.659061
     85          7           0      -23.066096    1.517355    0.554453
     86          6           0      -22.781196    2.512379   -0.380840
     87          6           0      -22.886747    3.973080    0.209813
     88          6           0      -22.867393    3.627144    1.686180
     89          6           0      -23.048345    2.056599    1.792906
     90          6           0      -21.448818    3.978671    2.330643
     91          6           0      -24.336117    4.464215   -0.233058
     92          6           0      -24.469918    5.969542   -0.733244
     93          1           0      -23.491758    6.840772    0.012563
     94          7           0      -23.414765   -0.940129    2.252949
     95          6           0      -23.289442   -0.037124    3.221444
     96          6           0      -23.437198   -0.608130    4.533998
     97          6           0      -23.871179   -1.929668    4.309547
     98          6           0      -23.727903   -2.144185    2.820317
     99          6           0      -23.254018    0.103433    5.824279
    100          6           0      -24.459698   -2.946938    5.265306
    101          8           0      -25.029947   -3.975324    4.883675
    102          6           0      -24.265438   -2.777850    6.774698
    103          7           0      -23.660005   -2.699212   -0.230020
    104          6           0      -23.981508   -3.565597    0.788050
    105          6           0      -24.352291   -4.914245    0.174831
    106          6           0      -24.295466   -4.664306   -1.410606
    107          6           0      -23.844387   -3.228980   -1.479204
    108          6           0      -23.434416   -6.040019    0.769614
    109          6           0      -25.559106   -4.965958   -2.200941
    110          6           0      -25.326965   -5.912030   -3.420461
    111          7           0      -23.128151   -0.302884   -1.759940
    112          6           0      -23.166848   -1.212931   -2.862642
    113          6           0      -22.878713   -0.532805   -4.074620
    114          6           0      -22.701762    0.794569   -3.649184
    115          6           0      -22.815610    0.848518   -2.244488
    116          6           0      -22.820419   -1.029826   -5.483169
    117          6           0      -22.433645    2.128816   -4.081461
    118          8           0      -22.199272    2.609518   -5.165315
    119          6           0      -22.548545    3.059909   -2.841446
    120          6           0      -21.370701    3.964627   -2.807898
    121          8           0      -20.206574    3.670684   -2.551305
    122          8           0      -21.823170    5.197165   -3.057931
    123          6           0      -20.858758    6.275273   -2.995089
    124          1           0      -23.231123    1.913343    3.989526
    125          1           0      -24.214673   -4.159261    2.790196
    126          1           0      -23.547397   -3.138823   -3.599654
    127          1           0      -22.109047    4.538402   -0.302767
    128          1           0      -23.690833    4.122402    2.199646
    129          1           0      -20.745766    4.375101    1.597805
    130          1           0      -21.035104    3.067790    2.762922
    131          1           0      -21.686728    4.701844    3.110798
    132          1           0      -25.078749    4.385420    0.560362
    133          1           0      -24.664818    3.771849   -1.008538
    134          1           0      -25.416070    6.399558   -0.404429
    135          1           0      -24.549017    6.024987   -1.819264
    136          1           0      -24.241752    0.173174    6.281964
    137          1           0      -22.888077    1.117781    5.671480
    138          1           0      -22.578122   -0.408436    6.508657
    139          1           0      -24.457775   -3.801002    7.096784
    140          1           0      -24.931219   -2.042342    7.227752
    141          1           0      -23.253488   -2.584536    7.130125
    142          1           0      -25.356131   -5.274854    0.399074
    143          1           0      -23.492369   -5.274771   -1.823689
    144          1           0      -24.104502   -6.862847    1.018941
    145          1           0      -22.833086   -5.718512    1.620046
    146          1           0      -22.854480   -6.531289   -0.012576
    147          1           0      -26.085089   -4.081889   -2.559940
    148          1           0      -26.147457   -5.587726   -1.524666
    149          1           0      -24.304890   -6.291115   -3.425306
    150          1           0      -25.349168   -5.366010   -4.363360
    151          1           0      -26.018361   -6.754812   -3.405708
    152          1           0      -23.880392   -1.153318   -5.706938
    153          1           0      -22.203891   -1.928338   -5.469478
    154          1           0      -22.434313   -0.281802   -6.174187
    155          1           0      -23.399820    3.695301   -3.089416
    156          1           0      -20.011409    6.054944   -3.644964
    157          1           0      -20.384202    6.454582   -2.029747
    158          1           0      -21.379158    7.165967   -3.347613
 ---------------------------------------------------------------------

 SCF Done:  E(RwB97XD) =  -4070.63228811     A.U. after   19 cycles

 Excitation energies and oscillator strengths:

 Excited State   1:      Singlet-A      1.6772 eV  739.25 nm  f=0.3914  <S**2>=0.000
     310 -> 316       -0.19185
     311 -> 314        0.68157
     310 <- 316       -0.11863
 This state for optimization and/or second-order correction.
 Total Energy, E(TD-HF/TD-DFT) =  -4070.57065350
 Copying the excited state density for this state as the 1-particle RhoCI density.

 Excited State   2:      Singlet-A      1.6810 eV  737.56 nm  f=0.3860  <S**2>=0.000
     309 -> 315        0.16570
     312 -> 313        0.68550
     309 <- 315        0.10524

 Excited State   3:      Singlet-A      2.1599 eV  574.03 nm  f=0.0975  <S**2>=0.000
     310 -> 314        0.64012
     311 -> 316        0.28508

 Excited State   4:      Singlet-A      2.2342 eV  554.94 nm  f=0.1201  <S**2>=0.000
     309 -> 313        0.63519
     312 -> 315       -0.28429

 Excited State   5:      Singlet-A      3.3635 eV  368.61 nm  f=0.0023  <S**2>=0.000
     305 -> 314       -0.35603
     308 -> 314        0.58004

 The electronic state is 1-A.
 Alpha  occ. eigenvalues --  -46.95113 -46.94101 -19.31493 -19.30428 -19.25001
 Alpha  occ. eigenvalues --  -19.24622 -19.24537 -19.23707 -19.23549 -19.22363
 Alpha  occ. eigenvalues --  -14.46836 -14.46344 -14.46211 -14.46172 -14.44843
 Alpha  occ. eigenvalues --  -14.43936 -14.43284 -14.43015 -10.43024 -10.42122
 Alpha  occ. eigenvalues --  -10.40262 -10.39545 -10.38375 -10.37081 -10.35987
 Alpha  occ. eigenvalues --  -10.35806 -10.35308 -10.35133 -10.35121 -10.35069
 Alpha  occ. eigenvalues --  -10.34769 -10.34738 -10.34731 -10.34730 -10.34444
 Alpha  occ. eigenvalues --  -10.34041 -10.33684 -10.33613 -10.33519 -10.33471
 Alpha  occ. eigenvalues --  -10.33335 -10.33278 -10.32953 -10.32900 -10.32851
 Alpha  occ. eigenvalues --  -10.32491 -10.32421 -10.32388 -10.32380 -10.32369
 Alpha  occ. eigenvalues --  -10.32153 -10.32118 -10.31808 -10.31619 -10.31606
 Alpha  occ. eigenvalues --  -10.31593 -10.31412 -10.31175 -10.31110 -10.31106
 Alpha  occ. eigenvalues --  -10.31088 -10.31083 -10.31027 -10.30701 -10.30673
 Alpha  occ. eigenvalues --  -10.30612 -10.30585 -10.30580 -10.30539 -10.30408
 Alpha  occ. eigenvalues --  -10.30322 -10.30254 -10.30145 -10.30123 -10.29938
 Alpha  occ. eigenvalues --  -10.29933 -10.29924 -10.29894 -10.29787 -10.29601
 Alpha  occ. eigenvalues --  -10.29574 -10.29223 -10.29197 -10.29023 -10.28879
 Alpha  occ. eigenvalues --  -10.27528  -3.21020  -3.20220  -1.94615  -1.94178
 Alpha  occ. eigenvalues --   -1.93948  -1.93827  -1.93330  -1.93224  -1.20551
 Alpha  occ. eigenvalues --   -1.19247  -1.13503  -1.12616  -1.11907  -1.11519
 Alpha  occ. eigenvalues --   -1.10881  -1.09229  -1.07068  -1.07010  -1.05884
 Alpha  occ. eigenvalues --   -1.05765  -1.04901  -1.04661  -1.04341  -1.03843
 Alpha  occ. eigenvalues --   -0.95391  -0.94579  -0.91600  -0.90576  -0.90473
 Alpha  occ. eigenvalues --   -0.90400  -0.90274  -0.89920  -0.89880  -0.89014
 Alpha  occ. eigenvalues --   -0.88925  -0.88569  -0.88218  -0.87418  -0.86367
 Alpha  occ. eigenvalues --   -0.85861  -0.85603  -0.85406  -0.84491  -0.84245
 Alpha  occ. eigenvalues --   -0.83757  -0.83334  -0.83196  -0.82688  -0.82301
 Alpha  occ. eigenvalues --   -0.81946  -0.80899  -0.79861  -0.79321  -0.79295
 Alpha  occ. eigenvalues --   -0.78895  -0.78658  -0.78214  -0.77487  -0.77020
 Alpha  occ. eigenvalues --   -0.76897  -0.75070  -0.74678  -0.73678  -0.73373
 Alpha  occ. eigenvalues --   -0.71447  -0.71157  -0.70874  -0.70775  -0.69987
 Alpha  occ. eigenvalues --   -0.69595  -0.69316  -0.68050  -0.67356  -0.67232
 Alpha  occ. eigenvalues --   -0.67149  -0.66980  -0.66891  -0.66613  -0.66471
 Alpha  occ. eigenvalues --   -0.66323  -0.64799  -0.64412  -0.62814  -0.61821
 Alpha  occ. eigenvalues --   -0.61639  -0.61523  -0.61165  -0.61134  -0.60588
 Alpha  occ. eigenvalues --   -0.60467  -0.60090  -0.59691  -0.59289  -0.59263
 Alpha  occ. eigenvalues --   -0.58822  -0.58651  -0.57988  -0.57557  -0.57287
 Alpha  occ. eigenvalues --   -0.56903  -0.56729  -0.56631  -0.56341  -0.55735
 Alpha  occ. eigenvalues --   -0.55576  -0.55482  -0.55196  -0.55137  -0.54817
 Alpha  occ. eigenvalues --   -0.54538  -0.54462  -0.54435  -0.54042  -0.53882
 Alpha  occ. eigenvalues --   -0.53660  -0.53593  -0.53326  -0.53201  -0.53130
 Alpha  occ. eigenvalues --   -0.53008  -0.52981  -0.52674  -0.52325  -0.52204
 Alpha  occ. eigenvalues --   -0.52117  -0.51935  -0.51610  -0.51529  -0.51308
 Alpha  occ. eigenvalues --   -0.51186  -0.51090  -0.50744  -0.50614  -0.50597
 Alpha  occ. eigenvalues --   -0.50475  -0.50427  -0.50297  -0.50001  -0.49874
 Alpha  occ. eigenvalues --   -0.49790  -0.49545  -0.49444  -0.49242  -0.49084
 Alpha  occ. eigenvalues --   -0.48802  -0.48631  -0.48443  -0.48307  -0.48295
 Alpha  occ. eigenvalues --   -0.47990  -0.47914  -0.47818  -0.47778  -0.47584
 Alpha  occ. eigenvalues --   -0.47521  -0.47308  -0.47195  -0.46941  -0.46917
 Alpha  occ. eigenvalues --   -0.46731  -0.46608  -0.46463  -0.46413  -0.46371
 Alpha  occ. eigenvalues --   -0.46216  -0.45692  -0.45648  -0.45583  -0.45313
 Alpha  occ. eigenvalues --   -0.45153  -0.45015  -0.44967  -0.44887  -0.44885
 Alpha  occ. eigenvalues --   -0.44622  -0.44524  -0.44258  -0.44090  -0.43842
 Alpha  occ. eigenvalues --   -0.43696  -0.43533  -0.43529  -0.43093  -0.43003
 Alpha  occ. eigenvalues --   -0.42937  -0.42684  -0.42583  -0.42287  -0.42151
 Alpha  occ. eigenvalues --   -0.41963  -0.41607  -0.41524  -0.41181  -0.40708
 Alpha  occ. eigenvalues --   -0.40272  -0.40176  -0.39598  -0.39351  -0.39175
 Alpha  occ. eigenvalues --   -0.39009  -0.38871  -0.38772  -0.38433  -0.38411
 Alpha  occ. eigenvalues --   -0.38306  -0.38132  -0.36399  -0.36209  -0.36074
 Alpha  occ. eigenvalues --   -0.35858  -0.35327  -0.34947  -0.34296  -0.33561
 Alpha  occ. eigenvalues --   -0.33433  -0.33103  -0.32988  -0.32263  -0.32137
 Alpha  occ. eigenvalues --   -0.31660  -0.31288  -0.31060  -0.26036  -0.25705
 Alpha  occ. eigenvalues --   -0.22865  -0.22861
 Alpha virt. eigenvalues --   -0.06910  -0.06817   0.00247   0.00410   0.02231
 Alpha virt. eigenvalues --    0.02552   0.04980   0.05001   0.05903   0.06470
 Alpha virt. eigenvalues --    0.07706   0.07881   0.08132   0.08209   0.08452

 Mulliken charges:
               1
     1  Mg   0.943490
     2  C   -0.010002
     3  C   -0.053622
     4  C   -0.049948
     5  C   -0.089670
     6  N   -0.281433
     7  C    0.032673
     8  C   -0.102319
     9  C   -0.079080
    10  C   -0.023156
    11  C    0.044024
    12  C   -0.008112
    13  C   -0.108837
    14  H    0.034733
    15  N   -0.486537
    16  C    0.194297
    17  C   -0.162098
    18  C   -0.110844
    19  C    0.127731
    20  C    0.066700
    21  C    0.057511
    22  O   -0.197962
    23  C   -0.024961
    24  N   -0.388408
    25  C    0.068120
    26  C   -0.106260
    27  C   -0.052130
    28  C    0.081797
    29  C    0.014965
    30  C   -0.034353
    31  C   -0.035154
    32  N   -0.431082
    33  C    0.126666
    34  C   -0.181576
    35  C   -0.031500
    36  C    0.145017
    37  C    0.071980
    38  C    0.142814
    39  O   -0.213866
    40  C   -0.092747
    41  C    0.223808
    42  O   -0.247825
    43  O   -0.327092
    44  C    0.146645
    45  H   -0.006234
    46  H    0.024687
    47  H   -0.006537
    48  H    0.040456
    49  H    0.020974
    50  H    0.046994
    51  H    0.041510
    52  H    0.029949
    53  H    0.038448
    54  H    0.025621
    55  H    0.052986
    56  H    0.060532
    57  H    0.037192
    58  H    0.040646
    59  H    0.034228
    60  H    0.057393
    61  H    0.052161
    62  H    0.039896
    63  H    0.050001
    64  H    0.031449
    65  H    0.019146
    66  H    0.045890
    67  H    0.058997
    68  H    0.022757
    69  H    0.029644
    70  H    0.030063
    71  H    0.044281
    72  H    0.041683
    73  H    0.038419
    74  H    0.061927
    75  H    0.059399
    76  H    0.073400
    77  H    0.085523
    78  H    0.026926
    79  H    0.057193
    80  Mg   0.983993
    81  C    0.006705
    82  C   -0.113555
    83  C   -0.075972
    84  C   -0.074201
    85  N   -0.350944
    86  C   -0.049186
    87  C   -0.050274
    88  C   -0.097928
    89  C    0.098193
    90  C    0.023328
    91  C    0.001768
    92  C   -0.114974
    93  H    0.031941
    94  N   -0.466448
    95  C    0.154201
    96  C   -0.174301
    97  C   -0.070263
    98  C    0.137962
    99  C    0.077826
   100  C    0.062812
   101  O   -0.243536
   102  C   -0.045547
   103  N   -0.390066
   104  C    0.116380
   105  C   -0.106948
   106  C   -0.048723
   107  C    0.073148
   108  C    0.009947
   109  C    0.001442
   110  C   -0.071386
   111  N   -0.414284
   112  C    0.082197
   113  C   -0.193406
   114  C   -0.037934
   115  C    0.139015
   116  C    0.088186
   117  C    0.083204
   118  O   -0.205362
   119  C   -0.074132
   120  C    0.226193
   121  O   -0.256827
   122  O   -0.333951
   123  C    0.142509
   124  H   -0.000075
   125  H    0.028392
   126  H   -0.008047
   127  H    0.049779
   128  H    0.040028
   129  H    0.051997
   130  H    0.043579
   131  H    0.040178
   132  H    0.030976
   133  H    0.043316
   134  H    0.042774
   135  H    0.062651
   136  H    0.053182
   137  H    0.041066
   138  H    0.058469
   139  H    0.058578
   140  H    0.065447
   141  H    0.052927
   142  H    0.043221
   143  H    0.032384
   144  H    0.027641
   145  H    0.060862
   146  H    0.025935
   147  H    0.049339
   148  H    0.028149
   149  H    0.020870
   150  H    0.037410
   151  H    0.045751
   152  H    0.054226
   153  H    0.052871
   154  H    0.061479
   155  H    0.067039
   156  H    0.054671
   157  H    0.045144
   158  H    0.056989
 Sum of Mulliken charges =  -0.00000

 Dipole moment (field-independent basis, Debye):
    X=             -1.1024    Y=              1.6932    Z=              7.0038  Tot=              7.2894
 Quadrupole moment (field-independent basis, Debye-Ang):
   XX=           -345.9897   YY=           -457.6401   ZZ=           -511.8436
   XY=             41.4472   XZ=            -57.2734   YZ=             27.7923

 Normal termination of Gaussian 16 at Mon Sep 20 21:23:54 2021.
