 Gaussian 16, Revision A.03,
 Gaussian 16:  ES64L-G16RevA.03 25-Dec-2016

 --------------------------------
 #p wB97XD/Def2SVP td=(nstates=5)
 --------------------------------

 --------------------------------
 TDDFT excited states in gaussian
 --------------------------------
 Symbolic Z-matrix:
 Charge =  0 Multiplicity = 1

                         Standard orientation:
 ---------------------------------------------------------------------
 Center     Atomic      Atomic             Coordinates (Angstroms)
 Number     Number       Type             X           Y           Z
 ---------------------------------------------------------------------
      1         12           0      -13.883788    0.920463    0.292060
      2          6           0      -13.979110   -2.644255   -0.157656
      3          6           0      -10.392549    0.674949   -0.275263
      4          6           0      -13.540313    4.354671    0.825496
      5          6           0      -17.099040    0.977569    1.197156
      6          7           0      -12.329535   -0.916750    0.028743
      7          6           0      -12.652657   -2.201517   -0.232550
      8          6           0      -11.346875   -3.050884   -0.436738
      9          6           0      -10.252024   -1.941573   -0.243408
     10          6           0      -11.019780   -0.599770   -0.236046
     11          6           0       -9.384360   -2.177570    1.041907
     12          6           0      -11.270346   -3.726458   -1.805683
     13          6           0      -10.809393   -5.147028   -1.816040
     14          1           0      -10.805707   -5.913182   -3.146788
     15          7           0      -12.298978    2.345326    0.086415
     16          6           0      -10.964833    2.022429   -0.138149
     17          6           0      -10.208897    3.257212   -0.207866
     18          6           0      -11.070212    4.322593   -0.004220
     19          6           0      -12.372207    3.692633    0.399941
     20          6           0       -8.714052    3.339468   -0.325253
     21          6           0      -10.804580    5.882665    0.050785
     22          8           0      -11.610177    6.761545    0.237058
     23          6           0       -9.431740    6.395615   -0.326624
     24          7           0      -15.036528    2.405665    1.044015
     25          6           0      -14.759296    3.739603    1.192817
     26          6           0      -15.885183    4.490668    1.941234
     27          6           0      -17.105237    3.480105    1.833522
     28          6           0      -16.362424    2.201351    1.287929
     29          6           0      -15.482468    4.906750    3.392183
     30          6           0      -18.258002    3.954347    0.897117
     31          6           0      -17.920232    4.013478   -0.590911
     32          7           0      -15.274473   -0.460782    0.526785
     33          6           0      -16.649770   -0.303262    0.855479
     34          6           0      -17.326902   -1.598103    0.865489
     35          6           0      -16.342115   -2.502613    0.429416
     36          6           0      -15.128821   -1.794391    0.222380
     37          6           0      -18.728883   -1.832780    1.190125
     38          6           0      -16.149074   -3.920255    0.141797
     39          8           0      -16.961294   -4.830074    0.144735
     40          6           0      -14.567737   -4.103661   -0.171714
     41          6           0      -14.656799   -4.810632   -1.526318
     42          8           0      -14.986914   -4.333522   -2.627007
     43          8           0      -14.379805   -6.091675   -1.356033
     44          6           0      -14.117419   -6.963199   -2.572389
     45          1           0       -9.332588    0.596400   -0.524581
     46          1           0      -13.528484    5.429744    1.021159
     47          1           0      -18.160728    1.080083    1.429902
     48          1           0      -11.427254   -3.844334    0.305519
     49          1           0       -9.581382   -1.883682   -1.101772
     50          1           0       -8.306283   -2.225293    0.888377
     51          1           0       -9.744407   -2.985708    1.678882
     52          1           0       -9.352775   -1.355428    1.757232
     53          1           0      -10.354055   -3.287407   -2.200726
     54          1           0      -12.126039   -3.503266   -2.443880
     55          1           0      -11.235194   -5.863234   -1.111433
     56          1           0       -9.760942   -5.063178   -1.529781
     57          1           0       -8.277578    2.362999   -0.533674
     58          1           0       -8.201072    3.741229    0.549941
     59          1           0       -8.338734    3.953382   -1.144165
     60          1           0       -9.153844    6.127434   -1.345857
     61          1           0       -8.813361    5.946692    0.450728
     62          1           0       -9.489675    7.456713   -0.084039
     63          1           0      -15.968621    5.432980    1.398623
     64          1           0      -17.467932    3.031106    2.758423
     65          1           0      -15.373602    5.985370    3.505141
     66          1           0      -14.626239    4.413046    3.850445
     67          1           0      -16.340610    4.539485    3.955332
     68          1           0      -18.726614    4.817792    1.369517
     69          1           0      -19.051080    3.209439    0.959984
     70          1           0      -16.878685    3.827865   -0.850732
     71          1           0      -18.146333    5.033986   -0.899006
     72          1           0      -18.385940    3.250297   -1.213364
     73          1           0      -19.043855   -2.875620    1.147862
     74          1           0      -19.287672   -1.239815    0.466183
     75          1           0      -18.910384   -1.411902    2.180091
     76          1           0      -14.098289   -4.838422    0.482361
     77          1           0      -13.608902   -7.850088   -2.193672
     78          1           0      -13.422495   -6.508799   -3.277925
     79          1           0      -15.017649   -7.197873   -3.141569
     80         12           0       14.656435   -0.252746   -0.221430
     81          6           0       11.199799   -1.055140   -0.586843
     82          6           0       13.983619    2.513878   -1.925866
     83          6           0       17.557488    1.070384    0.898711
     84          6           0       14.705111   -2.758935    2.311719
     85          7           0       12.900065    0.534996   -1.214543
     86          6           0       11.591639    0.017108   -1.327802
     87          6           0       10.643531    0.924698   -2.173216
     88          6           0       11.623238    2.043416   -2.627799
     89          6           0       12.956944    1.643808   -1.961838
     90          6           0       11.595551    2.084162   -4.164774
     91          6           0        9.351644    1.511575   -1.456665
     92          6           0        8.001721    1.023037   -1.969071
     93          1           0        6.992023    2.090114   -2.438884
     94          7           0       15.682172    1.456337   -0.526545
     95          6           0       15.204572    2.519091   -1.293170
     96          6           0       16.193664    3.509830   -1.433823
     97          6           0       17.323289    3.086426   -0.758188
     98          6           0       16.927270    1.867363   -0.082597
     99          6           0       16.127511    4.862797   -2.235064
    100          6           0       18.622719    3.856983   -0.762414
    101          8           0       18.828445    4.824282   -1.433357
    102          6           0       19.811338    3.211143    0.105780
    103          7           0       15.924901   -0.712910    1.420326
    104          6           0       17.089024   -0.025564    1.631127
    105          6           0       17.714120   -0.579152    2.976526
    106          6           0       16.926476   -1.841718    3.364295
    107          6           0       15.752926   -1.777405    2.313942
    108          6           0       19.210538   -0.712157    2.971273
    109          6           0       16.356755   -1.674022    4.767415
    110          6           0       16.019109   -2.927464    5.530211
    111          7           0       13.327725   -1.812120    0.530288
    112          6           0       13.507866   -2.745849    1.522715
    113          6           0       12.368115   -3.583346    1.621062
    114          6           0       11.390506   -3.038622    0.755168
    115          6           0       12.019042   -1.881781    0.213838
    116          6           0       12.150539   -4.700504    2.560941
    117          6           0       10.027012   -3.083586    0.209942
    118          8           0        9.148544   -3.936129    0.396987
    119          6           0        9.834849   -1.816468   -0.708827
    120          6           0        9.734654   -2.239157   -2.080308
    121          8           0       10.746442   -2.615214   -2.718149
    122          8           0        8.432927   -2.181414   -2.423831
    123          6           0        8.063740   -2.379795   -3.852244
    124          1           0       13.808014    3.416612   -2.515259
    125          1           0       18.522315    1.492972    1.187182
    126          1           0       14.704287   -3.617647    2.985821
    127          1           0       10.295587    0.376976   -3.048967
    128          1           0       11.367359    3.029591   -2.241580
    129          1           0       12.399776    2.750459   -4.475474
    130          1           0       10.669684    2.441268   -4.615515
    131          1           0       11.775197    1.104642   -4.609330
    132          1           0        9.358007    2.565560   -1.734551
    133          1           0        9.438798    1.397957   -0.376057
    134          1           0        7.554462    0.421183   -1.177234
    135          1           0        8.159484    0.388136   -2.841629
    136          1           0       16.409494    5.638368   -1.522679
    137          1           0       15.125118    5.065336   -2.611955
    138          1           0       16.709353    4.899378   -3.156018
    139          1           0       20.689913    3.820914   -0.102774
    140          1           0       19.861533    2.190106   -0.273206
    141          1           0       19.415124    3.287957    1.118264
    142          1           0       17.492233    0.211425    3.694231
    143          1           0       17.465503   -2.788426    3.329659
    144          1           0       19.483333   -1.525888    3.642676
    145          1           0       19.595456    0.247534    3.316712
    146          1           0       19.650545   -0.818518    1.980404
    147          1           0       15.471869   -1.037584    4.796842
    148          1           0       17.015284   -1.091291    5.411483
    149          1           0       16.406732   -3.829700    5.057466
    150          1           0       14.932695   -2.999636    5.585085
    151          1           0       16.291455   -2.825051    6.580613
    152          1           0       13.089436   -5.176150    2.846143
    153          1           0       11.511745   -5.406493    2.029705
    154          1           0       11.702157   -4.249246    3.446349
    155          1           0        9.039009   -1.140997   -0.394977
    156          1           0        7.098708   -2.873866   -3.730447
    157          1           0        8.791060   -2.956535   -4.422868
    158          1           0        7.772134   -1.440710   -4.323754
 ---------------------------------------------------------------------

 SCF Done:  E(RwB97XD) =  -4070.59648552     A.U. after   19 cycles

 Excitation energies and oscillator strengths:

 Excited State   1:      Singlet-A      1.5888 eV  780.38 nm  f=0.3732  <S**2>=0.000
     310 -> 315        0.18991
     312 -> 314        0.68307
     310 <- 315        0.12270
 This state for optimization and/or second-order correction.
 Total Energy, E(TD-HF/TD-DFT) =  -4070.53809956
 Copying the excited state density for this state as the 1-particle RhoCI density.

 Excited State   2:      Singlet-A      1.6726 eV  741.28 nm  f=0.3838  <S**2>=0.000
     309 -> 316       -0.17580
     311 -> 313        0.68537
     309 <- 316       -0.11224

 Excited State   3:      Singlet-A      2.1587 eV  574.34 nm  f=0.0900  <S**2>=0.000
     310 -> 314        0.62435
     312 -> 315       -0.32209

 Excited State   4:      Singlet-A      2.2044 eV  562.43 nm  f=0.1144  <S**2>=0.000
     309 -> 313        0.63532
     311 -> 316        0.29121

 Excited State   5:      Singlet-A      3.2896 eV  376.90 nm  f=0.0022  <S**2>=0.000
     301 -> 313        0.12148
     308 -> 313        0.66463

 The electronic state is 1-A.
 Alpha  occ. eigenvalues --  -46.94945 -46.94608 -19.31798 -19.30118 -19.24768
 Alpha  occ. eigenvalues --  -19.24676 -19.24529 -19.24383 -19.23856 -19.22946
 Alpha  occ. eigenvalues --  -14.47256 -14.47054 -14.46853 -14.46114 -14.44713
 Alpha  occ. eigenvalues --  -14.44281 -14.44246 -14.43123 -10.43419 -10.42300
 Alpha  occ. eigenvalues --  -10.39566 -10.39548 -10.39488 -10.39399 -10.36680
 Alpha  occ. eigenvalues --  -10.35957 -10.35783 -10.35583 -10.35445 -10.35367
 Alpha  occ. eigenvalues --  -10.35247 -10.35178 -10.35117 -10.35113 -10.34685
 Alpha  occ. eigenvalues --  -10.34680 -10.34599 -10.34015 -10.33923 -10.33777
 Alpha  occ. eigenvalues --  -10.33117 -10.32912 -10.32876 -10.32711 -10.32698
 Alpha  occ. eigenvalues --  -10.32633 -10.32502 -10.32488 -10.32488 -10.32453
 Alpha  occ. eigenvalues --  -10.32452 -10.32398 -10.32379 -10.32283 -10.32213
 Alpha  occ. eigenvalues --  -10.32060 -10.32048 -10.31871 -10.31713 -10.31637
 Alpha  occ. eigenvalues --  -10.31410 -10.31362 -10.31322 -10.31210 -10.31160
 Alpha  occ. eigenvalues --  -10.31062 -10.31039 -10.30838 -10.30755 -10.30663
 Alpha  occ. eigenvalues --  -10.30408 -10.30337 -10.30314 -10.30132 -10.30057
 Alpha  occ. eigenvalues --  -10.29997 -10.29908 -10.29861 -10.29757 -10.29722
 Alpha  occ. eigenvalues --  -10.29595 -10.29443 -10.29340 -10.29200 -10.29038
 Alpha  occ. eigenvalues --  -10.28932  -3.20985  -3.20737  -1.94551  -1.94314
 Alpha  occ. eigenvalues --   -1.94089  -1.93976  -1.93876  -1.93710  -1.18899
 Alpha  occ. eigenvalues --   -1.18105  -1.14296  -1.13674  -1.12251  -1.10961
 Alpha  occ. eigenvalues --   -1.09644  -1.07450  -1.06229  -1.05763  -1.05316
 Alpha  occ. eigenvalues --   -1.05101  -1.04922  -1.04246  -1.03833  -1.03726
 Alpha  occ. eigenvalues --   -0.94244  -0.92801  -0.91583  -0.91299  -0.91072
 Alpha  occ. eigenvalues --   -0.90757  -0.90591  -0.89915  -0.89361  -0.89281
 Alpha  occ. eigenvalues --   -0.88879  -0.88704  -0.88496  -0.88379  -0.86799
 Alpha  occ. eigenvalues --   -0.86206  -0.86018  -0.85449  -0.85269  -0.84246
 Alpha  occ. eigenvalues --   -0.83911  -0.83429  -0.83182  -0.82952  -0.82333
 Alpha  occ. eigenvalues --   -0.82113  -0.80089  -0.79723  -0.79409  -0.79198
 Alpha  occ. eigenvalues --   -0.78858  -0.78691  -0.78248  -0.77873  -0.77172
 Alpha  occ. eigenvalues --   -0.77048  -0.74804  -0.74564  -0.73783  -0.73605
 Alpha  occ. eigenvalues --   -0.71955  -0.71325  -0.70711  -0.70586  -0.69801
 Alpha  occ. eigenvalues --   -0.69476  -0.69316  -0.68238  -0.67735  -0.67566
 Alpha  occ. eigenvalues --   -0.67404  -0.67081  -0.67051  -0.66644  -0.66580
 Alpha  occ. eigenvalues --   -0.66054  -0.64297  -0.63754  -0.62257  -0.61689
 Alpha  occ. eigenvalues --   -0.61587  -0.61470  -0.61275  -0.60896  -0.60543
 Alpha  occ. eigenvalues --   -0.60270  -0.59690  -0.59352  -0.59219  -0.58453
 Alpha  occ. eigenvalues --   -0.58168  -0.58073  -0.57626  -0.57393  -0.57041
 Alpha  occ. eigenvalues --   -0.57025  -0.56709  -0.56568  -0.56275  -0.55874
 Alpha  occ. eigenvalues --   -0.55851  -0.55265  -0.55178  -0.55126  -0.54895
 Alpha  occ. eigenvalues --   -0.54812  -0.54627  -0.54505  -0.54430  -0.54315
 Alpha  occ. eigenvalues --   -0.54043  -0.53702  -0.53478  -0.53441  -0.53223
 Alpha  occ. eigenvalues --   -0.52882  -0.52821  -0.52518  -0.52349  -0.52154
 Alpha  occ. eigenvalues --   -0.52044  -0.52003  -0.51835  -0.51732  -0.51543
 Alpha  occ. eigenvalues --   -0.51240  -0.51200  -0.51143  -0.50966  -0.50893
 Alpha  occ. eigenvalues --   -0.50544  -0.50456  -0.50347  -0.50232  -0.50060
 Alpha  occ. eigenvalues --   -0.50051  -0.49531  -0.49481  -0.49420  -0.49347
 Alpha  occ. eigenvalues --   -0.48966  -0.48657  -0.48563  -0.48441  -0.48316
 Alpha  occ. eigenvalues --   -0.48271  -0.48107  -0.48104  -0.47728  -0.47653
 Alpha  occ. eigenvalues --   -0.47411  -0.47319  -0.47189  -0.47135  -0.46960
 Alpha  occ. eigenvalues --   -0.46812  -0.46760  -0.46324  -0.46319  -0.46139
 Alpha  occ. eigenvalues --   -0.46053  -0.45874  -0.45809  -0.45578  -0.45517
 Alpha  occ. eigenvalues --   -0.45446  -0.45329  -0.45059  -0.45043  -0.44934
 Alpha  occ. eigenvalues --   -0.44886  -0.44792  -0.44591  -0.44498  -0.44302
 Alpha  occ. eigenvalues --   -0.44038  -0.43908  -0.43762  -0.43665  -0.43626
 Alpha  occ. eigenvalues --   -0.43279  -0.42809  -0.42587  -0.42256  -0.42175
 Alpha  occ. eigenvalues --   -0.42088  -0.42070  -0.41447  -0.41167  -0.41059
 Alpha  occ. eigenvalues --   -0.40516  -0.40475  -0.40191  -0.39959  -0.39656
 Alpha  occ. eigenvalues --   -0.39517  -0.39336  -0.38854  -0.38692  -0.38017
 Alpha  occ. eigenvalues --   -0.38015  -0.37631  -0.36318  -0.36216  -0.35879
 Alpha  occ. eigenvalues --   -0.35320  -0.35270  -0.34692  -0.34095  -0.33585
 Alpha  occ. eigenvalues --   -0.33053  -0.32975  -0.32810  -0.32787  -0.32737
 Alpha  occ. eigenvalues --   -0.32494  -0.32133  -0.31138  -0.26284  -0.26006
 Alpha  occ. eigenvalues --   -0.23139  -0.22739
 Alpha virt. eigenvalues --   -0.07166  -0.07047  -0.00108   0.00155   0.02577
 Alpha virt. eigenvalues --    0.02724   0.04498   0.04717   0.05377   0.06525
 Alpha virt. eigenvalues --    0.06670   0.07134   0.07615   0.08000   0.08010

 Mulliken charges:
               1
     1  Mg   0.988053
     2  C    0.030776
     3  C   -0.071628
     4  C   -0.057308
     5  C   -0.105006
     6  N   -0.311446
     7  C   -0.008637
     8  C   -0.088419
     9  C   -0.082949
    10  C    0.047661
    11  C    0.016081
    12  C    0.051483
    13  C   -0.150404
    14  H    0.031579
    15  N   -0.450283
    16  C    0.180625
    17  C   -0.160738
    18  C   -0.081937
    19  C    0.134140
    20  C    0.054951
    21  C    0.056920
    22  O   -0.216040
    23  C   -0.009264
    24  N   -0.398588
    25  C    0.036525
    26  C   -0.083134
    27  C   -0.076543
    28  C    0.060723
    29  C    0.027340
    30  C   -0.006052
    31  C   -0.051459
    32  N   -0.527296
    33  C    0.158646
    34  C   -0.163564
    35  C   -0.041850
    36  C    0.162098
    37  C    0.081424
    38  C    0.128565
    39  O   -0.198748
    40  C   -0.130054
    41  C    0.252180
    42  O   -0.287001
    43  O   -0.341641
    44  C    0.147828
    45  H   -0.001391
    46  H    0.022886
    47  H   -0.006086
    48  H    0.039217
    49  H    0.035182
    50  H    0.033236
    51  H    0.038420
    52  H    0.025670
    53  H    0.023384
    54  H    0.069005
    55  H    0.048390
    56  H    0.037710
    57  H    0.022411
    58  H    0.055869
    59  H    0.037746
    60  H    0.076366
    61  H    0.035045
    62  H    0.053105
    63  H    0.040787
    64  H    0.043005
    65  H    0.048235
    66  H    0.047227
    67  H    0.024257
    68  H    0.039477
    69  H    0.022303
    70  H    0.040678
    71  H    0.045426
    72  H    0.042419
    73  H    0.065326
    74  H    0.051784
    75  H    0.044446
    76  H    0.067641
    77  H    0.057769
    78  H    0.052454
    79  H    0.072992
    80  Mg   0.984633
    81  C   -0.043583
    82  C   -0.132138
    83  C   -0.102432
    84  C   -0.063400
    85  N   -0.377742
    86  C    0.011570
    87  C   -0.047367
    88  C   -0.123647
    89  C    0.121235
    90  C    0.014128
    91  C    0.012150
    92  C   -0.135439
    93  H    0.033533
    94  N   -0.504954
    95  C    0.212875
    96  C   -0.172232
    97  C   -0.054643
    98  C    0.149861
    99  C    0.105796
   100  C    0.008147
   101  O   -0.195151
   102  C   -0.027682
   103  N   -0.393357
   104  C    0.110740
   105  C   -0.081191
   106  C   -0.082605
   107  C    0.107976
   108  C    0.029352
   109  C   -0.045314
   110  C   -0.025521
   111  N   -0.385769
   112  C    0.093623
   113  C   -0.223081
   114  C    0.000562
   115  C    0.116351
   116  C    0.079608
   117  C    0.128979
   118  O   -0.222609
   119  C   -0.072514
   120  C    0.292503
   121  O   -0.279831
   122  O   -0.349598
   123  C    0.124752
   124  H   -0.016752
   125  H   -0.040169
   126  H   -0.012800
   127  H    0.028323
   128  H    0.045421
   129  H    0.027789
   130  H    0.042714
   131  H    0.043071
   132  H    0.041048
   133  H    0.048472
   134  H    0.069269
   135  H    0.033041
   136  H    0.061870
   137  H    0.011498
   138  H    0.062767
   139  H    0.058257
   140  H    0.066181
   141  H    0.068481
   142  H    0.046833
   143  H    0.038503
   144  H    0.041408
   145  H    0.031692
   146  H    0.038598
   147  H    0.030337
   148  H    0.021588
   149  H    0.036108
   150  H    0.029972
   151  H    0.033015
   152  H    0.030724
   153  H    0.066766
   154  H    0.060730
   155  H    0.055533
   156  H    0.061509
   157  H    0.085282
   158  H    0.056349
 Sum of Mulliken charges =  -0.00000

 Dipole moment (field-independent basis, Debye):
    X=              4.4835    Y=              2.8268    Z=              1.9661  Tot=              5.6532
 Quadrupole moment (field-independent basis, Debye-Ang):
   XX=           -556.6737   YY=           -541.6322   ZZ=           -488.3556
   XY=            -47.8151   XZ=             -1.2983   YZ=              3.1471

 Normal termination of Gaussian 16 at Sun Sep 19 09:34:03 2021.
