 Gaussian 16, Revision A.03,
 Gaussian 16:  ES64L-G16RevA.03 25-Dec-2016

 --------------------------------
 #p wB97XD/Def2SVP td=(nstates=5)
 --------------------------------

 --------------------------------
 TDDFT excited states in gaussian
 --------------------------------
 Symbolic Z-matrix:
 Charge =  0 Multiplicity = 1

                         Standard orientation:
 ---------------------------------------------------------------------
 Center     Atomic      Atomic             Coordinates (Angstroms)
 Number     Number       Type             X           Y           Z
 ---------------------------------------------------------------------
      1         12           0        8.526741    0.542102   -0.231229
      2          6           0        6.215192   -1.914771   -1.058004
      3          6           0        6.232527    2.984814   -1.383749
      4          6           0       10.126280    2.885541    1.533402
      5          6           0       10.362738   -1.938012    1.473710
      6          7           0        6.245551    0.531325   -0.821269
      7          6           0        5.684311   -0.623530   -1.310813
      8          6           0        4.369774   -0.356568   -1.974363
      9          6           0        4.492358    1.200434   -2.310669
     10          6           0        5.715789    1.657067   -1.439760
     11          6           0        4.681256    1.573060   -3.866993
     12          6           0        3.149078   -0.843623   -1.036217
     13          6           0        1.938284   -1.183997   -1.746384
     14          1           0        0.695799   -0.410293   -1.256771
     15          7           0        8.357011    2.646188   -0.090116
     16          6           0        7.341300    3.471893   -0.648296
     17          6           0        7.668669    4.849265   -0.320627
     18          6           0        8.813394    4.864945    0.512885
     19          6           0        9.208015    3.420109    0.619833
     20          6           0        6.781598    5.978372   -0.692559
     21          6           0        9.420739    6.172887    1.173004
     22          8           0        8.858549    7.236776    0.917915
     23          6           0       10.800664    6.185398    1.821636
     24          7           0        9.939924    0.425817    1.337215
     25          6           0       10.513299    1.570754    1.786905
     26          6           0       11.605767    1.305473    2.998339
     27          6           0       11.832547   -0.271498    2.815773
     28          6           0       10.697551   -0.666926    1.818982
     29          6           0       12.971287    2.081725    2.874192
     30          6           0       11.722807   -1.050567    4.127807
     31          6           0       12.903675   -1.908208    4.642431
     32          7           0        8.498354   -1.518663   -0.103637
     33          6           0        9.316484   -2.368710    0.582275
     34          6           0        8.962394   -3.723689    0.260568
     35          6           0        7.668138   -3.557369   -0.361621
     36          6           0        7.444137   -2.177469   -0.505260
     37          6           0        9.636441   -4.967100    0.764394
     38          6           0        6.508125   -4.287343   -0.828884
     39          8           0        6.362704   -5.456567   -1.019038
     40          6           0        5.465550   -3.242988   -1.388916
     41          6           0        5.217067   -3.330968   -2.910872
     42          8           0        6.090426   -3.357679   -3.751167
     43          8           0        3.836109   -3.476475   -3.156516
     44          6           0        3.446337   -3.746655   -4.507459
     45          1           0        5.516143    3.682821   -1.820178
     46          1           0       10.515357    3.562067    2.296975
     47          1           0       10.972520   -2.672834    2.002539
     48          1           0        4.324763   -0.762384   -2.985531
     49          1           0        3.592282    1.695096   -1.943823
     50          1           0        3.825956    2.201897   -4.113900
     51          1           0        4.725904    0.695351   -4.511026
     52          1           0        5.600817    2.155597   -3.930209
     53          1           0        2.955941    0.025390   -0.407460
     54          1           0        3.639600   -1.617604   -0.445310
     55          1           0        1.793093   -2.253220   -1.596901
     56          1           0        2.041981   -0.935829   -2.802644
     57          1           0        6.035920    5.678502   -1.428649
     58          1           0        7.358144    6.752587   -1.199421
     59          1           0        6.242749    6.361082    0.174521
     60          1           0       10.865146    5.584631    2.729389
     61          1           0       11.052853    7.225531    2.030689
     62          1           0       11.510628    5.827972    1.075695
     63          1           0       11.027814    1.505721    3.900126
     64          1           0       12.734035   -0.545585    2.267345
     65          1           0       13.051970    2.813647    3.677332
     66          1           0       13.006211    2.603632    1.917148
     67          1           0       13.761602    1.334159    2.950375
     68          1           0       10.819575   -1.659487    4.159003
     69          1           0       11.465092   -0.445114    4.996629
     70          1           0       12.782540   -2.991721    4.629513
     71          1           0       13.001189   -1.644146    5.695733
     72          1           0       13.819092   -1.693090    4.089905
     73          1           0        9.333419   -5.781398    0.105752
     74          1           0        9.199886   -5.396839    1.665424
     75          1           0       10.711246   -4.878568    0.920479
     76          1           0        4.545971   -3.520040   -0.872677
     77          1           0        2.441072   -3.324059   -4.504259
     78          1           0        3.285199   -4.810383   -4.681557
     79          1           0        4.171570   -3.339567   -5.210890
     80         12           0       -8.594025    0.242919    0.026702
     81          6           0       -6.170822   -2.383919   -0.223558
     82          6           0       -6.477466    2.091073   -2.105919
     83          6           0      -10.291926    2.958417    0.695561
     84          6           0      -10.277700   -1.592571    2.341585
     85          7           0       -6.592516   -0.159249   -1.062169
     86          6           0       -5.923347   -1.337132   -1.052100
     87          6           0       -4.797977   -1.264494   -2.070974
     88          6           0       -4.846763    0.137431   -2.741338
     89          6           0       -6.043579    0.727049   -1.970518
     90          6           0       -3.452599    0.974881   -2.610865
     91          6           0       -4.901521   -2.394209   -3.183112
     92          6           0       -3.622638   -3.175828   -3.485561
     93          1           0       -2.203406   -2.484689   -3.390958
     94          7           0       -8.374322    2.279856   -0.583499
     95          6           0       -7.505410    2.778022   -1.437423
     96          6           0       -7.770107    4.184953   -1.546636
     97          6           0       -8.973740    4.504319   -0.868483
     98          6           0       -9.234738    3.259553   -0.194264
     99          6           0       -7.031562    5.089922   -2.531392
    100          6           0       -9.890216    5.717507   -0.843310
    101          8           0      -10.862883    5.798215   -0.115696
    102          6           0       -9.566835    6.810729   -1.824244
    103          7           0       -9.836916    0.699296    1.589977
    104          6           0      -10.590922    1.872088    1.518356
    105          6           0      -11.859528    1.836100    2.413256
    106          6           0      -11.870194    0.301950    2.770503
    107          6           0      -10.569610   -0.257194    2.193818
    108          6           0      -11.720243    2.801570    3.599186
    109          6           0      -13.076975   -0.504865    2.093740
    110          6           0      -14.221448   -0.926189    2.953200
    111          7           0       -8.386384   -1.609118    0.801409
    112          6           0       -9.149211   -2.214011    1.776879
    113          6           0       -8.609681   -3.503869    2.199288
    114          6           0       -7.405597   -3.629244    1.418492
    115          6           0       -7.259377   -2.420010    0.698594
    116          6           0       -9.336494   -4.472310    3.060567
    117          6           0       -6.316248   -4.518260    1.044986
    118          8           0       -6.120592   -5.678071    1.451660
    119          6           0       -5.412568   -3.715745   -0.053528
    120          6           0       -4.104489   -3.581736    0.567854
    121          8           0       -3.921583   -3.060157    1.646022
    122          8           0       -3.139308   -4.093722   -0.204977
    123          6           0       -1.707217   -4.135556    0.227595
    124          1           0       -5.899792    2.681914   -2.819698
    125          1           0      -11.138152    3.648853    0.664546
    126          1           0      -10.897385   -2.176856    3.024605
    127          1           0       -3.862330   -1.349670   -1.518311
    128          1           0       -4.966146    0.068660   -3.822729
    129          1           0       -2.610489    0.303056   -2.444444
    130          1           0       -3.615704    1.655813   -1.775102
    131          1           0       -3.292552    1.563595   -3.513991
    132          1           0       -5.320322   -2.069301   -4.134568
    133          1           0       -5.601570   -3.160146   -2.849606
    134          1           0       -3.658130   -3.637603   -4.472501
    135          1           0       -3.686015   -4.012739   -2.790093
    136          1           0       -7.557194    5.247867   -3.473274
    137          1           0       -5.997419    4.773413   -2.670609
    138          1           0       -6.929508    6.053840   -2.033361
    139          1           0       -9.267249    6.471504   -2.816305
    140          1           0       -8.780554    7.493460   -1.505197
    141          1           0      -10.489786    7.322445   -2.097153
    142          1           0      -12.701346    2.141231    1.792294
    143          1           0      -11.938984    0.213022    3.854769
    144          1           0      -10.868352    3.478232    3.533464
    145          1           0      -11.580724    2.267260    4.538290
    146          1           0      -12.632692    3.391906    3.689268
    147          1           0      -12.788771   -1.437521    1.608808
    148          1           0      -13.508453    0.022372    1.243686
    149          1           0      -15.136351   -0.430345    2.631390
    150          1           0      -13.916458   -0.592535    3.945219
    151          1           0      -14.372119   -2.003664    2.887206
    152          1           0       -9.123022   -5.500317    2.769740
    153          1           0      -10.384374   -4.173779    3.036327
    154          1           0       -8.967817   -4.321640    4.076120
    155          1           0       -5.310829   -4.277616   -0.981019
    156          1           0       -1.644162   -4.568430    1.226138
    157          1           0       -1.251016   -3.146001    0.264558
    158          1           0       -1.047722   -4.627132   -0.487078
 ---------------------------------------------------------------------

 SCF Done:  E(RwB97XD) =  -4070.57774962     A.U. after   19 cycles

 Excitation energies and oscillator strengths:

 Excited State   1:      Singlet-A      1.6200 eV  765.35 nm  f=0.1248  <S**2>=0.000
     310 -> 316        0.16189
     311 -> 313       -0.28586
     312 -> 314        0.62256
     310 <- 316        0.10567
 This state for optimization and/or second-order correction.
 Total Energy, E(TD-HF/TD-DFT) =  -4070.51821705
 Copying the excited state density for this state as the 1-particle RhoCI density.

 Excited State   2:      Singlet-A      1.6400 eV  756.01 nm  f=0.6377  <S**2>=0.000
     309 -> 315       -0.16315
     311 -> 313        0.62364
     312 -> 314        0.28458
     309 <- 315       -0.10615

 Excited State   3:      Singlet-A      2.1420 eV  578.82 nm  f=0.1424  <S**2>=0.000
     310 -> 314        0.64718
     312 -> 316       -0.26568

 Excited State   4:      Singlet-A      2.1956 eV  564.70 nm  f=0.1037  <S**2>=0.000
     309 -> 313        0.63338
     311 -> 315        0.29388

 Excited State   5:      Singlet-A      3.3496 eV  370.15 nm  f=0.0000  <S**2>=0.000
     312 -> 313        0.70677

 The electronic state is 1-A.
 Alpha  occ. eigenvalues --  -46.96263 -46.94958 -19.30586 -19.30342 -19.25855
 Alpha  occ. eigenvalues --  -19.24851 -19.24541 -19.24071 -19.23380 -19.23356
 Alpha  occ. eigenvalues --  -14.47060 -14.46724 -14.46477 -14.46295 -14.44944
 Alpha  occ. eigenvalues --  -14.43981 -14.43735 -14.43640 -10.44143 -10.42218
 Alpha  occ. eigenvalues --  -10.40505 -10.39741 -10.39494 -10.38115 -10.36089
 Alpha  occ. eigenvalues --  -10.36051 -10.35809 -10.35423 -10.35409 -10.35359
 Alpha  occ. eigenvalues --  -10.35241 -10.34771 -10.34673 -10.34549 -10.34496
 Alpha  occ. eigenvalues --  -10.34258 -10.33703 -10.33654 -10.33601 -10.33428
 Alpha  occ. eigenvalues --  -10.33192 -10.33002 -10.32821 -10.32766 -10.32749
 Alpha  occ. eigenvalues --  -10.32743 -10.32739 -10.32608 -10.32581 -10.32485
 Alpha  occ. eigenvalues --  -10.32378 -10.32320 -10.32270 -10.32146 -10.32145
 Alpha  occ. eigenvalues --  -10.32103 -10.31981 -10.31919 -10.31832 -10.31824
 Alpha  occ. eigenvalues --  -10.31814 -10.31663 -10.31144 -10.31022 -10.30964
 Alpha  occ. eigenvalues --  -10.30806 -10.30787 -10.30641 -10.30615 -10.30603
 Alpha  occ. eigenvalues --  -10.30514 -10.30462 -10.30407 -10.30333 -10.30245
 Alpha  occ. eigenvalues --  -10.29926 -10.29925 -10.29731 -10.29700 -10.29628
 Alpha  occ. eigenvalues --  -10.29606 -10.29604 -10.29528 -10.29294 -10.28799
 Alpha  occ. eigenvalues --  -10.28747  -3.22148  -3.21023  -1.95679  -1.95321
 Alpha  occ. eigenvalues --   -1.95078  -1.94577  -1.94154  -1.94001  -1.18613
 Alpha  occ. eigenvalues --   -1.18449  -1.13125  -1.13049  -1.12642  -1.11137
 Alpha  occ. eigenvalues --   -1.10650  -1.09459  -1.07010  -1.06667  -1.05507
 Alpha  occ. eigenvalues --   -1.05130  -1.05086  -1.04517  -1.03915  -1.03743
 Alpha  occ. eigenvalues --   -0.94335  -0.94110  -0.91189  -0.90495  -0.90475
 Alpha  occ. eigenvalues --   -0.90227  -0.90141  -0.89961  -0.89045  -0.88944
 Alpha  occ. eigenvalues --   -0.88920  -0.88505  -0.88347  -0.87869  -0.86180
 Alpha  occ. eigenvalues --   -0.86120  -0.85985  -0.85338  -0.84795  -0.84526
 Alpha  occ. eigenvalues --   -0.84271  -0.83743  -0.83245  -0.83196  -0.82629
 Alpha  occ. eigenvalues --   -0.82373  -0.80216  -0.79855  -0.79541  -0.79411
 Alpha  occ. eigenvalues --   -0.78874  -0.78783  -0.78204  -0.78161  -0.77031
 Alpha  occ. eigenvalues --   -0.76781  -0.74768  -0.74466  -0.73460  -0.73385
 Alpha  occ. eigenvalues --   -0.71206  -0.70731  -0.70565  -0.69729  -0.69633
 Alpha  occ. eigenvalues --   -0.69598  -0.68920  -0.68673  -0.67935  -0.67457
 Alpha  occ. eigenvalues --   -0.67089  -0.66961  -0.66638  -0.66592  -0.66464
 Alpha  occ. eigenvalues --   -0.66232  -0.64991  -0.64331  -0.62482  -0.61810
 Alpha  occ. eigenvalues --   -0.61570  -0.61153  -0.61126  -0.60799  -0.60695
 Alpha  occ. eigenvalues --   -0.60452  -0.60116  -0.59992  -0.59576  -0.59429
 Alpha  occ. eigenvalues --   -0.58441  -0.58079  -0.57588  -0.57457  -0.57127
 Alpha  occ. eigenvalues --   -0.57085  -0.56897  -0.56225  -0.56034  -0.55407
 Alpha  occ. eigenvalues --   -0.55356  -0.55238  -0.54930  -0.54827  -0.54804
 Alpha  occ. eigenvalues --   -0.54780  -0.54545  -0.54530  -0.54221  -0.54177
 Alpha  occ. eigenvalues --   -0.53982  -0.53845  -0.53747  -0.53201  -0.53073
 Alpha  occ. eigenvalues --   -0.53036  -0.52846  -0.52530  -0.52431  -0.52257
 Alpha  occ. eigenvalues --   -0.52091  -0.51984  -0.51919  -0.51838  -0.51713
 Alpha  occ. eigenvalues --   -0.51287  -0.51132  -0.51106  -0.50978  -0.50837
 Alpha  occ. eigenvalues --   -0.50687  -0.50557  -0.50443  -0.50296  -0.50073
 Alpha  occ. eigenvalues --   -0.50030  -0.49877  -0.49657  -0.49374  -0.49352
 Alpha  occ. eigenvalues --   -0.49105  -0.49042  -0.48647  -0.48541  -0.48515
 Alpha  occ. eigenvalues --   -0.48272  -0.48137  -0.48026  -0.48003  -0.47810
 Alpha  occ. eigenvalues --   -0.47681  -0.47393  -0.47191  -0.47032  -0.47019
 Alpha  occ. eigenvalues --   -0.46856  -0.46556  -0.46422  -0.46173  -0.46146
 Alpha  occ. eigenvalues --   -0.46024  -0.45735  -0.45568  -0.45525  -0.45461
 Alpha  occ. eigenvalues --   -0.45249  -0.45192  -0.44961  -0.44849  -0.44778
 Alpha  occ. eigenvalues --   -0.44677  -0.44569  -0.44558  -0.44433  -0.44307
 Alpha  occ. eigenvalues --   -0.43686  -0.43471  -0.43467  -0.43326  -0.43183
 Alpha  occ. eigenvalues --   -0.43130  -0.43035  -0.42899  -0.42550  -0.42418
 Alpha  occ. eigenvalues --   -0.42170  -0.41788  -0.41599  -0.41250  -0.40744
 Alpha  occ. eigenvalues --   -0.40339  -0.40271  -0.39907  -0.39836  -0.39190
 Alpha  occ. eigenvalues --   -0.39028  -0.38929  -0.38466  -0.38437  -0.38199
 Alpha  occ. eigenvalues --   -0.38113  -0.37767  -0.36937  -0.36435  -0.36370
 Alpha  occ. eigenvalues --   -0.35650  -0.35626  -0.35207  -0.33683  -0.33679
 Alpha  occ. eigenvalues --   -0.33567  -0.33384  -0.32746  -0.32538  -0.32252
 Alpha  occ. eigenvalues --   -0.32076  -0.31562  -0.31403  -0.26370  -0.25735
 Alpha  occ. eigenvalues --   -0.23102  -0.22751
 Alpha virt. eigenvalues --   -0.07232  -0.07064   0.00134   0.00813   0.02229
 Alpha virt. eigenvalues --    0.02406   0.04136   0.04178   0.04385   0.04942
 Alpha virt. eigenvalues --    0.06252   0.06549   0.07261   0.07842   0.08211

 Mulliken charges:
               1
     1  Mg   0.961542
     2  C   -0.077917
     3  C   -0.075663
     4  C   -0.093646
     5  C   -0.090634
     6  N   -0.325258
     7  C   -0.039746
     8  C   -0.084180
     9  C   -0.134506
    10  C    0.035199
    11  C    0.014972
    12  C    0.051681
    13  C   -0.096032
    14  H    0.020088
    15  N   -0.466737
    16  C    0.174943
    17  C   -0.161982
    18  C   -0.102412
    19  C    0.203933
    20  C    0.095612
    21  C    0.076283
    22  O   -0.234251
    23  C   -0.028244
    24  N   -0.403780
    25  C    0.073659
    26  C   -0.123944
    27  C   -0.024163
    28  C    0.034600
    29  C    0.024237
    30  C   -0.030049
    31  C   -0.054328
    32  N   -0.416110
    33  C    0.139431
    34  C   -0.160598
    35  C   -0.085671
    36  C    0.221613
    37  C    0.066491
    38  C    0.109112
    39  O   -0.181573
    40  C   -0.080031
    41  C    0.276560
    42  O   -0.220347
    43  O   -0.388383
    44  C    0.130534
    45  H    0.011117
    46  H   -0.019238
    47  H   -0.006836
    48  H    0.027121
    49  H    0.036893
    50  H    0.043194
    51  H    0.052279
    52  H    0.042797
    53  H    0.038864
    54  H    0.037786
    55  H    0.059731
    56  H    0.050971
    57  H    0.010352
    58  H    0.056822
    59  H    0.066784
    60  H    0.071355
    61  H    0.057921
    62  H    0.067755
    63  H    0.056369
    64  H    0.043685
    65  H    0.040220
    66  H    0.046053
    67  H    0.045466
    68  H    0.031784
    69  H    0.019302
    70  H    0.040241
    71  H    0.034403
    72  H    0.032240
    73  H    0.049984
    74  H    0.044129
    75  H    0.043815
    76  H    0.070645
    77  H    0.044819
    78  H    0.054716
    79  H    0.067632
    80  Mg   0.966437
    81  C   -0.049301
    82  C   -0.089733
    83  C   -0.059731
    84  C   -0.106184
    85  N   -0.317477
    86  C    0.011430
    87  C   -0.040638
    88  C   -0.105000
    89  C    0.050085
    90  C   -0.006357
    91  C   -0.008731
    92  C   -0.109989
    93  H    0.017438
    94  N   -0.387957
    95  C    0.163905
    96  C   -0.188283
    97  C   -0.059092
    98  C    0.115112
    99  C    0.051601
   100  C    0.080544
   101  O   -0.219462
   102  C   -0.036619
   103  N   -0.403481
   104  C    0.019064
   105  C   -0.074857
   106  C   -0.053948
   107  C    0.103456
   108  C    0.032773
   109  C   -0.056565
   110  C   -0.031324
   111  N   -0.481784
   112  C    0.161808
   113  C   -0.187038
   114  C   -0.019004
   115  C    0.160024
   116  C    0.089861
   117  C    0.119983
   118  O   -0.225961
   119  C   -0.061757
   120  C    0.258235
   121  O   -0.245723
   122  O   -0.357955
   123  C    0.145626
   124  H   -0.009907
   125  H    0.024477
   126  H    0.001068
   127  H    0.045214
   128  H    0.046284
   129  H    0.049121
   130  H    0.044989
   131  H    0.036568
   132  H    0.029763
   133  H    0.028499
   134  H    0.043480
   135  H    0.053008
   136  H    0.066320
   137  H    0.037655
   138  H    0.031099
   139  H    0.035872
   140  H    0.074534
   141  H    0.049209
   142  H    0.043640
   143  H    0.035687
   144  H    0.053022
   145  H    0.026334
   146  H    0.041718
   147  H    0.029377
   148  H    0.020468
   149  H    0.036548
   150  H    0.025295
   151  H    0.038949
   152  H    0.066809
   153  H    0.037217
   154  H    0.055754
   155  H    0.057923
   156  H    0.070438
   157  H    0.048302
   158  H    0.060361
 Sum of Mulliken charges =  -0.00000

 Dipole moment (field-independent basis, Debye):
    X=              1.6122    Y=              4.0770    Z=             -3.0536  Tot=              5.3428
 Quadrupole moment (field-independent basis, Debye-Ang):
   XX=           -419.8616   YY=           -570.8652   ZZ=           -484.1816
   XY=             14.0048   XZ=             52.1329   YZ=            -11.1638

 Normal termination of Gaussian 16 at Sun Sep 19 03:10:28 2021.
