 Gaussian 16, Revision A.03,
 Gaussian 16:  ES64L-G16RevA.03 25-Dec-2016

 --------------------------------
 #p wB97XD/Def2SVP td=(nstates=5)
 --------------------------------

 --------------------------------
 TDDFT excited states in gaussian
 --------------------------------
 Symbolic Z-matrix:
 Charge =  0 Multiplicity = 1

                         Standard orientation:
 ---------------------------------------------------------------------
 Center     Atomic      Atomic             Coordinates (Angstroms)
 Number     Number       Type             X           Y           Z
 ---------------------------------------------------------------------
      1         12           0       27.834281   -0.624221    0.197320
      2          6           0       25.666263    1.747042    1.414128
      3          6           0       29.596413    1.988446   -1.454494
      4          6           0       29.715845   -2.859788   -1.503158
      5          6           0       25.979067   -3.106958    1.479832
      6          7           0       27.638600    1.620985    0.005208
      7          6           0       26.639503    2.340356    0.604100
      8          6           0       26.836204    3.842194    0.385619
      9          6           0       28.000771    3.832972   -0.708940
     10          6           0       28.446534    2.400177   -0.732507
     11          6           0       27.580455    4.429726   -2.102109
     12          6           0       27.251021    4.633781    1.708909
     13          6           0       26.648946    5.966879    2.082734
     14          1           0       26.550740    7.017930    1.034781
     15          7           0       29.491745   -0.488213   -1.255365
     16          6           0       30.153260    0.625098   -1.640894
     17          6           0       31.326724    0.303754   -2.381955
     18          6           0       31.411820   -1.124306   -2.388812
     19          6           0       30.125976   -1.536304   -1.750690
     20          6           0       32.125308    1.418231   -2.977120
     21          6           0       32.422795   -2.013766   -3.092176
     22          8           0       32.236492   -3.223067   -3.259399
     23          6           0       33.710643   -1.423791   -3.639540
     24          7           0       27.761240   -2.729130   -0.118925
     25          6           0       28.735527   -3.423945   -0.763142
     26          6           0       28.557504   -4.926394   -0.551047
     27          6           0       27.445807   -4.974189    0.565028
     28          6           0       27.033382   -3.518691    0.662953
     29          6           0       28.314382   -5.888533   -1.751203
     30          6           0       27.845810   -5.650367    1.942413
     31          6           0       28.382499   -4.810241    3.081930
     32          7           0       26.130136   -0.716894    1.140637
     33          6           0       25.504902   -1.768569    1.761072
     34          6           0       24.307520   -1.400467    2.424399
     35          6           0       24.346105   -0.011054    2.361836
     36          6           0       25.481721    0.352788    1.593341
     37          6           0       23.242825   -2.193117    3.171441
     38          6           0       23.695601    1.175907    2.708392
     39          8           0       22.641804    1.310843    3.302576
     40          6           0       24.502921    2.450381    2.089778
     41          6           0       23.601876    3.153037    1.184658
     42          8           0       23.134360    2.700876    0.120721
     43          8           0       23.244877    4.387718    1.627339
     44          6           0       22.112615    5.069087    0.989785
     45          1           0       30.102761    2.875556   -1.839668
     46          1           0       30.467693   -3.593203   -1.801266
     47          1           0       25.578514   -3.825727    2.196712
     48          1           0       25.882191    4.271881    0.077463
     49          1           0       28.831136    4.473446   -0.411160
     50          1           0       28.236179    5.274435   -2.310480
     51          1           0       26.518068    4.649671   -1.995532
     52          1           0       27.769554    3.785664   -2.961439
     53          1           0       28.321474    4.762817    1.548004
     54          1           0       27.272807    3.968092    2.571098
     55          1           0       27.124360    6.350037    2.985631
     56          1           0       25.601340    5.759197    2.297646
     57          1           0       33.161045    1.169520   -2.748729
     58          1           0       31.916282    2.359309   -2.467810
     59          1           0       32.005288    1.579866   -4.048910
     60          1           0       34.187552   -0.704028   -2.973601
     61          1           0       33.561864   -1.118266   -4.676121
     62          1           0       34.395859   -2.271358   -3.673077
     63          1           0       29.546056   -5.243835   -0.218547
     64          1           0       26.616262   -5.631031    0.305983
     65          1           0       27.289735   -6.259687   -1.735841
     66          1           0       28.995254   -6.727731   -1.609846
     67          1           0       28.539110   -5.306734   -2.644456
     68          1           0       28.598062   -6.402271    1.707866
     69          1           0       26.982564   -6.166752    2.362846
     70          1           0       29.323623   -5.203111    3.467412
     71          1           0       27.688457   -4.713639    3.917898
     72          1           0       28.538010   -3.822495    2.647986
     73          1           0       23.528653   -3.245550    3.187503
     74          1           0       22.280565   -2.051726    2.678694
     75          1           0       23.177532   -1.808942    4.189015
     76          1           0       24.638952    3.045303    2.993384
     77          1           0       21.634023    5.819480    1.619190
     78          1           0       21.377555    4.418210    0.517295
     79          1           0       22.564739    5.707246    0.230391
     80         12           0      -27.758989   -0.669727   -0.031688
     81          6           0      -26.064645    2.338314   -1.156352
     82          6           0      -28.579285    1.104147    2.715197
     83          6           0      -29.191740   -3.344777    0.965366
     84          6           0      -26.468689   -2.361242   -2.862019
     85          7           0      -27.351095    1.595915    0.678266
     86          6           0      -26.743268    2.597162    0.018793
     87          6           0      -26.930424    3.925339    0.776746
     88          6           0      -27.333984    3.299017    2.192158
     89          6           0      -27.834519    1.960002    1.845653
     90          6           0      -26.370174    3.463676    3.355311
     91          6           0      -28.005823    4.757773    0.057380
     92          6           0      -27.851484    6.287682    0.302723
     93          1           0      -26.550758    6.940537    0.963635
     94          7           0      -28.821192   -1.091617    1.629761
     95          6           0      -28.997633   -0.265358    2.723061
     96          6           0      -29.725410   -1.017191    3.740862
     97          6           0      -29.981486   -2.305468    3.209848
     98          6           0      -29.309247   -2.275697    1.879997
     99          6           0      -30.091045   -0.486724    5.055345
    100          6           0      -30.822625   -3.538821    3.832253
    101          8           0      -31.094244   -4.507735    3.177402
    102          6           0      -31.568242   -3.408554    5.172526
    103          7           0      -27.579238   -2.649201   -0.722893
    104          6           0      -28.417942   -3.540826   -0.201289
    105          6           0      -28.455258   -4.858346   -0.927940
    106          6           0      -27.924681   -4.391080   -2.305340
    107          6           0      -27.142264   -3.103651   -1.872313
    108          6           0      -27.523366   -5.989816   -0.288038
    109          6           0      -29.016163   -4.154123   -3.431745
    110          6           0      -30.335344   -4.980051   -3.420445
    111          7           0      -26.451306   -0.208839   -1.609801
    112          6           0      -26.062071   -0.920460   -2.696468
    113          6           0      -25.372447   -0.131719   -3.613754
    114          6           0      -25.320402    1.096948   -3.019837
    115          6           0      -25.993520    1.052946   -1.814916
    116          6           0      -24.875570   -0.576076   -4.986715
    117          6           0      -24.824316    2.459003   -3.267709
    118          8           0      -24.060478    2.930427   -4.096775
    119          6           0      -25.390816    3.320099   -2.055806
    120          6           0      -24.273025    4.043854   -1.475892
    121          8           0      -23.410012    3.593408   -0.715747
    122          8           0      -24.193688    5.225355   -2.122876
    123          6           0      -22.916781    5.886085   -1.920322
    124          1           0      -28.682405    1.621549    3.671371
    125          1           0      -29.658685   -4.250473    1.356542
    126          1           0      -26.175474   -2.900820   -3.764776
    127          1           0      -25.982659    4.445944    0.914482
    128          1           0      -28.201676    3.866793    2.525292
    129          1           0      -26.770737    4.115927    4.130749
    130          1           0      -25.423373    3.873858    3.004507
    131          1           0      -26.071109    2.524827    3.821437
    132          1           0      -28.964735    4.507667    0.511839
    133          1           0      -28.101917    4.536745   -1.005481
    134          1           0      -28.728410    6.707733    0.796373
    135          1           0      -28.059392    6.690532   -0.688434
    136          1           0      -30.147863    0.601579    5.050780
    137          1           0      -29.310008   -0.839038    5.729327
    138          1           0      -31.061354   -0.826627    5.418040
    139          1           0      -32.388671   -2.691247    5.152230
    140          1           0      -30.779192   -3.245921    5.907054
    141          1           0      -31.960442   -4.380559    5.472812
    142          1           0      -29.505667   -5.140197   -0.859141
    143          1           0      -27.203940   -5.081751   -2.742388
    144          1           0      -28.193675   -6.849036   -0.290085
    145          1           0      -27.203320   -5.785367    0.734266
    146          1           0      -26.639520   -6.258384   -0.865388
    147          1           0      -28.536096   -4.249023   -4.404687
    148          1           0      -29.339424   -3.143134   -3.183103
    149          1           0      -31.080800   -4.496167   -2.789838
    150          1           0      -30.004843   -5.972933   -3.113404
    151          1           0      -30.743318   -5.118615   -4.421075
    152          1           0      -25.576826   -1.353437   -5.291039
    153          1           0      -23.895657   -1.051566   -4.956264
    154          1           0      -24.898425    0.286303   -5.652716
    155          1           0      -26.122086    4.006861   -2.483926
    156          1           0      -22.829025    6.831247   -2.455349
    157          1           0      -22.025336    5.265570   -2.013383
    158          1           0      -22.824793    6.224114   -0.887576
 ---------------------------------------------------------------------

 SCF Done:  E(RwB97XD) =  -4070.60717420     A.U. after   19 cycles

 Excitation energies and oscillator strengths:

 Excited State   1:      Singlet-A      1.6604 eV  746.69 nm  f=0.4160  <S**2>=0.000
     309 -> 315        0.18409
     311 -> 313        0.68432
     309 <- 315        0.11634
 This state for optimization and/or second-order correction.
 Total Energy, E(TD-HF/TD-DFT) =  -4070.54615394
 Copying the excited state density for this state as the 1-particle RhoCI density.

 Excited State   2:      Singlet-A      1.7989 eV  689.21 nm  f=0.3711  <S**2>=0.000
     310 -> 316       -0.19144
     312 -> 314        0.67946
     310 <- 316       -0.11149

 Excited State   3:      Singlet-A      2.1344 eV  580.89 nm  f=0.1697  <S**2>=0.000
     309 -> 313        0.66025
     311 -> 315       -0.24165

 Excited State   4:      Singlet-A      2.1925 eV  565.50 nm  f=0.1527  <S**2>=0.000
     310 -> 314        0.65251
     312 -> 316        0.25639

 Excited State   5:      Singlet-A      3.4420 eV  360.21 nm  f=0.0031  <S**2>=0.000
     305 -> 317       -0.16943
     307 -> 313        0.65320

 The electronic state is 1-A.
 Alpha  occ. eigenvalues --  -46.95665 -46.95429 -19.30260 -19.30072 -19.25568
 Alpha  occ. eigenvalues --  -19.23914 -19.23831 -19.23668 -19.23633 -19.23460
 Alpha  occ. eigenvalues --  -14.46694 -14.46105 -14.46050 -14.45639 -14.44536
 Alpha  occ. eigenvalues --  -14.44147 -14.44071 -14.43176 -10.42759 -10.42000
 Alpha  occ. eigenvalues --  -10.41002 -10.39344 -10.38771 -10.38518 -10.35396
 Alpha  occ. eigenvalues --  -10.35340 -10.35066 -10.34882 -10.34831 -10.34822
 Alpha  occ. eigenvalues --  -10.34673 -10.34388 -10.34228 -10.34133 -10.34111
 Alpha  occ. eigenvalues --  -10.34103 -10.33873 -10.33630 -10.33541 -10.33537
 Alpha  occ. eigenvalues --  -10.33178 -10.32977 -10.32686 -10.32515 -10.32510
 Alpha  occ. eigenvalues --  -10.32509 -10.32330 -10.32300 -10.32099 -10.32074
 Alpha  occ. eigenvalues --  -10.32030 -10.32022 -10.31958 -10.31765 -10.31636
 Alpha  occ. eigenvalues --  -10.31609 -10.31584 -10.31532 -10.31510 -10.31424
 Alpha  occ. eigenvalues --  -10.31409 -10.31340 -10.31282 -10.31256 -10.31102
 Alpha  occ. eigenvalues --  -10.31025 -10.30846 -10.30796 -10.30633 -10.30488
 Alpha  occ. eigenvalues --  -10.30272 -10.30138 -10.30107 -10.30048 -10.29923
 Alpha  occ. eigenvalues --  -10.29911 -10.29847 -10.29551 -10.29432 -10.29399
 Alpha  occ. eigenvalues --  -10.29340 -10.29226 -10.29014 -10.28825 -10.28623
 Alpha  occ. eigenvalues --  -10.27656  -3.21619  -3.21481  -1.95209  -1.95054
 Alpha  occ. eigenvalues --   -1.94759  -1.94569  -1.94567  -1.94495  -1.18620
 Alpha  occ. eigenvalues --   -1.18009  -1.14862  -1.12107  -1.11678  -1.11615
 Alpha  occ. eigenvalues --   -1.08771  -1.08004  -1.07775  -1.07384  -1.07200
 Alpha  occ. eigenvalues --   -1.06701  -1.06680  -1.06146  -1.05491  -1.05392
 Alpha  occ. eigenvalues --   -0.94571  -0.94264  -0.91149  -0.90935  -0.90584
 Alpha  occ. eigenvalues --   -0.90092  -0.90043  -0.89929  -0.89708  -0.89477
 Alpha  occ. eigenvalues --   -0.89353  -0.88800  -0.88354  -0.87458  -0.86269
 Alpha  occ. eigenvalues --   -0.86200  -0.85641  -0.84973  -0.84550  -0.84235
 Alpha  occ. eigenvalues --   -0.83861  -0.83758  -0.83094  -0.82636  -0.82263
 Alpha  occ. eigenvalues --   -0.82038  -0.80601  -0.80340  -0.79388  -0.79016
 Alpha  occ. eigenvalues --   -0.78705  -0.78503  -0.78145  -0.77612  -0.77414
 Alpha  occ. eigenvalues --   -0.77171  -0.75518  -0.74685  -0.73605  -0.73508
 Alpha  occ. eigenvalues --   -0.71569  -0.71532  -0.71196  -0.70685  -0.70077
 Alpha  occ. eigenvalues --   -0.69545  -0.69109  -0.68789  -0.67540  -0.67368
 Alpha  occ. eigenvalues --   -0.67091  -0.67019  -0.66711  -0.66585  -0.66188
 Alpha  occ. eigenvalues --   -0.65634  -0.64217  -0.63748  -0.62848  -0.62187
 Alpha  occ. eigenvalues --   -0.61788  -0.61449  -0.61199  -0.61046  -0.60344
 Alpha  occ. eigenvalues --   -0.60255  -0.59862  -0.59826  -0.59445  -0.59262
 Alpha  occ. eigenvalues --   -0.58560  -0.58221  -0.57371  -0.57313  -0.57118
 Alpha  occ. eigenvalues --   -0.56982  -0.56760  -0.56497  -0.55971  -0.55957
 Alpha  occ. eigenvalues --   -0.55740  -0.55518  -0.55210  -0.55074  -0.54923
 Alpha  occ. eigenvalues --   -0.54828  -0.54728  -0.54468  -0.54154  -0.54153
 Alpha  occ. eigenvalues --   -0.54000  -0.53647  -0.53381  -0.53185  -0.53039
 Alpha  occ. eigenvalues --   -0.52668  -0.52609  -0.52510  -0.52381  -0.52176
 Alpha  occ. eigenvalues --   -0.51908  -0.51783  -0.51619  -0.51445  -0.51145
 Alpha  occ. eigenvalues --   -0.51035  -0.50991  -0.50856  -0.50713  -0.50670
 Alpha  occ. eigenvalues --   -0.50655  -0.50496  -0.50484  -0.50249  -0.50151
 Alpha  occ. eigenvalues --   -0.49769  -0.49758  -0.49485  -0.49393  -0.49288
 Alpha  occ. eigenvalues --   -0.49077  -0.48906  -0.48781  -0.48639  -0.48407
 Alpha  occ. eigenvalues --   -0.48132  -0.48076  -0.47868  -0.47784  -0.47650
 Alpha  occ. eigenvalues --   -0.47324  -0.47215  -0.46937  -0.46788  -0.46526
 Alpha  occ. eigenvalues --   -0.46437  -0.46414  -0.46196  -0.45964  -0.45842
 Alpha  occ. eigenvalues --   -0.45824  -0.45813  -0.45719  -0.45537  -0.45273
 Alpha  occ. eigenvalues --   -0.45229  -0.45156  -0.45150  -0.44909  -0.44871
 Alpha  occ. eigenvalues --   -0.44561  -0.44350  -0.44191  -0.44167  -0.43959
 Alpha  occ. eigenvalues --   -0.43890  -0.43774  -0.43436  -0.43319  -0.43211
 Alpha  occ. eigenvalues --   -0.43195  -0.43015  -0.42476  -0.42262  -0.41907
 Alpha  occ. eigenvalues --   -0.41738  -0.41604  -0.41437  -0.41201  -0.40572
 Alpha  occ. eigenvalues --   -0.40393  -0.40138  -0.40131  -0.39980  -0.39386
 Alpha  occ. eigenvalues --   -0.39257  -0.38642  -0.38630  -0.38025  -0.37879
 Alpha  occ. eigenvalues --   -0.37657  -0.37618  -0.36530  -0.36120  -0.35636
 Alpha  occ. eigenvalues --   -0.35400  -0.35062  -0.34665  -0.33936  -0.33720
 Alpha  occ. eigenvalues --   -0.33519  -0.33230  -0.33013  -0.32810  -0.32431
 Alpha  occ. eigenvalues --   -0.32284  -0.32237  -0.31564  -0.25728  -0.25280
 Alpha  occ. eigenvalues --   -0.23256  -0.23188
 Alpha virt. eigenvalues --   -0.07442  -0.06566   0.00745   0.00861   0.02330
 Alpha virt. eigenvalues --    0.02640   0.04576   0.04788   0.04958   0.05593
 Alpha virt. eigenvalues --    0.06785   0.06892   0.07937   0.08574   0.08665

 Mulliken charges:
               1
     1  Mg   0.974620
     2  C   -0.004332
     3  C   -0.064867
     4  C   -0.065497
     5  C   -0.074933
     6  N   -0.330609
     7  C    0.000548
     8  C   -0.084369
     9  C   -0.117804
    10  C    0.051509
    11  C    0.025240
    12  C    0.010856
    13  C   -0.102324
    14  H    0.032763
    15  N   -0.356567
    16  C    0.128963
    17  C   -0.163843
    18  C   -0.075494
    19  C    0.100101
    20  C    0.082278
    21  C    0.043278
    22  O   -0.246917
    23  C   -0.017082
    24  N   -0.351547
    25  C    0.050033
    26  C   -0.080511
    27  C   -0.041630
    28  C    0.061733
    29  C    0.035318
    30  C   -0.057974
    31  C   -0.043050
    32  N   -0.478585
    33  C    0.099341
    34  C   -0.189117
    35  C    0.041005
    36  C    0.138314
    37  C    0.096923
    38  C    0.037778
    39  O   -0.207891
    40  C   -0.055875
    41  C    0.260029
    42  O   -0.281246
    43  O   -0.359716
    44  C    0.146661
    45  H   -0.010903
    46  H    0.017278
    47  H   -0.000410
    48  H    0.049026
    49  H    0.042615
    50  H    0.031651
    51  H    0.050446
    52  H    0.040582
    53  H    0.012366
    54  H    0.032278
    55  H    0.055992
    56  H    0.054311
    57  H    0.030596
    58  H    0.036788
    59  H    0.063560
    60  H    0.053806
    61  H    0.071508
    62  H    0.050404
    63  H    0.036323
    64  H    0.036898
    65  H    0.036532
    66  H    0.040336
    67  H    0.051426
    68  H    0.029684
    69  H    0.029354
    70  H    0.038427
    71  H    0.037285
    72  H    0.035910
    73  H    0.026403
    74  H    0.066855
    75  H    0.060959
    76  H    0.060645
    77  H    0.053418
    78  H    0.075508
    79  H    0.036636
    80  Mg   0.963033
    81  C   -0.002564
    82  C   -0.069654
    83  C   -0.087088
    84  C   -0.078702
    85  N   -0.252412
    86  C   -0.062683
    87  C   -0.061949
    88  C   -0.088931
    89  C    0.000210
    90  C    0.039643
    91  C    0.010105
    92  C   -0.092279
    93  H    0.048531
    94  N   -0.472807
    95  C    0.161664
    96  C   -0.161831
    97  C   -0.088171
    98  C    0.122068
    99  C    0.059478
   100  C    0.076560
   101  O   -0.197396
   102  C   -0.024063
   103  N   -0.321580
   104  C    0.065129
   105  C   -0.102413
   106  C   -0.113741
   107  C    0.058341
   108  C    0.030261
   109  C   -0.010577
   110  C   -0.052948
   111  N   -0.409995
   112  C    0.090307
   113  C   -0.219066
   114  C   -0.051412
   115  C    0.154957
   116  C    0.095810
   117  C    0.138581
   118  O   -0.197762
   119  C   -0.093024
   120  C    0.252631
   121  O   -0.272117
   122  O   -0.331222
   123  C    0.153252
   124  H   -0.010553
   125  H    0.011927
   126  H    0.003388
   127  H    0.040484
   128  H    0.017713
   129  H    0.039838
   130  H    0.042839
   131  H    0.036632
   132  H    0.031784
   133  H    0.048013
   134  H    0.038510
   135  H    0.037335
   136  H    0.044142
   137  H    0.065946
   138  H    0.040866
   139  H    0.086358
   140  H    0.045199
   141  H    0.050793
   142  H    0.043767
   143  H    0.017536
   144  H    0.041929
   145  H    0.045912
   146  H    0.042529
   147  H    0.037405
   148  H    0.027789
   149  H    0.050445
   150  H    0.034817
   151  H    0.039875
   152  H    0.025442
   153  H    0.053081
   154  H    0.055814
   155  H    0.073309
   156  H    0.049845
   157  H    0.060940
   158  H    0.024180
 Sum of Mulliken charges =  -0.00000

 Dipole moment (field-independent basis, Debye):
    X=             -0.7460    Y=              1.9347    Z=              5.0285  Tot=              5.4393
 Quadrupole moment (field-independent basis, Debye-Ang):
   XX=            -39.4900   YY=           -466.4878   ZZ=           -498.9626
   XY=             40.3626   XZ=            -76.5704   YZ=              0.9579

 Normal termination of Gaussian 16 at Mon Sep 20 20:49:16 2021.
