 Gaussian 16, Revision A.03,
 Gaussian 16:  ES64L-G16RevA.03 25-Dec-2016

 --------------------------------
 #p wB97XD/Def2SVP td=(nstates=5)
 --------------------------------

 --------------------------------
 TDDFT excited states in gaussian
 --------------------------------
 Symbolic Z-matrix:
 Charge =  0 Multiplicity = 1

                         Standard orientation:
 ---------------------------------------------------------------------
 Center     Atomic      Atomic             Coordinates (Angstroms)
 Number     Number       Type             X           Y           Z
 ---------------------------------------------------------------------
      1         12           0       20.842979    0.227546    0.292298
      2          6           0       17.864421   -1.444505    0.340306
      3          6           0       22.411837   -2.899716   -0.356963
      4          6           0       23.746879    1.886379   -0.156642
      5          6           0       19.113818    3.238057    0.002539
      6          7           0       20.110715   -1.955798   -0.361636
      7          6           0       18.867433   -2.390294   -0.012094
      8          6           0       18.744288   -3.862315   -0.293051
      9          6           0       20.238171   -4.340978   -0.555235
     10          6           0       21.034903   -3.005574   -0.413448
     11          6           0       20.633547   -5.637880    0.050773
     12          6           0       17.673024   -4.382718   -1.364012
     13          6           0       17.348812   -3.496799   -2.530203
     14          1           0       17.363352   -4.137756   -3.910875
     15          7           0       22.819257   -0.446998    0.049876
     16          6           0       23.258337   -1.716667   -0.164380
     17          6           0       24.680031   -1.774264   -0.334948
     18          6           0       25.111996   -0.359557   -0.157982
     19          6           0       23.868389    0.436843   -0.071780
     20          6           0       25.520608   -2.936548   -0.572653
     21          6           0       26.523421    0.204863   -0.082732
     22          8           0       27.455823   -0.477677   -0.320359
     23          6           0       26.900932    1.636397    0.179981
     24          7           0       21.330094    2.217782   -0.154443
     25          6           0       22.599810    2.648510   -0.103029
     26          6           0       22.688905    4.213977   -0.500980
     27          6           0       21.207743    4.652041   -0.060845
     28          6           0       20.521607    3.308530   -0.129955
     29          6           0       23.794355    5.016388    0.190975
     30          6           0       20.645623    5.800966   -0.917366
     31          6           0       19.982496    7.017291   -0.260364
     32          7           0       18.881510    0.798175    0.079383
     33          6           0       18.286735    2.051945    0.011721
     34          6           0       16.881521    1.966292    0.109806
     35          6           0       16.624002    0.618323    0.297486
     36          6           0       17.883815   -0.078534    0.273554
     37          6           0       15.889787    3.088304    0.103744
     38          6           0       15.689343   -0.398006    0.549220
     39          8           0       14.470672   -0.276991    0.656338
     40          6           0       16.393691   -1.778428    0.418110
     41          6           0       15.973496   -2.501685    1.689190
     42          8           0       15.461865   -3.641216    1.710977
     43          8           0       16.392166   -1.740019    2.754633
     44          6           0       16.370504   -2.252862    4.146395
     45          1           0       22.813619   -3.863407   -0.676652
     46          1           0       24.646579    2.400339   -0.501025
     47          1           0       18.583443    4.192019   -0.017348
     48          1           0       18.343786   -4.348961    0.597014
     49          1           0       20.311720   -4.509008   -1.629304
     50          1           0       21.581078   -5.594981    0.587712
     51          1           0       20.585407   -6.459214   -0.664223
     52          1           0       19.921030   -5.900342    0.832837
     53          1           0       16.684247   -4.582237   -0.950795
     54          1           0       18.068409   -5.263375   -1.871153
     55          1           0       17.844147   -2.526492   -2.518425
     56          1           0       16.282948   -3.274810   -2.468208
     57          1           0       25.062596   -3.802310   -0.095363
     58          1           0       26.541126   -2.830501   -0.206624
     59          1           0       25.548139   -3.085503   -1.652679
     60          1           0       26.049728    1.841325    0.829694
     61          1           0       26.867503    2.255883   -0.715700
     62          1           0       27.858602    1.817763    0.668186
     63          1           0       22.739569    4.237296   -1.589976
     64          1           0       21.039561    4.963046    0.969923
     65          1           0       23.308586    5.638649    0.943083
     66          1           0       24.441582    5.486514   -0.548844
     67          1           0       24.496926    4.391386    0.741414
     68          1           0       19.916188    5.354066   -1.593397
     69          1           0       21.433680    6.124151   -1.597693
     70          1           0       20.295118    8.014152   -0.571598
     71          1           0       19.969918    6.958611    0.828771
     72          1           0       18.928435    6.830654   -0.463350
     73          1           0       15.014522    2.926864    0.733451
     74          1           0       15.556096    3.246690   -0.922025
     75          1           0       16.297082    4.025622    0.485002
     76          1           0       15.949033   -2.188055   -0.488037
     77          1           0       17.239966   -1.937230    4.722771
     78          1           0       16.345588   -3.341903    4.104800
     79          1           0       15.543701   -2.014568    4.814339
     80         12           0      -20.030942    0.832574    0.547221
     81          6           0      -20.031230   -2.696659    0.169110
     82          6           0      -16.946673    0.856783   -1.081834
     83          6           0      -20.627319    3.997923   -0.131783
     84          6           0      -23.402318    0.454527    1.923765
     85          7           0      -18.748669   -0.793249   -0.592202
     86          6           0      -18.842552   -2.124195   -0.349545
     87          6           0      -17.578278   -2.813049   -0.831156
     88          6           0      -16.490013   -1.753047   -0.659990
     89          6           0      -17.437013   -0.459483   -0.841331
     90          6           0      -15.757159   -1.668296    0.680190
     91          6           0      -17.807982   -3.385043   -2.297750
     92          6           0      -17.292605   -4.761856   -2.451706
     93          1           0      -16.548139   -5.103312   -3.757135
     94          7           0      -18.957396    2.292884   -0.528594
     95          6           0      -17.654469    2.114807   -1.056480
     96          6           0      -17.255813    3.391444   -1.593549
     97          6           0      -18.230706    4.374865   -1.278434
     98          6           0      -19.356419    3.603304   -0.640989
     99          6           0      -15.923885    3.547768   -2.320503
    100          6           0      -18.184170    5.803440   -1.653352
    101          8           0      -17.219575    6.216511   -2.285062
    102          6           0      -19.246448    6.828723   -1.427732
    103          7           0      -21.897676    2.039709    0.796214
    104          6           0      -21.714095    3.360262    0.598214
    105          6           0      -22.926993    4.160270    1.106850
    106          6           0      -23.791269    3.047057    1.927801
    107          6           0      -22.990087    1.763939    1.586862
    108          6           0      -22.556776    5.499438    1.889882
    109          6           0      -25.310450    2.981302    1.575870
    110          6           0      -25.778952    1.874553    0.570651
    111          7           0      -21.403710   -0.697020    0.966386
    112          6           0      -22.688586   -0.683940    1.580214
    113          6           0      -23.084827   -2.122889    1.906089
    114          6           0      -22.080059   -2.871977    1.314869
    115          6           0      -21.092700   -1.966240    0.784872
    116          6           0      -24.300529   -2.730342    2.632240
    117          6           0      -21.606227   -4.203038    1.104258
    118          8           0      -22.053373   -5.281200    1.498871
    119          6           0      -20.396461   -4.066240    0.250445
    120          6           0      -20.878950   -4.591187   -1.121134
    121          8           0      -21.558427   -3.990660   -1.950982
    122          8           0      -20.453613   -5.944679   -1.225182
    123          6           0      -20.874700   -6.691187   -2.340418
    124          1           0      -15.940616    0.930525   -1.500318
    125          1           0      -20.652703    5.083208   -0.248126
    126          1           0      -24.326479    0.239981    2.463184
    127          1           0      -17.259349   -3.630355   -0.184493
    128          1           0      -15.644855   -1.713026   -1.346204
    129          1           0      -15.836442   -2.572550    1.282942
    130          1           0      -15.958747   -0.725614    1.189516
    131          1           0      -14.713418   -1.624986    0.366853
    132          1           0      -17.259349   -2.760773   -3.003091
    133          1           0      -18.824540   -3.262910   -2.671789
    134          1           0      -18.202217   -5.349224   -2.331604
    135          1           0      -16.605289   -4.962299   -1.629942
    136          1           0      -15.171183    4.060681   -1.722105
    137          1           0      -16.105730    4.026768   -3.281469
    138          1           0      -15.502821    2.569306   -2.552078
    139          1           0      -19.315510    7.015860   -0.355857
    140          1           0      -20.237552    6.579334   -1.808679
    141          1           0      -18.924819    7.817358   -1.752972
    142          1           0      -23.470325    4.384763    0.189222
    143          1           0      -23.632693    3.204785    2.994074
    144          1           0      -21.573292    5.866320    1.596513
    145          1           0      -22.672211    5.529241    2.973993
    146          1           0      -23.396824    6.151239    1.644874
    147          1           0      -25.694754    3.934886    1.214719
    148          1           0      -25.756168    2.749642    2.542919
    149          1           0      -26.595304    2.457610    0.143726
    150          1           0      -26.174122    0.943853    0.978349
    151          1           0      -24.977674    1.728845   -0.154086
    152          1           0      -23.986710   -3.325463    3.489114
    153          1           0      -24.559323   -3.453464    1.859381
    154          1           0      -25.041777   -1.939988    2.748510
    155          1           0      -19.611765   -4.723927    0.624518
    156          1           0      -20.525350   -7.724340   -2.354469
    157          1           0      -20.484035   -6.195982   -3.228485
    158          1           0      -21.963956   -6.669795   -2.296037
 ---------------------------------------------------------------------

 SCF Done:  E(RwB97XD) =  -4070.51364018     A.U. after   20 cycles

 Excitation energies and oscillator strengths:

 Excited State   1:      Singlet-A      1.5769 eV  786.23 nm  f=0.3941  <S**2>=0.000
     309 -> 316       -0.17492
     311 -> 313        0.68646
     309 <- 316       -0.11856
 This state for optimization and/or second-order correction.
 Total Energy, E(TD-HF/TD-DFT) =  -4070.45568855
 Copying the excited state density for this state as the 1-particle RhoCI density.

 Excited State   2:      Singlet-A      1.6239 eV  763.49 nm  f=0.3475  <S**2>=0.000
     310 -> 315       -0.20430
     312 -> 314        0.67793
     310 <- 315       -0.12288

 Excited State   3:      Singlet-A      2.0921 eV  592.63 nm  f=0.1436  <S**2>=0.000
     309 -> 313        0.64988
     311 -> 316        0.25886

 Excited State   4:      Singlet-A      2.1335 eV  581.12 nm  f=0.0543  <S**2>=0.000
     310 -> 314        0.61271
     312 -> 315        0.34226

 Excited State   5:      Singlet-A      3.0081 eV  412.17 nm  f=0.0074  <S**2>=0.000
     307 -> 313        0.21767
     308 -> 313        0.63590
     308 -> 318        0.12458

 The electronic state is 1-A.
 Alpha  occ. eigenvalues --  -46.97644 -46.96318 -19.31499 -19.29936 -19.26329
 Alpha  occ. eigenvalues --  -19.25348 -19.23978 -19.23628 -19.22553 -19.22200
 Alpha  occ. eigenvalues --  -14.47195 -14.46978 -14.46667 -14.46499 -14.44819
 Alpha  occ. eigenvalues --  -14.44629 -14.44329 -14.44305 -10.44487 -10.44417
 Alpha  occ. eigenvalues --  -10.38569 -10.38372 -10.38044 -10.37483 -10.36591
 Alpha  occ. eigenvalues --  -10.36164 -10.35836 -10.35678 -10.35445 -10.35442
 Alpha  occ. eigenvalues --  -10.35342 -10.35032 -10.35030 -10.34941 -10.34877
 Alpha  occ. eigenvalues --  -10.34849 -10.34756 -10.34713 -10.34169 -10.34101
 Alpha  occ. eigenvalues --  -10.33557 -10.33475 -10.33464 -10.33061 -10.32973
 Alpha  occ. eigenvalues --  -10.32823 -10.32596 -10.32561 -10.32526 -10.32436
 Alpha  occ. eigenvalues --  -10.32423 -10.32383 -10.32380 -10.32246 -10.32146
 Alpha  occ. eigenvalues --  -10.32012 -10.31936 -10.31926 -10.31891 -10.31764
 Alpha  occ. eigenvalues --  -10.31630 -10.31610 -10.31596 -10.31577 -10.31442
 Alpha  occ. eigenvalues --  -10.31296 -10.31159 -10.31057 -10.31029 -10.30770
 Alpha  occ. eigenvalues --  -10.30769 -10.30725 -10.30710 -10.30657 -10.30224
 Alpha  occ. eigenvalues --  -10.30201 -10.30148 -10.30082 -10.29929 -10.29640
 Alpha  occ. eigenvalues --  -10.29611 -10.29500 -10.29163 -10.29026 -10.29019
 Alpha  occ. eigenvalues --  -10.28955  -3.23348  -3.22253  -1.96863  -1.96509
 Alpha  occ. eigenvalues --   -1.96261  -1.95794  -1.95408  -1.95193  -1.17973
 Alpha  occ. eigenvalues --   -1.17910  -1.13595  -1.11834  -1.11675  -1.11529
 Alpha  occ. eigenvalues --   -1.10842  -1.09510  -1.07230  -1.06450  -1.06193
 Alpha  occ. eigenvalues --   -1.05427  -1.04953  -1.04851  -1.04181  -1.03280
 Alpha  occ. eigenvalues --   -0.96389  -0.95765  -0.91737  -0.91011  -0.90647
 Alpha  occ. eigenvalues --   -0.90609  -0.90333  -0.89932  -0.89668  -0.89206
 Alpha  occ. eigenvalues --   -0.89190  -0.88772  -0.87808  -0.87488  -0.86675
 Alpha  occ. eigenvalues --   -0.86474  -0.85931  -0.85555  -0.85027  -0.84595
 Alpha  occ. eigenvalues --   -0.84117  -0.83541  -0.82959  -0.82792  -0.82573
 Alpha  occ. eigenvalues --   -0.82220  -0.80487  -0.79970  -0.79772  -0.79177
 Alpha  occ. eigenvalues --   -0.78936  -0.78783  -0.78674  -0.77947  -0.77455
 Alpha  occ. eigenvalues --   -0.77136  -0.75611  -0.74728  -0.73811  -0.73765
 Alpha  occ. eigenvalues --   -0.71990  -0.71824  -0.71403  -0.70701  -0.70373
 Alpha  occ. eigenvalues --   -0.69233  -0.68801  -0.68585  -0.68223  -0.67530
 Alpha  occ. eigenvalues --   -0.67288  -0.66900  -0.66715  -0.66678  -0.66533
 Alpha  occ. eigenvalues --   -0.66403  -0.65625  -0.64201  -0.62306  -0.61904
 Alpha  occ. eigenvalues --   -0.61748  -0.61477  -0.61253  -0.60877  -0.60844
 Alpha  occ. eigenvalues --   -0.60252  -0.60072  -0.59598  -0.59233  -0.58995
 Alpha  occ. eigenvalues --   -0.58524  -0.58079  -0.57919  -0.57822  -0.57602
 Alpha  occ. eigenvalues --   -0.57282  -0.57087  -0.56836  -0.56492  -0.56419
 Alpha  occ. eigenvalues --   -0.55980  -0.55618  -0.55304  -0.55284  -0.55111
 Alpha  occ. eigenvalues --   -0.54956  -0.54551  -0.54447  -0.54073  -0.54068
 Alpha  occ. eigenvalues --   -0.53875  -0.53773  -0.53751  -0.53591  -0.53347
 Alpha  occ. eigenvalues --   -0.53313  -0.53230  -0.53063  -0.52664  -0.52568
 Alpha  occ. eigenvalues --   -0.52461  -0.52072  -0.51932  -0.51884  -0.51649
 Alpha  occ. eigenvalues --   -0.51471  -0.51380  -0.51148  -0.51143  -0.50963
 Alpha  occ. eigenvalues --   -0.50888  -0.50407  -0.50163  -0.50157  -0.49839
 Alpha  occ. eigenvalues --   -0.49684  -0.49501  -0.49382  -0.49308  -0.49173
 Alpha  occ. eigenvalues --   -0.49098  -0.49059  -0.48838  -0.48755  -0.48395
 Alpha  occ. eigenvalues --   -0.48082  -0.47994  -0.47882  -0.47809  -0.47780
 Alpha  occ. eigenvalues --   -0.47596  -0.47489  -0.47343  -0.47283  -0.47212
 Alpha  occ. eigenvalues --   -0.47041  -0.46985  -0.46836  -0.46470  -0.46351
 Alpha  occ. eigenvalues --   -0.46143  -0.46005  -0.45957  -0.45780  -0.45426
 Alpha  occ. eigenvalues --   -0.45324  -0.45194  -0.45002  -0.44971  -0.44681
 Alpha  occ. eigenvalues --   -0.44569  -0.44393  -0.44326  -0.44065  -0.43954
 Alpha  occ. eigenvalues --   -0.43951  -0.43668  -0.43472  -0.43434  -0.43289
 Alpha  occ. eigenvalues --   -0.43223  -0.42942  -0.42851  -0.42473  -0.42312
 Alpha  occ. eigenvalues --   -0.42198  -0.41933  -0.41048  -0.40962  -0.40648
 Alpha  occ. eigenvalues --   -0.40478  -0.40161  -0.39966  -0.39861  -0.39608
 Alpha  occ. eigenvalues --   -0.39457  -0.38998  -0.38578  -0.38296  -0.38172
 Alpha  occ. eigenvalues --   -0.37701  -0.37556  -0.37161  -0.36821  -0.36207
 Alpha  occ. eigenvalues --   -0.35872  -0.35595  -0.35338  -0.33819  -0.33513
 Alpha  occ. eigenvalues --   -0.33086  -0.32964  -0.32694  -0.32600  -0.32123
 Alpha  occ. eigenvalues --   -0.31611  -0.31546  -0.30415  -0.26404  -0.25945
 Alpha  occ. eigenvalues --   -0.23540  -0.22814
 Alpha virt. eigenvalues --   -0.08057  -0.06863  -0.00710  -0.00040   0.01872
 Alpha virt. eigenvalues --    0.02318   0.02946   0.04059   0.04334   0.04814
 Alpha virt. eigenvalues --    0.06633   0.06871   0.07341   0.07591   0.08435

 Mulliken charges:
               1
     1  Mg   0.958465
     2  C    0.008189
     3  C   -0.083335
     4  C   -0.083935
     5  C   -0.096693
     6  N   -0.330879
     7  C   -0.005357
     8  C   -0.018868
     9  C   -0.091840
    10  C    0.035647
    11  C    0.041611
    12  C   -0.010823
    13  C   -0.168653
    14  H    0.030019
    15  N   -0.448373
    16  C    0.171591
    17  C   -0.181734
    18  C   -0.096627
    19  C    0.137389
    20  C    0.086279
    21  C    0.013489
    22  O   -0.209790
    23  C   -0.015041
    24  N   -0.361510
    25  C    0.084184
    26  C   -0.139098
    27  C   -0.084218
    28  C    0.074835
    29  C    0.050064
    30  C   -0.015408
    31  C   -0.044730
    32  N   -0.442074
    33  C    0.139327
    34  C   -0.188035
    35  C    0.058620
    36  C    0.109914
    37  C    0.078507
    38  C    0.062341
    39  O   -0.216467
    40  C   -0.121259
    41  C    0.312975
    42  O   -0.256693
    43  O   -0.379211
    44  C    0.145020
    45  H    0.008442
    46  H    0.003756
    47  H   -0.014177
    48  H    0.042120
    49  H    0.049770
    50  H    0.035486
    51  H    0.041462
    52  H    0.026921
    53  H    0.059171
    54  H    0.045129
    55  H    0.064510
    56  H    0.055801
    57  H    0.031668
    58  H    0.063208
    59  H    0.053833
    60  H    0.032399
    61  H    0.070947
    62  H    0.057998
    63  H    0.056121
    64  H    0.040606
    65  H    0.038899
    66  H    0.039587
    67  H    0.032350
    68  H    0.030296
    69  H    0.027727
    70  H    0.056425
    71  H    0.025807
    72  H    0.030885
    73  H    0.060939
    74  H    0.060906
    75  H    0.031921
    76  H    0.065499
    77  H    0.053572
    78  H    0.053917
    79  H    0.058283
    80  Mg   0.936465
    81  C    0.010718
    82  C   -0.075283
    83  C   -0.029793
    84  C   -0.064517
    85  N   -0.298295
    86  C   -0.021545
    87  C   -0.051836
    88  C   -0.134240
    89  C    0.044024
    90  C    0.038268
    91  C    0.033861
    92  C   -0.117121
    93  H    0.034959
    94  N   -0.490225
    95  C    0.145694
    96  C   -0.165425
    97  C   -0.025011
    98  C    0.111839
    99  C    0.096039
   100  C   -0.007090
   101  O   -0.246396
   102  C    0.014078
   103  N   -0.325752
   104  C    0.062777
   105  C   -0.098194
   106  C   -0.020481
   107  C    0.007603
   108  C    0.005927
   109  C   -0.047114
   110  C   -0.047933
   111  N   -0.422844
   112  C    0.106666
   113  C   -0.210733
   114  C   -0.023478
   115  C    0.162103
   116  C    0.090939
   117  C    0.075705
   118  O   -0.216294
   119  C   -0.054915
   120  C    0.276351
   121  O   -0.229425
   122  O   -0.374810
   123  C    0.144826
   124  H    0.004626
   125  H   -0.047459
   126  H   -0.000910
   127  H    0.012696
   128  H    0.029637
   129  H    0.042162
   130  H    0.047002
   131  H    0.028480
   132  H    0.032671
   133  H    0.056392
   134  H    0.045295
   135  H    0.046308
   136  H    0.058398
   137  H    0.061445
   138  H    0.009554
   139  H    0.040852
   140  H    0.071617
   141  H    0.046877
   142  H    0.050753
   143  H    0.037805
   144  H    0.052408
   145  H    0.033856
   146  H    0.031504
   147  H    0.040183
   148  H    0.030967
   149  H    0.035561
   150  H    0.046429
   151  H    0.060440
   152  H    0.072917
   153  H    0.067990
   154  H    0.038938
   155  H    0.061040
   156  H    0.058047
   157  H    0.041821
   158  H    0.053604
 Sum of Mulliken charges =  -0.00000

 Dipole moment (field-independent basis, Debye):
    X=              0.6835    Y=              4.7289    Z=              5.6638  Tot=              7.4100
 Quadrupole moment (field-independent basis, Debye-Ang):
   XX=           -480.5332   YY=           -493.2877   ZZ=           -500.6210
   XY=             12.7099   XZ=            -39.2690   YZ=             23.3940

 Normal termination of Gaussian 16 at Sat Sep 18 21:58:33 2021.
