 Gaussian 16, Revision A.03,
 Gaussian 16:  ES64L-G16RevA.03 25-Dec-2016

 --------------------------------
 #p wB97XD/Def2SVP td=(nstates=5)
 --------------------------------

 --------------------------------
 TDDFT excited states in gaussian
 --------------------------------
 Symbolic Z-matrix:
 Charge =  0 Multiplicity = 1

                         Standard orientation:
 ---------------------------------------------------------------------
 Center     Atomic      Atomic             Coordinates (Angstroms)
 Number     Number       Type             X           Y           Z
 ---------------------------------------------------------------------
      1         12           0       -9.985014    0.291994    0.132256
      2          6           0       -8.591103   -2.271876   -1.689131
      3          6           0       -8.564411   -0.852457    3.030449
      4          6           0      -11.254948    3.020122    1.925576
      5          6           0      -10.736808    1.982837   -2.783574
      6          7           0       -8.539896   -1.282917    0.496362
      7          6           0       -8.215292   -2.358191   -0.335207
      8          6           0       -7.272636   -3.341372    0.363384
      9          6           0       -7.490249   -2.899914    1.833002
     10          6           0       -8.183027   -1.521881    1.818530
     11          6           0       -8.180076   -3.980192    2.694527
     12          6           0       -5.816936   -3.201082   -0.124074
     13          6           0       -5.019512   -4.529666   -0.362238
     14          1           0       -3.561430   -4.467554   -0.123357
     15          7           0       -9.954850    0.927610    2.156554
     16          6           0       -9.400261    0.280649    3.207122
     17          6           0       -9.797223    0.824559    4.471240
     18          6           0      -10.691760    1.871395    4.194196
     19          6           0      -10.694711    1.972607    2.676080
     20          6           0       -9.424404    0.221714    5.827193
     21          6           0      -11.448896    2.772908    5.235478
     22          8           0      -11.190582    2.620744    6.456879
     23          6           0      -12.586488    3.810675    4.842345
     24          7           0      -10.601591    2.365154   -0.366373
     25          6           0      -11.198398    3.193626    0.524787
     26          6           0      -11.882732    4.366062   -0.129907
     27          6           0      -11.690935    4.087063   -1.636278
     28          6           0      -11.006849    2.717741   -1.617055
     29          6           0      -13.363116    4.594918    0.322343
     30          6           0      -10.928166    5.267328   -2.406880
     31          6           0      -11.827358    6.141415   -3.288784
     32          7           0       -9.787543   -0.059262   -1.844184
     33          6           0      -10.163259    0.695778   -2.977018
     34          6           0      -10.026098   -0.135703   -4.180085
     35          6           0       -9.487853   -1.316418   -3.687596
     36          6           0       -9.260733   -1.146219   -2.311975
     37          6           0      -10.338283    0.173629   -5.600470
     38          6           0       -9.005120   -2.645355   -4.089321
     39          8           0       -9.137320   -3.289808   -5.142817
     40          6           0       -8.438259   -3.345602   -2.789776
     41          6           0       -9.206879   -4.619570   -2.465531
     42          8           0      -10.431123   -4.782694   -2.466065
     43          8           0       -8.222496   -5.537310   -2.248203
     44          6           0       -8.647021   -6.917418   -2.083229
     45          1           0       -8.121913   -1.210680    3.962191
     46          1           0      -11.762828    3.878109    2.371088
     47          1           0      -10.958827    2.457327   -3.741530
     48          1           0       -7.592654   -4.363217    0.156927
     49          1           0       -6.474337   -2.782658    2.210068
     50          1           0       -8.149580   -5.022011    2.375566
     51          1           0       -9.240560   -3.729101    2.680309
     52          1           0       -7.809997   -3.988096    3.719481
     53          1           0       -5.222715   -2.536620    0.502626
     54          1           0       -5.883012   -2.594069   -1.027319
     55          1           0       -5.183068   -4.860521   -1.387816
     56          1           0       -5.382737   -5.279602    0.341835
     57          1           0      -10.371712    0.019394    6.326454
     58          1           0       -8.668428    0.841538    6.309447
     59          1           0       -8.999264   -0.751309    5.581217
     60          1           0      -12.071727    4.729481    4.563882
     61          1           0      -13.172794    3.972829    5.746507
     62          1           0      -13.249022    3.288366    4.151638
     63          1           0      -11.339122    5.268879    0.148800
     64          1           0      -12.587270    3.828187   -2.199413
     65          1           0      -14.018647    4.778129   -0.528573
     66          1           0      -13.467314    5.436761    1.006603
     67          1           0      -13.688185    3.742063    0.916789
     68          1           0      -10.176772    4.893349   -3.102207
     69          1           0      -10.360829    5.869977   -1.697708
     70          1           0      -11.513794    7.182822   -3.214197
     71          1           0      -12.862042    6.055906   -2.957492
     72          1           0      -11.817296    5.864271   -4.342753
     73          1           0      -10.820170    1.151101   -5.622233
     74          1           0      -10.812400   -0.686830   -6.073035
     75          1           0       -9.377094    0.352220   -6.083660
     76          1           0       -7.371241   -3.557380   -2.863472
     77          1           0       -9.510970   -7.039198   -1.428646
     78          1           0       -7.896974   -7.629324   -1.738726
     79          1           0       -8.925113   -7.333422   -3.051921
     80         12           0       10.180930    0.858242    0.091659
     81          6           0        8.883854   -2.303380    0.836424
     82          6           0        6.938451    2.048414    0.420013
     83          6           0       11.288494    3.708393   -1.013426
     84          6           0       13.341859   -0.660858   -0.402856
     85          7           0        8.033306   -0.116147    0.187234
     86          6           0        7.823238   -1.356261    0.640456
     87          6           0        6.359972   -1.506590    0.891261
     88          6           0        5.719106   -0.217135    0.321904
     89          6           0        6.950930    0.666270    0.325024
     90          6           0        5.004504   -0.254071   -1.030111
     91          6           0        6.044038   -1.690721    2.409530
     92          6           0        5.105083   -2.859112    2.852032
     93          1           0        3.989752   -3.349838    1.877032
     94          7           0        9.250272    2.711749   -0.113631
     95          6           0        7.944451    2.994394    0.264663
     96          6           0        7.767130    4.399390    0.091107
     97          6           0        9.004847    4.919236   -0.463294
     98          6           0        9.929596    3.798929   -0.550686
     99          6           0        6.439742    5.152423    0.327923
    100          6           0        9.348587    6.352166   -0.962373
    101          8           0       10.398624    6.671862   -1.422407
    102          6           0        8.267261    7.397841   -0.773474
    103          7           0       12.050541    1.402137   -0.584695
    104          6           0       12.241140    2.653822   -1.058339
    105          6           0       13.687840    2.926706   -1.554489
    106          6           0       14.392516    1.579856   -1.091514
    107          6           0       13.229479    0.706652   -0.635770
    108          6           0       13.699209    3.227959   -3.162516
    109          6           0       15.555624    1.797003   -0.073265
    110          6           0       15.253571    1.601982    1.401753
    111          7           0       11.042490   -1.083325    0.216024
    112          6           0       12.333296   -1.516835    0.076578
    113          6           0       12.365535   -2.992551    0.370761
    114          6           0       11.024284   -3.319887    0.672602
    115          6           0       10.220939   -2.140206    0.531184
    116          6           0       13.517620   -3.943366    0.190627
    117          6           0       10.120956   -4.404505    1.048983
    118          8           0       10.396850   -5.593781    1.230862
    119          6           0        8.772502   -3.742762    1.316984
    120          6           0        7.766379   -4.540246    0.537622
    121          8           0        7.581396   -4.455036   -0.662600
    122          8           0        7.297099   -5.447659    1.378102
    123          6           0        6.623020   -6.612662    0.826813
    124          1           0        5.906543    2.402109    0.380228
    125          1           0       11.722191    4.690305   -1.212390
    126          1           0       14.320743   -1.125360   -0.541059
    127          1           0        6.008145   -2.396092    0.369630
    128          1           0        4.940495    0.067406    1.029768
    129          1           0        4.942758   -1.226452   -1.519068
    130          1           0        5.480592    0.436417   -1.726853
    131          1           0        3.990704    0.099111   -0.842808
    132          1           0        5.711101   -0.775573    2.898737
    133          1           0        7.055057   -1.875726    2.772189
    134          1           0        4.628283   -2.470459    3.752756
    135          1           0        5.721406   -3.719699    3.110851
    136          1           0        6.124289    5.749094   -0.528039
    137          1           0        6.528001    5.912542    1.104306
    138          1           0        5.605422    4.515282    0.624252
    139          1           0        7.881550    7.428071    0.245762
    140          1           0        7.488599    7.212287   -1.513414
    141          1           0        8.626115    8.375695   -1.094553
    142          1           0       14.142867    3.787099   -1.064106
    143          1           0       14.907199    1.066576   -1.903638
    144          1           0       14.149079    2.336300   -3.599370
    145          1           0       14.388685    4.021671   -3.451024
    146          1           0       12.706763    3.304332   -3.608157
    147          1           0       15.772697    2.862275   -0.153083
    148          1           0       16.455225    1.243732   -0.342139
    149          1           0       14.291757    2.097315    1.540122
    150          1           0       16.091376    2.127656    1.859250
    151          1           0       15.084532    0.606260    1.810906
    152          1           0       14.435717   -3.572631   -0.265274
    153          1           0       13.198467   -4.776705   -0.435464
    154          1           0       13.687697   -4.369733    1.178753
    155          1           0        8.402824   -3.854943    2.336416
    156          1           0        6.599179   -6.771236   -0.250853
    157          1           0        5.583333   -6.435957    1.104069
    158          1           0        6.761472   -7.443035    1.519319
 ---------------------------------------------------------------------

 SCF Done:  E(RwB97XD) =  -4070.62534193     A.U. after   19 cycles

 Excitation energies and oscillator strengths:

 Excited State   1:      Singlet-A      1.6645 eV  744.86 nm  f=0.3575  <S**2>=0.000
     309 -> 315       -0.17876
     311 -> 313        0.68377
     309 <- 315       -0.11343
 This state for optimization and/or second-order correction.
 Total Energy, E(TD-HF/TD-DFT) =  -4070.56417157
 Copying the excited state density for this state as the 1-particle RhoCI density.

 Excited State   2:      Singlet-A      1.6770 eV  739.33 nm  f=0.3887  <S**2>=0.000
     310 -> 316       -0.19185
     312 -> 314        0.68160
     310 <- 316       -0.11864

 Excited State   3:      Singlet-A      2.1597 eV  574.07 nm  f=0.0996  <S**2>=0.000
     310 -> 314        0.64001
     312 -> 316        0.28486

 Excited State   4:      Singlet-A      2.1966 eV  564.42 nm  f=0.0907  <S**2>=0.000
     309 -> 313        0.62289
     311 -> 315        0.31732

 Excited State   5:      Singlet-A      3.5961 eV  344.77 nm  f=0.0000  <S**2>=0.000
     312 -> 313        0.70686

 The electronic state is 1-A.
 Alpha  occ. eigenvalues --  -46.95611 -46.95129 -19.31652 -19.31521 -19.25283
 Alpha  occ. eigenvalues --  -19.24875 -19.24646 -19.24557 -19.23564 -19.23549
 Alpha  occ. eigenvalues --  -14.47118 -14.46848 -14.46363 -14.46185 -14.44958
 Alpha  occ. eigenvalues --  -14.43952 -14.43756 -14.43300 -10.43883 -10.43048
 Alpha  occ. eigenvalues --  -10.40845 -10.39565 -10.38832 -10.38391 -10.36414
 Alpha  occ. eigenvalues --  -10.35853 -10.35840 -10.35825 -10.35324 -10.35321
 Alpha  occ. eigenvalues --  -10.35204 -10.35138 -10.34786 -10.34753 -10.34609
 Alpha  occ. eigenvalues --  -10.34516 -10.33726 -10.33701 -10.33629 -10.33536
 Alpha  occ. eigenvalues --  -10.33512 -10.33351 -10.32917 -10.32892 -10.32794
 Alpha  occ. eigenvalues --  -10.32640 -10.32486 -10.32436 -10.32406 -10.32390
 Alpha  occ. eigenvalues --  -10.32278 -10.32224 -10.32141 -10.32135 -10.32083
 Alpha  occ. eigenvalues --  -10.32078 -10.31873 -10.31871 -10.31802 -10.31621
 Alpha  occ. eigenvalues --  -10.31484 -10.31477 -10.31196 -10.31136 -10.31084
 Alpha  occ. eigenvalues --  -10.31044 -10.30909 -10.30718 -10.30703 -10.30630
 Alpha  occ. eigenvalues --  -10.30627 -10.30599 -10.30425 -10.30353 -10.30339
 Alpha  occ. eigenvalues --  -10.30269 -10.30035 -10.29950 -10.29940 -10.29862
 Alpha  occ. eigenvalues --  -10.29800 -10.29625 -10.29205 -10.29040 -10.28894
 Alpha  occ. eigenvalues --  -10.28651  -3.21589  -3.21036  -1.95144  -1.94698
 Alpha  occ. eigenvalues --   -1.94631  -1.94585  -1.94194  -1.93964  -1.20577
 Alpha  occ. eigenvalues --   -1.19092  -1.13519  -1.11927  -1.10990  -1.10905
 Alpha  occ. eigenvalues --   -1.10619  -1.10024  -1.07026  -1.06758  -1.06112
 Alpha  occ. eigenvalues --   -1.05781  -1.05676  -1.04677  -1.04263  -1.03859
 Alpha  occ. eigenvalues --   -0.95410  -0.93443  -0.90899  -0.90794  -0.90670
 Alpha  occ. eigenvalues --   -0.90592  -0.90495  -0.89936  -0.89271  -0.89044
 Alpha  occ. eigenvalues --   -0.89030  -0.88476  -0.88234  -0.87435  -0.86389
 Alpha  occ. eigenvalues --   -0.86325  -0.85847  -0.85623  -0.84509  -0.84493
 Alpha  occ. eigenvalues --   -0.83659  -0.83355  -0.83167  -0.82706  -0.82225
 Alpha  occ. eigenvalues --   -0.81964  -0.79945  -0.79880  -0.79516  -0.79316
 Alpha  occ. eigenvalues --   -0.78913  -0.78786  -0.78231  -0.77893  -0.77331
 Alpha  occ. eigenvalues --   -0.77035  -0.74778  -0.74695  -0.73803  -0.73694
 Alpha  occ. eigenvalues --   -0.71464  -0.71205  -0.71000  -0.70892  -0.70013
 Alpha  occ. eigenvalues --   -0.69931  -0.69372  -0.68126  -0.68070  -0.67254
 Alpha  occ. eigenvalues --   -0.67161  -0.67066  -0.66907  -0.66657  -0.66630
 Alpha  occ. eigenvalues --   -0.66341  -0.64821  -0.64746  -0.61995  -0.61839
 Alpha  occ. eigenvalues --   -0.61698  -0.61656  -0.61183  -0.61031  -0.60684
 Alpha  occ. eigenvalues --   -0.60484  -0.60112  -0.59778  -0.59308  -0.59300
 Alpha  occ. eigenvalues --   -0.58842  -0.58077  -0.58005  -0.57809  -0.57319
 Alpha  occ. eigenvalues --   -0.57042  -0.56923  -0.56745  -0.56651  -0.55794
 Alpha  occ. eigenvalues --   -0.55597  -0.55419  -0.55215  -0.55189  -0.54848
 Alpha  occ. eigenvalues --   -0.54845  -0.54621  -0.54453  -0.53988  -0.53898
 Alpha  occ. eigenvalues --   -0.53626  -0.53609  -0.53380  -0.53346  -0.53258
 Alpha  occ. eigenvalues --   -0.53147  -0.53127  -0.53002  -0.52863  -0.52136
 Alpha  occ. eigenvalues --   -0.51939  -0.51627  -0.51466  -0.51327  -0.51324
 Alpha  occ. eigenvalues --   -0.51106  -0.51104  -0.50761  -0.50632  -0.50511
 Alpha  occ. eigenvalues --   -0.50328  -0.50314  -0.50170  -0.50018  -0.49890
 Alpha  occ. eigenvalues --   -0.49842  -0.49776  -0.49473  -0.49258  -0.49199
 Alpha  occ. eigenvalues --   -0.48903  -0.48819  -0.48608  -0.48371  -0.48323
 Alpha  occ. eigenvalues --   -0.48062  -0.47933  -0.47835  -0.47794  -0.47601
 Alpha  occ. eigenvalues --   -0.47539  -0.47535  -0.47331  -0.47228  -0.46961
 Alpha  occ. eigenvalues --   -0.46815  -0.46748  -0.46444  -0.46433  -0.46163
 Alpha  occ. eigenvalues --   -0.45783  -0.45746  -0.45713  -0.45546  -0.45332
 Alpha  occ. eigenvalues --   -0.45287  -0.45169  -0.45035  -0.45015  -0.44908
 Alpha  occ. eigenvalues --   -0.44640  -0.44594  -0.44450  -0.44177  -0.44110
 Alpha  occ. eigenvalues --   -0.43980  -0.43715  -0.43586  -0.43553  -0.43163
 Alpha  occ. eigenvalues --   -0.43111  -0.42952  -0.42797  -0.42601  -0.42587
 Alpha  occ. eigenvalues --   -0.42167  -0.41697  -0.41548  -0.41356  -0.41197
 Alpha  occ. eigenvalues --   -0.40802  -0.40388  -0.40288  -0.40164  -0.39499
 Alpha  occ. eigenvalues --   -0.39199  -0.39026  -0.39003  -0.38797  -0.38476
 Alpha  occ. eigenvalues --   -0.38438  -0.38149  -0.36936  -0.36857  -0.36421
 Alpha  occ. eigenvalues --   -0.36091  -0.35364  -0.35344  -0.33832  -0.33453
 Alpha  occ. eigenvalues --   -0.33392  -0.33005  -0.32780  -0.32484  -0.32279
 Alpha  occ. eigenvalues --   -0.32154  -0.32024  -0.31076  -0.26221  -0.25721
 Alpha  occ. eigenvalues --   -0.22988  -0.22882
 Alpha virt. eigenvalues --   -0.07003  -0.06834  -0.00210   0.00394   0.02154
 Alpha virt. eigenvalues --    0.02212   0.03981   0.04734   0.04985   0.05884
 Alpha virt. eigenvalues --    0.07076   0.07321   0.07667   0.07858   0.08191

 Mulliken charges:
               1
     1  Mg   0.973298
     2  C   -0.080611
     3  C   -0.110093
     4  C   -0.086240
     5  C   -0.082828
     6  N   -0.403998
     7  C   -0.008469
     8  C   -0.052955
     9  C   -0.091802
    10  C    0.125616
    11  C    0.013990
    12  C    0.023292
    13  C   -0.127411
    14  H    0.042677
    15  N   -0.430263
    16  C    0.152995
    17  C   -0.190704
    18  C   -0.078502
    19  C    0.194406
    20  C    0.116303
    21  C    0.044471
    22  O   -0.256267
    23  C   -0.009414
    24  N   -0.325105
    25  C    0.023059
    26  C   -0.076416
    27  C   -0.052161
    28  C    0.038302
    29  C    0.010464
    30  C   -0.007649
    31  C   -0.058097
    32  N   -0.440784
    33  C    0.101219
    34  C   -0.206340
    35  C   -0.043893
    36  C    0.153104
    37  C    0.107361
    38  C    0.155648
    39  O   -0.229411
    40  C   -0.059894
    41  C    0.289234
    42  O   -0.247301
    43  O   -0.356547
    44  C    0.133395
    45  H    0.007505
    46  H   -0.019581
    47  H   -0.010911
    48  H    0.025176
    49  H    0.032227
    50  H    0.036869
    51  H    0.035036
    52  H    0.038267
    53  H    0.030127
    54  H    0.030201
    55  H    0.066820
    56  H    0.049677
    57  H    0.065747
    58  H    0.071906
    59  H    0.012109
    60  H    0.080685
    61  H    0.058417
    62  H    0.060826
    63  H    0.046692
    64  H    0.034176
    65  H    0.047012
    66  H    0.033610
    67  H    0.037759
    68  H    0.032952
    69  H    0.028684
    70  H    0.039154
    71  H    0.028706
    72  H    0.041261
    73  H    0.021320
    74  H    0.075553
    75  H    0.050624
    76  H    0.064387
    77  H    0.055307
    78  H    0.052147
    79  H    0.053869
    80  Mg   0.943856
    81  C   -0.010187
    82  C   -0.053710
    83  C   -0.049930
    84  C   -0.089535
    85  N   -0.281393
    86  C    0.032818
    87  C   -0.102566
    88  C   -0.079072
    89  C   -0.023170
    90  C    0.044006
    91  C   -0.007944
    92  C   -0.108813
    93  H    0.034463
    94  N   -0.486664
    95  C    0.194374
    96  C   -0.162175
    97  C   -0.110831
    98  C    0.127641
    99  C    0.067087
   100  C    0.057743
   101  O   -0.197948
   102  C   -0.025306
   103  N   -0.388495
   104  C    0.068315
   105  C   -0.106315
   106  C   -0.052034
   107  C    0.081487
   108  C    0.014961
   109  C   -0.034387
   110  C   -0.035093
   111  N   -0.431048
   112  C    0.126520
   113  C   -0.181589
   114  C   -0.031488
   115  C    0.145145
   116  C    0.071995
   117  C    0.142810
   118  O   -0.213924
   119  C   -0.092602
   120  C    0.223679
   121  O   -0.247691
   122  O   -0.327151
   123  C    0.146759
   124  H   -0.006174
   125  H    0.024714
   126  H   -0.006533
   127  H    0.040543
   128  H    0.020884
   129  H    0.047087
   130  H    0.041628
   131  H    0.030031
   132  H    0.038441
   133  H    0.025610
   134  H    0.052826
   135  H    0.060536
   136  H    0.037145
   137  H    0.040534
   138  H    0.034206
   139  H    0.057431
   140  H    0.052249
   141  H    0.039916
   142  H    0.050000
   143  H    0.031458
   144  H    0.019162
   145  H    0.045898
   146  H    0.059032
   147  H    0.022767
   148  H    0.029641
   149  H    0.030034
   150  H    0.044287
   151  H    0.041661
   152  H    0.038428
   153  H    0.061915
   154  H    0.059370
   155  H    0.073260
   156  H    0.085616
   157  H    0.026710
   158  H    0.057089
 Sum of Mulliken charges =  -0.00000

 Dipole moment (field-independent basis, Debye):
    X=             -1.8519    Y=              2.3243    Z=              3.7437  Tot=              4.7798
 Quadrupole moment (field-independent basis, Debye-Ang):
   XX=           -487.8504   YY=           -494.8768   ZZ=           -549.5546
   XY=            -39.8978   XZ=             -1.7751   YZ=            -28.0637

 Normal termination of Gaussian 16 at Mon Sep 20 18:23:31 2021.
