 Gaussian 16, Revision A.03,
 Gaussian 16:  ES64L-G16RevA.03 25-Dec-2016

 --------------------------------
 #p wB97XD/Def2SVP td=(nstates=5)
 --------------------------------

 --------------------------------
 TDDFT excited states in gaussian
 --------------------------------
 Symbolic Z-matrix:
 Charge =  0 Multiplicity = 1

                         Standard orientation:
 ---------------------------------------------------------------------
 Center     Atomic      Atomic             Coordinates (Angstroms)
 Number     Number       Type             X           Y           Z
 ---------------------------------------------------------------------
      1         12           0       27.249122   -0.624688    0.287935
      2          6           0       25.848412    2.564221    0.607012
      3          6           0       29.131684    0.678613   -2.318857
      4          6           0       28.240070   -3.664859   -0.300832
      5          6           0       25.045688   -1.741563    2.825875
      6          7           0       27.174515    1.335753   -1.024302
      7          6           0       26.655701    2.483919   -0.577125
      8          6           0       27.089445    3.569971   -1.503952
      9          6           0       27.783072    2.841721   -2.681281
     10          6           0       28.092693    1.531804   -1.984102
     11          6           0       27.043052    2.660920   -4.007797
     12          6           0       28.046976    4.586226   -0.804508
     13          6           0       27.757478    6.116166   -0.938878
     14          1           0       27.050223    6.646656   -2.224869
     15          7           0       28.655049   -1.380081   -1.052405
     16          6           0       29.437900   -0.611761   -1.903868
     17          6           0       30.356996   -1.506998   -2.527880
     18          6           0       30.039610   -2.842274   -2.052644
     19          6           0       28.957227   -2.699819   -1.090334
     20          6           0       31.382644   -1.099755   -3.608295
     21          6           0       30.629638   -4.217595   -2.477948
     22          8           0       30.281813   -5.266165   -2.035305
     23          6           0       31.766727   -4.170701   -3.479554
     24          7           0       26.706616   -2.408565    1.166677
     25          6           0       27.225003   -3.562241    0.689509
     26          6           0       26.719094   -4.833035    1.426200
     27          6           0       25.898265   -4.154764    2.605653
     28          6           0       25.882482   -2.678570    2.226914
     29          6           0       25.862192   -5.786575    0.409778
     30          6           0       26.429443   -4.514412    4.028786
     31          6           0       27.347094   -3.519448    4.716472
     32          7           0       25.745192    0.191756    1.552470
     33          6           0       25.018328   -0.357525    2.573996
     34          6           0       24.166434    0.726572    3.177595
     35          6           0       24.478298    1.879694    2.422439
     36          6           0       25.419811    1.519471    1.402242
     37          6           0       23.083874    0.579554    4.212121
     38          6           0       24.194842    3.302768    2.253397
     39          8           0       23.407954    4.001996    2.897959
     40          6           0       25.182282    3.796850    1.200353
     41          6           0       24.360952    4.554383    0.196745
     42          8           0       23.672430    4.049216   -0.670870
     43          8           0       24.399171    5.819486    0.581560
     44          6           0       23.385654    6.726360    0.065909
     45          1           0       29.617504    1.042546   -3.226078
     46          1           0       28.688659   -4.658535   -0.357463
     47          1           0       24.377405   -2.084363    3.618948
     48          1           0       26.207296    4.118541   -1.832555
     49          1           0       28.651254    3.448701   -2.938389
     50          1           0       26.050228    3.106367   -4.073341
     51          1           0       26.945702    1.600788   -4.243433
     52          1           0       27.674439    3.120265   -4.768036
     53          1           0       29.100364    4.413224   -1.023842
     54          1           0       27.899269    4.274781    0.229462
     55          1           0       28.749804    6.565288   -0.881673
     56          1           0       27.166104    6.433491   -0.080373
     57          1           0       31.315630   -1.701672   -4.514608
     58          1           0       32.409850   -1.288033   -3.295661
     59          1           0       31.343474   -0.048024   -3.894960
     60          1           0       32.562104   -3.485881   -3.184722
     61          1           0       31.344218   -3.930777   -4.455350
     62          1           0       32.150596   -5.174106   -3.663647
     63          1           0       27.533712   -5.438521    1.823170
     64          1           0       24.867292   -4.503537    2.663571
     65          1           0       24.830212   -5.674130    0.742428
     66          1           0       26.053700   -6.850977    0.547489
     67          1           0       25.873685   -5.453740   -0.628714
     68          1           0       27.070954   -5.378225    3.853891
     69          1           0       25.632276   -4.812826    4.709344
     70          1           0       28.032832   -3.206914    3.928010
     71          1           0       27.806666   -4.148897    5.478141
     72          1           0       26.960616   -2.576243    5.101750
     73          1           0       22.808370   -0.421994    4.542566
     74          1           0       22.163669    1.023219    3.831744
     75          1           0       23.395463    1.218084    5.038136
     76          1           0       25.873462    4.565459    1.546764
     77          1           0       22.565683    6.342037   -0.539914
     78          1           0       23.959064    7.358579   -0.612726
     79          1           0       23.224965    7.510416    0.805968
     80         12           0      -26.467016   -0.835481   -0.087735
     81          6           0      -27.639800    2.526728    0.288455
     82          6           0      -25.657263   -0.137465   -3.351319
     83          6           0      -25.773883   -4.088720   -0.674099
     84          6           0      -28.218120   -1.606463    2.875469
     85          7           0      -26.630252    0.991235   -1.346003
     86          6           0      -27.066074    2.279259   -0.997255
     87          6           0      -26.850205    3.206093   -2.166044
     88          6           0      -26.725804    2.194516   -3.382313
     89          6           0      -26.360739    0.874855   -2.641054
     90          6           0      -28.122590    2.124303   -4.096400
     91          6           0      -25.679281    4.231809   -1.965592
     92          6           0      -26.077946    5.547675   -2.411521
     93          1           0      -25.113081    6.747577   -1.938239
     94          7           0      -25.640623   -1.847085   -1.775739
     95          6           0      -25.349584   -1.375553   -2.994037
     96          6           0      -24.715116   -2.403943   -3.759984
     97          6           0      -24.746100   -3.571404   -3.026535
     98          6           0      -25.379869   -3.203706   -1.677064
     99          6           0      -24.307994   -2.197049   -5.253486
    100          6           0      -24.167711   -4.956924   -3.380379
    101          8           0      -24.327855   -5.871380   -2.612208
    102          6           0      -23.332907   -5.151565   -4.624130
    103          7           0      -27.187084   -2.622444    0.846786
    104          6           0      -26.615789   -3.830751    0.463092
    105          6           0      -26.880264   -4.890065    1.483058
    106          6           0      -27.650960   -4.092516    2.644921
    107          6           0      -27.640894   -2.669046    2.139525
    108          6           0      -27.590922   -6.076817    0.925515
    109          6           0      -27.065881   -4.219315    4.157086
    110          6           0      -27.940029   -4.803809    5.195148
    111          7           0      -27.650024    0.199589    1.360902
    112          6           0      -28.277098   -0.282832    2.487526
    113          6           0      -28.916700    0.902463    3.207819
    114          6           0      -28.595495    2.041486    2.442516
    115          6           0      -27.868436    1.552953    1.300900
    116          6           0      -29.753070    0.792861    4.490006
    117          6           0      -28.874900    3.441770    2.339520
    118          8           0      -29.505754    4.201477    3.108724
    119          6           0      -28.420773    3.796072    0.864217
    120          6           0      -27.636057    5.136889    0.985617
    121          8           0      -26.391461    5.148809    0.976463
    122          8           0      -28.503949    6.178177    1.001365
    123          6           0      -27.743204    7.434209    1.323469
    124          1           0      -25.194518    0.125772   -4.305134
    125          1           0      -25.542199   -5.144698   -0.832295
    126          1           0      -28.699814   -1.727063    3.847899
    127          1           0      -27.797676    3.725254   -2.308727
    128          1           0      -25.978087    2.520841   -4.104304
    129          1           0      -28.870633    1.562772   -3.537293
    130          1           0      -27.983734    1.718433   -5.097541
    131          1           0      -28.495910    3.139285   -4.234545
    132          1           0      -24.905883    3.953011   -2.681690
    133          1           0      -25.277582    4.201054   -0.952499
    134          1           0      -27.009333    5.858009   -1.937602
    135          1           0      -26.130210    5.520914   -3.500218
    136          1           0      -23.250020   -2.459182   -5.253686
    137          1           0      -24.397580   -1.173313   -5.616547
    138          1           0      -24.931238   -2.818524   -5.896339
    139          1           0      -23.082105   -6.204173   -4.755809
    140          1           0      -22.495963   -4.529659   -4.306697
    141          1           0      -23.892158   -4.756124   -5.471999
    142          1           0      -25.875433   -5.155780    1.811937
    143          1           0      -28.667702   -4.484009    2.666104
    144          1           0      -26.843170   -6.868782    0.938002
    145          1           0      -27.847523   -5.964030   -0.127720
    146          1           0      -28.499012   -6.371706    1.451860
    147          1           0      -26.935570   -3.173346    4.434566
    148          1           0      -26.083030   -4.684169    4.091997
    149          1           0      -28.167563   -4.076567    5.974104
    150          1           0      -27.203471   -5.498694    5.597081
    151          1           0      -28.779810   -5.366488    4.785118
    152          1           0      -30.788152    0.718030    4.158562
    153          1           0      -29.640118    1.661754    5.138295
    154          1           0      -29.409478   -0.067905    5.063751
    155          1           0      -29.367596    3.915205    0.339272
    156          1           0      -27.434135    7.529396    2.364261
    157          1           0      -28.254133    8.358445    1.055543
    158          1           0      -26.876545    7.425505    0.662159
 ---------------------------------------------------------------------

 SCF Done:  E(RwB97XD) =  -4070.57554347     A.U. after   18 cycles

 Excitation energies and oscillator strengths:

 Excited State   1:      Singlet-A      1.6769 eV  739.38 nm  f=0.2799  <S**2>=0.000
     309 -> 315       -0.19091
     312 -> 314        0.67655
     309 <- 315       -0.11487
 This state for optimization and/or second-order correction.
 Total Energy, E(TD-HF/TD-DFT) =  -4070.51391994
 Copying the excited state density for this state as the 1-particle RhoCI density.

 Excited State   2:      Singlet-A      1.6772 eV  739.24 nm  f=0.4686  <S**2>=0.000
     310 -> 316       -0.19089
     311 -> 313        0.67801
     310 <- 316       -0.11802

 Excited State   3:      Singlet-A      2.1599 eV  574.03 nm  f=0.0977  <S**2>=0.000
     310 -> 313        0.64013
     311 -> 316        0.28505

 Excited State   4:      Singlet-A      2.2164 eV  559.40 nm  f=0.0062  <S**2>=0.000
     309 -> 314        0.55057
     312 -> 315        0.43361

 Excited State   5:      Singlet-A      3.3635 eV  368.61 nm  f=0.0023  <S**2>=0.000
     306 -> 313       -0.35526
     308 -> 313        0.58055

 The electronic state is 1-A.
 Alpha  occ. eigenvalues --  -46.95754 -46.95132 -19.31514 -19.31350 -19.24689
 Alpha  occ. eigenvalues --  -19.24644 -19.24557 -19.24523 -19.23761 -19.23567
 Alpha  occ. eigenvalues --  -14.46865 -14.46470 -14.46365 -14.46189 -14.43964
 Alpha  occ. eigenvalues --  -14.43958 -14.43709 -14.43302 -10.43554 -10.43045
 Alpha  occ. eigenvalues --  -10.39653 -10.39565 -10.38881 -10.38394 -10.35827
 Alpha  occ. eigenvalues --  -10.35431 -10.35385 -10.35339 -10.35326 -10.35264
 Alpha  occ. eigenvalues --  -10.35142 -10.34927 -10.34789 -10.34758 -10.34426
 Alpha  occ. eigenvalues --  -10.33704 -10.33633 -10.33538 -10.33488 -10.33354
 Alpha  occ. eigenvalues --  -10.33107 -10.33039 -10.32993 -10.32957 -10.32919
 Alpha  occ. eigenvalues --  -10.32760 -10.32586 -10.32441 -10.32407 -10.32390
 Alpha  occ. eigenvalues --  -10.32212 -10.32163 -10.32137 -10.32033 -10.32030
 Alpha  occ. eigenvalues --  -10.31954 -10.31626 -10.31419 -10.31380 -10.31194
 Alpha  occ. eigenvalues --  -10.31124 -10.31047 -10.31026 -10.30823 -10.30721
 Alpha  occ. eigenvalues --  -10.30631 -10.30603 -10.30487 -10.30429 -10.30368
 Alpha  occ. eigenvalues --  -10.30341 -10.30337 -10.30274 -10.30106 -10.29953
 Alpha  occ. eigenvalues --  -10.29944 -10.29808 -10.29773 -10.29765 -10.29217
 Alpha  occ. eigenvalues --  -10.29204 -10.29042 -10.28996 -10.28907 -10.28897
 Alpha  occ. eigenvalues --  -10.28797  -3.21557  -3.21039  -1.95137  -1.94662
 Alpha  occ. eigenvalues --   -1.94634  -1.94523  -1.94196  -1.93967  -1.20571
 Alpha  occ. eigenvalues --   -1.18196  -1.13972  -1.13522  -1.11927  -1.10902
 Alpha  occ. eigenvalues --   -1.10032  -1.09287  -1.07029  -1.06115  -1.05785
 Alpha  occ. eigenvalues --   -1.05051  -1.04681  -1.04669  -1.03862  -1.03409
 Alpha  occ. eigenvalues --   -0.95411  -0.93149  -0.90840  -0.90596  -0.90583
 Alpha  occ. eigenvalues --   -0.90492  -0.90026  -0.89939  -0.89480  -0.89143
 Alpha  occ. eigenvalues --   -0.89034  -0.88238  -0.87437  -0.87362  -0.86387
 Alpha  occ. eigenvalues --   -0.86266  -0.85649  -0.85622  -0.84538  -0.84511
 Alpha  occ. eigenvalues --   -0.84449  -0.83354  -0.82708  -0.82613  -0.82362
 Alpha  occ. eigenvalues --   -0.81966  -0.80193  -0.79881  -0.79449  -0.79315
 Alpha  occ. eigenvalues --   -0.78914  -0.78426  -0.78233  -0.77367  -0.77040
 Alpha  occ. eigenvalues --   -0.76860  -0.74698  -0.74134  -0.73698  -0.73396
 Alpha  occ. eigenvalues --   -0.71467  -0.70894  -0.70784  -0.70005  -0.69764
 Alpha  occ. eigenvalues --   -0.69395  -0.68299  -0.68070  -0.67252  -0.66997
 Alpha  occ. eigenvalues --   -0.66911  -0.66874  -0.66633  -0.66412  -0.66343
 Alpha  occ. eigenvalues --   -0.66268  -0.64819  -0.64020  -0.61938  -0.61841
 Alpha  occ. eigenvalues --   -0.61658  -0.61184  -0.61053  -0.60486  -0.60416
 Alpha  occ. eigenvalues --   -0.60196  -0.60111  -0.59366  -0.59309  -0.59013
 Alpha  occ. eigenvalues --   -0.58842  -0.58008  -0.57978  -0.57432  -0.57018
 Alpha  occ. eigenvalues --   -0.56923  -0.56749  -0.56651  -0.56237  -0.55941
 Alpha  occ. eigenvalues --   -0.55888  -0.55596  -0.55459  -0.55216  -0.54854
 Alpha  occ. eigenvalues --   -0.54836  -0.54599  -0.54531  -0.54455  -0.54376
 Alpha  occ. eigenvalues --   -0.53901  -0.53834  -0.53612  -0.53347  -0.53231
 Alpha  occ. eigenvalues --   -0.53149  -0.53001  -0.52467  -0.52286  -0.52153
 Alpha  occ. eigenvalues --   -0.52137  -0.52060  -0.51630  -0.51452  -0.51327
 Alpha  occ. eigenvalues --   -0.51110  -0.51027  -0.50856  -0.50764  -0.50634
 Alpha  occ. eigenvalues --   -0.50538  -0.50317  -0.50138  -0.50021  -0.49935
 Alpha  occ. eigenvalues --   -0.49893  -0.49761  -0.49339  -0.49262  -0.48822
 Alpha  occ. eigenvalues --   -0.48510  -0.48445  -0.48326  -0.48127  -0.47980
 Alpha  occ. eigenvalues --   -0.47933  -0.47838  -0.47797  -0.47739  -0.47604
 Alpha  occ. eigenvalues --   -0.47540  -0.47329  -0.47271  -0.46961  -0.46751
 Alpha  occ. eigenvalues --   -0.46505  -0.46432  -0.46432  -0.46270  -0.46001
 Alpha  occ. eigenvalues --   -0.45721  -0.45712  -0.45373  -0.45333  -0.45179
 Alpha  occ. eigenvalues --   -0.45172  -0.45034  -0.44976  -0.44907  -0.44755
 Alpha  occ. eigenvalues --   -0.44642  -0.44256  -0.44109  -0.43938  -0.43815
 Alpha  occ. eigenvalues --   -0.43715  -0.43552  -0.43375  -0.43113  -0.43008
 Alpha  occ. eigenvalues --   -0.42957  -0.42672  -0.42603  -0.42171  -0.42097
 Alpha  occ. eigenvalues --   -0.41688  -0.41543  -0.41201  -0.40743  -0.40430
 Alpha  occ. eigenvalues --   -0.40292  -0.39758  -0.39208  -0.39194  -0.39152
 Alpha  occ. eigenvalues --   -0.39028  -0.38962  -0.38792  -0.38431  -0.38153
 Alpha  occ. eigenvalues --   -0.38059  -0.36759  -0.36420  -0.36093  -0.36025
 Alpha  occ. eigenvalues --   -0.35808  -0.35347  -0.35178  -0.33923  -0.33454
 Alpha  occ. eigenvalues --   -0.33367  -0.33008  -0.32619  -0.32282  -0.32221
 Alpha  occ. eigenvalues --   -0.32157  -0.31448  -0.31079  -0.26188  -0.25725
 Alpha  occ. eigenvalues --   -0.22885  -0.22000
 Alpha virt. eigenvalues --   -0.06837  -0.05878  -0.00592   0.00390   0.02095
 Alpha virt. eigenvalues --    0.02211   0.04482   0.04982   0.05083   0.05884
 Alpha virt. eigenvalues --    0.07282   0.07688   0.07787   0.07859   0.08189

 Mulliken charges:
               1
     1  Mg   0.943651
     2  C   -0.009930
     3  C   -0.053611
     4  C   -0.050007
     5  C   -0.089527
     6  N   -0.281221
     7  C    0.032810
     8  C   -0.102694
     9  C   -0.078959
    10  C   -0.023365
    11  C    0.044042
    12  C   -0.008011
    13  C   -0.108829
    14  H    0.034708
    15  N   -0.486540
    16  C    0.194302
    17  C   -0.162098
    18  C   -0.110856
    19  C    0.127635
    20  C    0.066852
    21  C    0.057653
    22  O   -0.197962
    23  C   -0.025242
    24  N   -0.388418
    25  C    0.068309
    26  C   -0.106255
    27  C   -0.052118
    28  C    0.081462
    29  C    0.014973
    30  C   -0.034350
    31  C   -0.035160
    32  N   -0.430865
    33  C    0.126553
    34  C   -0.181588
    35  C   -0.031484
    36  C    0.144722
    37  C    0.071993
    38  C    0.142852
    39  O   -0.213874
    40  C   -0.092623
    41  C    0.223598
    42  O   -0.247828
    43  O   -0.327036
    44  C    0.146654
    45  H   -0.006214
    46  H    0.024713
    47  H   -0.006540
    48  H    0.040498
    49  H    0.020983
    50  H    0.046971
    51  H    0.041492
    52  H    0.029955
    53  H    0.038459
    54  H    0.025595
    55  H    0.053000
    56  H    0.060558
    57  H    0.037162
    58  H    0.040621
    59  H    0.034199
    60  H    0.057474
    61  H    0.052195
    62  H    0.039938
    63  H    0.050017
    64  H    0.031427
    65  H    0.019118
    66  H    0.045889
    67  H    0.058983
    68  H    0.022767
    69  H    0.029635
    70  H    0.030069
    71  H    0.044305
    72  H    0.041685
    73  H    0.038403
    74  H    0.061888
    75  H    0.059417
    76  H    0.073397
    77  H    0.085485
    78  H    0.026937
    79  H    0.057203
    80  Mg   0.943148
    81  C    0.041597
    82  C   -0.129145
    83  C   -0.076145
    84  C   -0.077260
    85  N   -0.336143
    86  C   -0.017628
    87  C   -0.079525
    88  C   -0.155347
    89  C    0.135846
    90  C    0.022069
    91  C    0.093409
    92  C   -0.136517
    93  H    0.009059
    94  N   -0.446439
    95  C    0.165861
    96  C   -0.153403
    97  C   -0.107841
    98  C    0.164978
    99  C    0.056897
   100  C    0.032521
   101  O   -0.217409
   102  C    0.006172
   103  N   -0.392403
   104  C    0.060517
   105  C   -0.103423
   106  C   -0.058541
   107  C    0.088774
   108  C    0.029682
   109  C   -0.034554
   110  C   -0.028620
   111  N   -0.416629
   112  C    0.095696
   113  C   -0.195781
   114  C   -0.011720
   115  C    0.105073
   116  C    0.075046
   117  C    0.122622
   118  O   -0.234918
   119  C   -0.139091
   120  C    0.281243
   121  O   -0.275135
   122  O   -0.340450
   123  C    0.131663
   124  H   -0.010046
   125  H    0.029187
   126  H   -0.008270
   127  H    0.017201
   128  H    0.025389
   129  H    0.050733
   130  H    0.035124
   131  H    0.035634
   132  H    0.016178
   133  H    0.073644
   134  H    0.051848
   135  H    0.043259
   136  H    0.051635
   137  H    0.037576
   138  H    0.072599
   139  H    0.062091
   140  H    0.066260
   141  H    0.055592
   142  H    0.043054
   143  H    0.031492
   144  H    0.039724
   145  H    0.045863
   146  H    0.038561
   147  H    0.026813
   148  H    0.028195
   149  H    0.044939
   150  H    0.030312
   151  H    0.041844
   152  H    0.063101
   153  H    0.057599
   154  H    0.033424
   155  H    0.090016
   156  H    0.070071
   157  H    0.052426
   158  H    0.059124
 Sum of Mulliken charges =  -0.00000

 Dipole moment (field-independent basis, Debye):
    X=              3.6120    Y=             -0.4849    Z=             -3.8143  Tot=              5.2754
 Quadrupole moment (field-independent basis, Debye-Ang):
   XX=           -493.0554   YY=           -502.5930   ZZ=           -473.6707
   XY=            128.3668   XZ=             91.1876   YZ=            -38.6594

 Normal termination of Gaussian 16 at Mon Sep 20 20:39:14 2021.
