 Gaussian 16, Revision A.03,
 Gaussian 16:  ES64L-G16RevA.03 25-Dec-2016

 --------------------------------
 #p wB97XD/Def2SVP td=(nstates=5)
 --------------------------------

 --------------------------------
 TDDFT excited states in gaussian
 --------------------------------
 Symbolic Z-matrix:
 Charge =  0 Multiplicity = 1

                         Standard orientation:
 ---------------------------------------------------------------------
 Center     Atomic      Atomic             Coordinates (Angstroms)
 Number     Number       Type             X           Y           Z
 ---------------------------------------------------------------------
      1         12           0      -30.095568   -0.068235    0.420845
      2          6           0      -27.573530   -1.229578   -1.716455
      3          6           0      -31.376157    1.818509   -2.287712
      4          6           0      -32.338408    1.342113    2.544537
      5          6           0      -28.327799   -1.353519    3.093683
      6          7           0      -29.611214    0.090610   -1.736025
      7          6           0      -28.619020   -0.646730   -2.388618
      8          6           0      -28.893104   -0.621913   -3.935528
      9          6           0      -30.021509    0.408739   -4.057151
     10          6           0      -30.341170    0.851733   -2.586768
     11          6           0      -29.568446    1.606449   -4.934909
     12          6           0      -29.218831   -2.037980   -4.394499
     13          6           0      -28.894889   -2.415982   -5.830593
     14          1           0      -28.556944   -1.283611   -6.826545
     15          7           0      -31.661770    1.365675    0.210235
     16          6           0      -32.004748    2.042570   -0.975619
     17          6           0      -33.089527    2.977729   -0.734513
     18          6           0      -33.474788    2.843239    0.657291
     19          6           0      -32.466234    1.834974    1.199727
     20          6           0      -33.799127    3.780799   -1.832141
     21          6           0      -34.584813    3.507172    1.449298
     22          8           0      -34.750259    3.232542    2.630361
     23          6           0      -35.585853    4.320629    0.722685
     24          7           0      -30.314563   -0.090852    2.541617
     25          6           0      -31.377892    0.494521    3.159743
     26          6           0      -31.388836    0.106405    4.661501
     27          6           0      -30.127761   -0.824064    4.845533
     28          6           0      -29.580289   -0.875583    3.395681
     29          6           0      -31.365402    1.369232    5.541180
     30          6           0      -30.441969   -2.260780    5.340745
     31          6           0      -30.127776   -2.357252    6.830473
     32          7           0      -28.254301   -1.005888    0.749765
     33          6           0      -27.606807   -1.417631    1.866546
     34          6           0      -26.237210   -1.817665    1.461649
     35          6           0      -26.207831   -1.866002    0.098655
     36          6           0      -27.456784   -1.313457   -0.283980
     37          6           0      -25.211289   -2.280698    2.482346
     38          6           0      -25.437752   -2.229098   -1.098461
     39          8           0      -24.301374   -2.679357   -1.180638
     40          6           0      -26.342958   -1.905289   -2.271288
     41          6           0      -25.524245   -1.096130   -3.187854
     42          8           0      -25.207329    0.099868   -3.134106
     43          8           0      -25.052166   -1.939155   -4.172995
     44          6           0      -24.159510   -1.359224   -5.152778
     45          1           0      -31.789567    2.320655   -3.164608
     46          1           0      -33.157996    1.757138    3.134922
     47          1           0      -27.790376   -1.651344    3.996502
     48          1           0      -27.934047   -0.249075   -4.297144
     49          1           0      -30.797613   -0.070745   -4.653609
     50          1           0      -29.438229    2.546280   -4.398114
     51          1           0      -30.431162    1.875488   -5.543710
     52          1           0      -28.633379    1.404424   -5.456981
     53          1           0      -30.273490   -2.161462   -4.146561
     54          1           0      -28.732225   -2.744767   -3.723396
     55          1           0      -29.712792   -3.018457   -6.223446
     56          1           0      -28.042433   -3.080277   -5.684411
     57          1           0      -33.318526    3.716113   -2.808512
     58          1           0      -33.834323    4.835377   -1.555532
     59          1           0      -34.845629    3.479507   -1.859795
     60          1           0      -36.146262    3.665366    0.055382
     61          1           0      -35.132674    5.219675    0.305086
     62          1           0      -36.359019    4.701745    1.389890
     63          1           0      -32.336115   -0.393054    4.863441
     64          1           0      -29.443462   -0.251047    5.472587
     65          1           0      -30.546138    1.451953    6.254781
     66          1           0      -32.283204    1.201108    6.104222
     67          1           0      -31.285597    2.305546    4.989582
     68          1           0      -29.705669   -2.963333    4.949979
     69          1           0      -31.470454   -2.573419    5.159262
     70          1           0      -31.007806   -2.847974    7.245933
     71          1           0      -30.127002   -1.399949    7.351131
     72          1           0      -29.223431   -2.911092    7.084043
     73          1           0      -25.465666   -2.079931    3.523383
     74          1           0      -24.222197   -1.861209    2.302552
     75          1           0      -25.204509   -3.371244    2.485137
     76          1           0      -26.651109   -2.848801   -2.720591
     77          1           0      -23.371308   -0.836383   -4.610438
     78          1           0      -24.648283   -0.651281   -5.822478
     79          1           0      -23.579105   -2.202382   -5.525825
     80         12           0       30.082837    0.389765   -0.440827
     81          6           0       27.186946   -1.607730    0.244908
     82          6           0       28.047554    3.229185    0.119877
     83          6           0       32.871133    2.252210   -0.310465
     84          6           0       31.990273   -2.482511   -0.282409
     85          7           0       27.849094    0.794026    0.112979
     86          6           0       26.955650   -0.211949    0.353708
     87          6           0       25.697172    0.363654    0.983599
     88          6           0       25.940861    1.893188    0.642240
     89          6           0       27.364300    2.050911    0.264137
     90          6           0       25.033351    2.535360   -0.460160
     91          6           0       25.590548   -0.084191    2.476652
     92          6           0       24.206553   -0.600244    3.048514
     93          1           0       23.524046    0.162843    4.197971
     94          7           0       30.427010    2.387922   -0.334804
     95          6           0       29.475810    3.419885   -0.119751
     96          6           0       30.122821    4.718818   -0.137197
     97          6           0       31.539420    4.412818   -0.256248
     98          6           0       31.638159    2.966434   -0.314206
     99          6           0       29.372498    5.962377    0.101013
    100          6           0       32.623866    5.502050   -0.326271
    101          8           0       32.230202    6.694671   -0.169587
    102          6           0       34.127818    5.255176   -0.570136
    103          7           0       32.205623    0.009373   -0.045317
    104          6           0       33.152999    0.910795   -0.219225
    105          6           0       34.479744    0.243512   -0.050946
    106          6           0       34.151428   -1.272482   -0.106560
    107          6           0       32.654432   -1.275602   -0.057839
    108          6           0       35.686826    0.624005   -1.010874
    109          6           0       34.810267   -2.164857    1.067548
    110          6           0       35.852746   -3.242182    0.680176
    111          7           0       29.713505   -1.610572   -0.297395
    112          6           0       30.562785   -2.650650   -0.246916
    113          6           0       29.871962   -3.881813   -0.124916
    114          6           0       28.534426   -3.508117    0.024781
    115          6           0       28.477929   -2.093023   -0.042905
    116          6           0       30.361875   -5.273941   -0.139592
    117          6           0       27.246436   -4.085513    0.256643
    118          8           0       26.963793   -5.248371    0.439458
    119          6           0       26.256280   -2.772900    0.465302
    120          6           0       25.181734   -2.794951   -0.534257
    121          8           0       25.321496   -3.059898   -1.735002
    122          8           0       24.023756   -2.438029    0.123172
    123          6           0       22.805397   -2.395971   -0.683756
    124          1           0       27.472670    4.142954    0.277902
    125          1           0       33.806584    2.796348   -0.166960
    126          1           0       32.517181   -3.423461   -0.455047
    127          1           0       24.868349    0.050672    0.348102
    128          1           0       25.838103    2.287299    1.653971
    129          1           0       25.693785    2.939389   -1.228754
    130          1           0       24.425408    3.368744   -0.108748
    131          1           0       24.385752    1.843500   -0.999586
    132          1           0       25.862365    0.854113    2.959671
    133          1           0       26.329254   -0.812917    2.809616
    134          1           0       24.399004   -1.631635    3.343401
    135          1           0       23.531051   -0.753631    2.207474
    136          1           0       28.822004    5.813300    1.030198
    137          1           0       28.617640    6.095227   -0.673720
    138          1           0       29.920577    6.904255    0.065464
    139          1           0       34.544163    4.804993    0.331178
    140          1           0       34.478706    6.184333   -1.017980
    141          1           0       34.120339    4.518938   -1.374584
    142          1           0       34.846199    0.528052    0.934608
    143          1           0       34.399985   -1.514045   -1.140063
    144          1           0       36.576600    0.445657   -0.406537
    145          1           0       35.569612    1.663343   -1.317297
    146          1           0       35.649457   -0.076963   -1.844931
    147          1           0       33.947775   -2.614694    1.559059
    148          1           0       35.193751   -1.477728    1.821686
    149          1           0       35.643690   -4.212491    1.128641
    150          1           0       36.839462   -2.896204    0.989198
    151          1           0       35.968686   -3.372684   -0.395917
    152          1           0       29.560760   -5.981849   -0.349777
    153          1           0       30.705726   -5.314962    0.894100
    154          1           0       31.311501   -5.289843   -0.674287
    155          1           0       25.932933   -2.681778    1.501624
    156          1           0       22.661315   -3.318942   -1.245879
    157          1           0       22.838956   -1.538386   -1.357325
    158          1           0       21.950092   -2.287828   -0.016735
 ---------------------------------------------------------------------

 SCF Done:  E(RwB97XD) =  -4070.58579869     A.U. after   19 cycles

 Excitation energies and oscillator strengths:

 Excited State   1:      Singlet-A      1.6258 eV  762.60 nm  f=0.3892  <S**2>=0.000
     310 -> 316       -0.17886
     312 -> 314        0.68459
     310 <- 316       -0.11342
 This state for optimization and/or second-order correction.
 Total Energy, E(TD-HF/TD-DFT) =  -4070.52605136
 Copying the excited state density for this state as the 1-particle RhoCI density.

 Excited State   2:      Singlet-A      1.6376 eV  757.10 nm  f=0.3933  <S**2>=0.000
     309 -> 315       -0.19096
     311 -> 313        0.68318
     309 <- 315       -0.12121

 Excited State   3:      Singlet-A      2.1420 eV  578.81 nm  f=0.1182  <S**2>=0.000
     310 -> 314        0.64309
     312 -> 316        0.27660

 Excited State   4:      Singlet-A      2.1989 eV  563.84 nm  f=0.1291  <S**2>=0.000
     309 -> 313        0.63865
     311 -> 315        0.29226

 Excited State   5:      Singlet-A      3.3071 eV  374.91 nm  f=0.0054  <S**2>=0.000
     308 -> 313        0.66957
     308 -> 318        0.10681

 The electronic state is 1-A.
 Alpha  occ. eigenvalues --  -46.95452 -46.95231 -19.31493 -19.29674 -19.25512
 Alpha  occ. eigenvalues --  -19.24801 -19.24729 -19.24313 -19.24283 -19.23170
 Alpha  occ. eigenvalues --  -14.46791 -14.46536 -14.46332 -14.45957 -14.44759
 Alpha  occ. eigenvalues --  -14.44544 -14.44411 -14.43750 -10.43939 -10.43204
 Alpha  occ. eigenvalues --  -10.39486 -10.39484 -10.39383 -10.39236 -10.36182
 Alpha  occ. eigenvalues --  -10.36081 -10.35313 -10.35274 -10.35202 -10.35114
 Alpha  occ. eigenvalues --  -10.34774 -10.34683 -10.34662 -10.34661 -10.34385
 Alpha  occ. eigenvalues --  -10.34380 -10.34312 -10.34042 -10.33780 -10.33762
 Alpha  occ. eigenvalues --  -10.33294 -10.33086 -10.33005 -10.32945 -10.32776
 Alpha  occ. eigenvalues --  -10.32707 -10.32537 -10.32419 -10.32291 -10.32245
 Alpha  occ. eigenvalues --  -10.32242 -10.31835 -10.31828 -10.31810 -10.31760
 Alpha  occ. eigenvalues --  -10.31656 -10.31641 -10.31619 -10.31611 -10.31609
 Alpha  occ. eigenvalues --  -10.31597 -10.31545 -10.31534 -10.31441 -10.31423
 Alpha  occ. eigenvalues --  -10.31222 -10.31182 -10.31094 -10.30715 -10.30657
 Alpha  occ. eigenvalues --  -10.30547 -10.30524 -10.30468 -10.30398 -10.30331
 Alpha  occ. eigenvalues --  -10.30263 -10.30207 -10.30114 -10.29886 -10.29401
 Alpha  occ. eigenvalues --  -10.29324 -10.29125 -10.28968 -10.28805 -10.28754
 Alpha  occ. eigenvalues --  -10.28605  -3.21304  -3.21230  -1.94904  -1.94808
 Alpha  occ. eigenvalues --   -1.94382  -1.94341  -1.94302  -1.94213  -1.18716
 Alpha  occ. eigenvalues --   -1.17947  -1.13075  -1.12719  -1.12209  -1.10360
 Alpha  occ. eigenvalues --   -1.09443  -1.09043  -1.07457  -1.06744  -1.06299
 Alpha  occ. eigenvalues --   -1.05741  -1.04795  -1.04641  -1.04383  -1.03699
 Alpha  occ. eigenvalues --   -0.95324  -0.95150  -0.91232  -0.91116  -0.90629
 Alpha  occ. eigenvalues --   -0.90193  -0.89991  -0.89908  -0.89877  -0.89405
 Alpha  occ. eigenvalues --   -0.89038  -0.88801  -0.87959  -0.87515  -0.86576
 Alpha  occ. eigenvalues --   -0.86252  -0.85752  -0.85750  -0.84622  -0.84596
 Alpha  occ. eigenvalues --   -0.84336  -0.83907  -0.83320  -0.82837  -0.82433
 Alpha  occ. eigenvalues --   -0.81992  -0.80177  -0.80099  -0.79579  -0.79188
 Alpha  occ. eigenvalues --   -0.78810  -0.78707  -0.78210  -0.77854  -0.77274
 Alpha  occ. eigenvalues --   -0.76485  -0.75188  -0.74511  -0.74184  -0.72988
 Alpha  occ. eigenvalues --   -0.71718  -0.71370  -0.71038  -0.70420  -0.70401
 Alpha  occ. eigenvalues --   -0.69871  -0.69083  -0.68733  -0.68058  -0.67610
 Alpha  occ. eigenvalues --   -0.67325  -0.67103  -0.66830  -0.66766  -0.66648
 Alpha  occ. eigenvalues --   -0.65886  -0.64944  -0.64106  -0.62155  -0.62132
 Alpha  occ. eigenvalues --   -0.61917  -0.61600  -0.61494  -0.61056  -0.60888
 Alpha  occ. eigenvalues --   -0.60748  -0.60388  -0.60337  -0.59646  -0.59583
 Alpha  occ. eigenvalues --   -0.58168  -0.57889  -0.57851  -0.57715  -0.57587
 Alpha  occ. eigenvalues --   -0.57019  -0.56840  -0.56719  -0.56458  -0.55651
 Alpha  occ. eigenvalues --   -0.55563  -0.55491  -0.55318  -0.55279  -0.55241
 Alpha  occ. eigenvalues --   -0.54880  -0.54855  -0.54754  -0.54563  -0.54046
 Alpha  occ. eigenvalues --   -0.53810  -0.53661  -0.53633  -0.53338  -0.53316
 Alpha  occ. eigenvalues --   -0.53169  -0.52696  -0.52514  -0.52324  -0.52237
 Alpha  occ. eigenvalues --   -0.51979  -0.51886  -0.51833  -0.51555  -0.51514
 Alpha  occ. eigenvalues --   -0.51337  -0.51221  -0.51194  -0.50957  -0.50716
 Alpha  occ. eigenvalues --   -0.50561  -0.50392  -0.50072  -0.49843  -0.49790
 Alpha  occ. eigenvalues --   -0.49644  -0.49590  -0.49531  -0.49386  -0.49345
 Alpha  occ. eigenvalues --   -0.49107  -0.48972  -0.48643  -0.48563  -0.48374
 Alpha  occ. eigenvalues --   -0.48305  -0.48076  -0.47957  -0.47880  -0.47824
 Alpha  occ. eigenvalues --   -0.47531  -0.47367  -0.47165  -0.46953  -0.46900
 Alpha  occ. eigenvalues --   -0.46699  -0.46462  -0.46382  -0.46313  -0.46132
 Alpha  occ. eigenvalues --   -0.45671  -0.45560  -0.45527  -0.45521  -0.45357
 Alpha  occ. eigenvalues --   -0.45198  -0.45140  -0.45007  -0.44974  -0.44896
 Alpha  occ. eigenvalues --   -0.44801  -0.44759  -0.44618  -0.44250  -0.44234
 Alpha  occ. eigenvalues --   -0.43751  -0.43480  -0.43429  -0.43193  -0.43132
 Alpha  occ. eigenvalues --   -0.43068  -0.42997  -0.42770  -0.42310  -0.42229
 Alpha  occ. eigenvalues --   -0.42129  -0.41867  -0.40852  -0.40821  -0.40650
 Alpha  occ. eigenvalues --   -0.40346  -0.40203  -0.39911  -0.39885  -0.39756
 Alpha  occ. eigenvalues --   -0.39674  -0.39578  -0.38611  -0.38536  -0.38305
 Alpha  occ. eigenvalues --   -0.37763  -0.37742  -0.37134  -0.36301  -0.36090
 Alpha  occ. eigenvalues --   -0.36052  -0.35281  -0.34874  -0.33557  -0.33544
 Alpha  occ. eigenvalues --   -0.33509  -0.33388  -0.33138  -0.32459  -0.32313
 Alpha  occ. eigenvalues --   -0.32227  -0.32173  -0.31541  -0.26073  -0.25728
 Alpha  occ. eigenvalues --   -0.23103  -0.22740
 Alpha virt. eigenvalues --   -0.07281  -0.07018   0.00189   0.00460   0.02232
 Alpha virt. eigenvalues --    0.02397   0.03988   0.04511   0.05489   0.05531
 Alpha virt. eigenvalues --    0.06414   0.07384   0.07588   0.07786   0.08214

 Mulliken charges:
               1
     1  Mg   0.955825
     2  C   -0.016189
     3  C   -0.071951
     4  C   -0.061439
     5  C   -0.075464
     6  N   -0.370296
     7  C   -0.076330
     8  C   -0.019363
     9  C   -0.128220
    10  C    0.112500
    11  C    0.004209
    12  C    0.005686
    13  C   -0.087411
    14  H    0.044122
    15  N   -0.442681
    16  C    0.155607
    17  C   -0.170671
    18  C   -0.084810
    19  C    0.094738
    20  C    0.080135
    21  C    0.059059
    22  O   -0.231362
    23  C   -0.015833
    24  N   -0.372863
    25  C    0.091418
    26  C   -0.107452
    27  C   -0.062946
    28  C    0.055570
    29  C    0.009032
    30  C    0.009711
    31  C   -0.064278
    32  N   -0.405564
    33  C    0.114633
    34  C   -0.207842
    35  C   -0.016073
    36  C    0.137389
    37  C    0.069689
    38  C    0.119856
    39  O   -0.196950
    40  C   -0.033061
    41  C    0.261260
    42  O   -0.260776
    43  O   -0.368890
    44  C    0.150874
    45  H   -0.002593
    46  H    0.022743
    47  H   -0.005022
    48  H    0.035191
    49  H    0.041297
    50  H    0.033195
    51  H    0.028439
    52  H    0.050190
    53  H    0.018844
    54  H    0.026449
    55  H    0.050763
    56  H    0.056875
    57  H    0.044929
    58  H    0.041658
    59  H    0.050605
    60  H    0.068950
    61  H    0.058688
    62  H    0.044888
    63  H    0.042178
    64  H    0.041182
    65  H    0.028404
    66  H    0.042391
    67  H    0.055139
    68  H    0.035728
    69  H    0.040901
    70  H    0.024681
    71  H    0.026466
    72  H    0.047216
    73  H    0.017823
    74  H    0.060217
    75  H    0.049679
    76  H    0.082160
    77  H    0.044807
    78  H    0.059123
    79  H    0.053215
    80  Mg   0.980426
    81  C   -0.124139
    82  C   -0.080731
    83  C   -0.101689
    84  C   -0.096455
    85  N   -0.314518
    86  C   -0.024836
    87  C   -0.047747
    88  C   -0.085412
    89  C    0.061029
    90  C    0.030217
    91  C   -0.009413
    92  C   -0.101227
    93  H    0.050349
    94  N   -0.481354
    95  C    0.127718
    96  C   -0.142735
    97  C   -0.097918
    98  C    0.230273
    99  C    0.077094
   100  C    0.025801
   101  O   -0.277722
   102  C    0.020266
   103  N   -0.347090
   104  C    0.018887
   105  C   -0.090674
   106  C   -0.108925
   107  C    0.094472
   108  C    0.033639
   109  C    0.010082
   110  C   -0.047591
   111  N   -0.436591
   112  C    0.106306
   113  C   -0.206163
   114  C   -0.066883
   115  C    0.192943
   116  C    0.118112
   117  C    0.144209
   118  O   -0.188414
   119  C   -0.050739
   120  C    0.292349
   121  O   -0.254422
   122  O   -0.371196
   123  C    0.136622
   124  H   -0.000099
   125  H   -0.036520
   126  H    0.002952
   127  H    0.018593
   128  H    0.029563
   129  H    0.037166
   130  H    0.045351
   131  H    0.037073
   132  H    0.031076
   133  H    0.053674
   134  H    0.048094
   135  H    0.042456
   136  H    0.047747
   137  H    0.033310
   138  H    0.069369
   139  H    0.083922
   140  H    0.065069
   141  H    0.043292
   142  H    0.038404
   143  H    0.032670
   144  H    0.040655
   145  H    0.041129
   146  H    0.031829
   147  H    0.033603
   148  H    0.025541
   149  H    0.046670
   150  H    0.035578
   151  H    0.033273
   152  H    0.080986
   153  H    0.046771
   154  H    0.029904
   155  H    0.059588
   156  H    0.065668
   157  H    0.052748
   158  H    0.056684
 Sum of Mulliken charges =  -0.00000

 Dipole moment (field-independent basis, Debye):
    X=             -3.4556    Y=             -0.4438    Z=             -1.1311  Tot=              3.6630
 Quadrupole moment (field-independent basis, Debye-Ang):
   XX=           -122.7644   YY=           -551.5485   ZZ=           -485.7040
   XY=            -16.3461   XZ=             75.5991   YZ=            -14.8690

 Normal termination of Gaussian 16 at Sun Sep 19 22:47:34 2021.
