 Gaussian 16, Revision A.03,
 Gaussian 16:  ES64L-G16RevA.03 25-Dec-2016

 --------------------------------
 #p wB97XD/Def2SVP td=(nstates=5)
 --------------------------------

 --------------------------------
 TDDFT excited states in gaussian
 --------------------------------
 Symbolic Z-matrix:
 Charge =  0 Multiplicity = 1

                         Standard orientation:
 ---------------------------------------------------------------------
 Center     Atomic      Atomic             Coordinates (Angstroms)
 Number     Number       Type             X           Y           Z
 ---------------------------------------------------------------------
      1         12           0       20.837249    0.503262   -0.157519
      2          6           0       19.818258   -2.737676   -0.376551
      3          6           0       17.797589    1.210626    1.355541
      4          6           0       21.995593    3.604935    0.399669
      5          6           0       24.101249   -0.444068   -1.071103
      6          7           0       19.116683   -0.709875    0.654841
      7          6           0       18.948409   -2.018234    0.376889
      8          6           0       17.729809   -2.582878    1.010584
      9          6           0       16.890481   -1.178064    1.244095
     10          6           0       17.997225   -0.115480    1.078088
     11          6           0       15.680756   -1.028254    0.275016
     12          6           0       18.099860   -3.263324    2.318948
     13          6           0       18.890714   -2.434777    3.434204
     14          1           0       18.541369   -2.597654    4.908256
     15          7           0       20.027216    2.171060    0.744584
     16          6           0       18.690152    2.314285    1.194056
     17          6           0       18.491418    3.696296    1.478132
     18          6           0       19.664012    4.412709    1.272894
     19          6           0       20.639261    3.442504    0.747377
     20          6           0       17.120558    4.135536    1.950996
     21          6           0       19.922966    5.865948    1.591117
     22          8           0       18.954921    6.494519    2.087104
     23          6           0       21.190757    6.515191    1.576138
     24          7           0       22.842490    1.375292   -0.114832
     25          6           0       23.025448    2.711789    0.086682
     26          6           0       24.515638    3.102429   -0.059723
     27          6           0       25.171769    1.763159   -0.537042
     28          6           0       23.989351    0.809553   -0.506633
     29          6           0       24.744729    4.273143   -0.991657
     30          6           0       26.394523    1.330039    0.434975
     31          6           0       27.622042    0.789931   -0.307629
     32          7           0       21.868022   -1.255054   -0.662832
     33          6           0       23.096907   -1.475952   -1.197329
     34          6           0       23.095361   -2.820083   -1.707410
     35          6           0       21.805840   -3.408934   -1.466818
     36          6           0       21.115116   -2.408865   -0.802580
     37          6           0       24.302452   -3.573653   -2.150504
     38          6           0       20.969186   -4.564426   -1.520575
     39          8           0       21.290417   -5.637901   -2.045760
     40          6           0       19.663623   -4.162011   -0.859940
     41          6           0       18.564454   -4.339441   -1.839806
     42          8           0       18.387734   -5.432271   -2.341267
     43          8           0       17.782332   -3.239836   -2.020727
     44          6           0       16.679445   -3.409878   -2.968694
     45          1           0       16.762743    1.485561    1.569380
     46          1           0       22.280686    4.658255    0.362905
     47          1           0       25.033866   -0.774960   -1.533522
     48          1           0       17.153632   -3.320760    0.452237
     49          1           0       16.369674   -1.191620    2.202413
     50          1           0       14.758348   -0.922549    0.844890
     51          1           0       15.615516   -1.956946   -0.292506
     52          1           0       15.768336   -0.209493   -0.440351
     53          1           0       18.610322   -4.191372    2.060725
     54          1           0       17.140173   -3.663945    2.645229
     55          1           0       18.854744   -1.350089    3.332067
     56          1           0       19.898503   -2.835177    3.327935
     57          1           0       17.119263    3.966579    3.027985
     58          1           0       16.368967    3.485251    1.505147
     59          1           0       16.840242    5.166781    1.734296
     60          1           0       21.240219    7.324596    2.305189
     61          1           0       21.521942    6.804107    0.577836
     62          1           0       21.878243    5.783740    1.998755
     63          1           0       24.809109    3.336051    0.964297
     64          1           0       25.451911    1.851733   -1.586520
     65          1           0       23.828227    4.743956   -1.346267
     66          1           0       25.432248    4.200009   -1.833882
     67          1           0       25.101321    5.046535   -0.310729
     68          1           0       26.128167    0.566564    1.165982
     69          1           0       26.709525    2.146278    1.084831
     70          1           0       28.406226    1.544683   -0.255004
     71          1           0       27.368372    0.702386   -1.364294
     72          1           0       27.990713   -0.149096    0.105472
     73          1           0       24.779188   -3.260800   -3.078672
     74          1           0       23.977476   -4.612260   -2.222675
     75          1           0       25.112252   -3.515650   -1.423129
     76          1           0       19.519684   -4.853861   -0.029531
     77          1           0       16.064175   -4.238534   -2.616988
     78          1           0       17.009351   -3.541605   -3.999309
     79          1           0       16.121852   -2.480015   -3.079742
     80         12           0      -21.394950   -0.004318   -0.614774
     81          6           0      -18.026814   -0.185942    0.546418
     82          6           0      -21.946735   -2.736615    1.185802
     83          6           0      -24.711753    0.617114   -0.799552
     84          6           0      -20.613653    3.339433   -1.568242
     85          7           0      -20.151113   -1.326280    0.567144
     86          6           0      -18.769895   -1.283347    0.855947
     87          6           0      -18.290221   -2.478160    1.738946
     88          6           0      -19.601710   -3.303669    1.867529
     89          6           0      -20.632543   -2.462349    1.085528
     90          6           0      -19.310192   -4.717903    1.338685
     91          6           0      -17.651789   -2.139454    3.154759
     92          6           0      -16.175976   -2.473402    3.339088
     93          1           0      -15.798356   -3.396583    4.515526
     94          7           0      -23.079015   -0.936777   -0.014239
     95          6           0      -23.087092   -2.099562    0.755908
     96          6           0      -24.399210   -2.586330    0.901005
     97          6           0      -25.249295   -1.737143    0.216869
     98          6           0      -24.414311   -0.638365   -0.224557
     99          6           0      -24.894409   -3.879280    1.649296
    100          6           0      -26.731850   -1.992163    0.077983
    101          8           0      -27.278471   -2.992254    0.437398
    102          6           0      -27.552120   -0.872617   -0.732856
    103          7           0      -22.523799    1.744892   -1.041488
    104          6           0      -23.890861    1.712546   -1.087925
    105          6           0      -24.378784    3.197354   -1.342056
    106          6           0      -23.140353    4.032076   -1.708594
    107          6           0      -21.996897    2.989355   -1.408862
    108          6           0      -25.557094    3.327003   -2.264967
    109          6           0      -23.016372    5.206581   -0.745984
    110          6           0      -22.228687    6.401922   -1.212561
    111          7           0      -19.619896    1.255542   -0.770124
    112          6           0      -19.473112    2.554081   -1.196110
    113          6           0      -18.106786    2.930825   -1.159749
    114          6           0      -17.410550    1.866519   -0.539485
    115          6           0      -18.432529    0.927815   -0.222039
    116          6           0      -17.523263    4.236756   -1.524165
    117          6           0      -16.147166    1.317866   -0.028360
    118          8           0      -15.007700    1.795240   -0.113534
    119          6           0      -16.470613   -0.052843    0.680997
    120          6           0      -15.909563   -1.128190   -0.092642
    121          8           0      -16.438457   -1.497773   -1.167655
    122          8           0      -14.788938   -1.533037    0.536751
    123          6           0      -14.109055   -2.767461    0.057195
    124          1           0      -22.157161   -3.656016    1.736776
    125          1           0      -25.789963    0.754691   -0.905476
    126          1           0      -20.294834    4.308150   -1.957785
    127          1           0      -17.551086   -3.064490    1.193143
    128          1           0      -19.972219   -3.375932    2.889625
    129          1           0      -20.267891   -5.234174    1.279159
    130          1           0      -18.638073   -5.324534    1.945461
    131          1           0      -18.868553   -4.705419    0.341609
    132          1           0      -18.151091   -2.829123    3.835347
    133          1           0      -17.869165   -1.106278    3.425892
    134          1           0      -15.640086   -1.528039    3.430665
    135          1           0      -15.814091   -2.993870    2.451677
    136          1           0      -25.665855   -3.539415    2.340585
    137          1           0      -24.092246   -4.358712    2.210135
    138          1           0      -25.225223   -4.700069    1.012978
    139          1           0      -28.561779   -1.268714   -0.837276
    140          1           0      -26.993329   -0.790194   -1.665393
    141          1           0      -27.452170   -0.005961   -0.079458
    142          1           0      -24.738704    3.509155   -0.360943
    143          1           0      -23.092724    4.422237   -2.725211
    144          1           0      -25.489324    4.289072   -2.772104
    145          1           0      -26.440716    3.262612   -1.629701
    146          1           0      -25.682328    2.494564   -2.956416
    147          1           0      -22.613688    4.922215    0.226602
    148          1           0      -23.989084    5.584401   -0.431116
    149          1           0      -21.995284    6.367723   -2.276574
    150          1           0      -21.295377    6.424229   -0.649579
    151          1           0      -22.706834    7.327766   -0.892882
    152          1           0      -18.113620    4.742955   -2.288591
    153          1           0      -16.524376    4.013631   -1.899839
    154          1           0      -17.549955    4.829766   -0.609697
    155          1           0      -16.216022   -0.090397    1.740193
    156          1           0      -13.070907   -2.502770    0.263147
    157          1           0      -14.309296   -3.007726   -0.986553
    158          1           0      -14.263769   -3.601036    0.743092
 ---------------------------------------------------------------------

 SCF Done:  E(RwB97XD) =  -4070.61124371     A.U. after   19 cycles

 Excitation energies and oscillator strengths:

 Excited State   1:      Singlet-A      1.6724 eV  741.37 nm  f=0.3844  <S**2>=0.000
     309 -> 316       -0.17567
     312 -> 314        0.68501
     309 <- 316       -0.11216
 This state for optimization and/or second-order correction.
 Total Energy, E(TD-HF/TD-DFT) =  -4070.54978559
 Copying the excited state density for this state as the 1-particle RhoCI density.

 Excited State   2:      Singlet-A      1.6886 eV  734.23 nm  f=0.3952  <S**2>=0.000
     310 -> 315        0.18186
     311 -> 313        0.68275
     310 <- 315        0.11269

 Excited State   3:      Singlet-A      2.1633 eV  573.12 nm  f=0.1265  <S**2>=0.000
     310 -> 313        0.64778
     311 -> 315       -0.25633

 Excited State   4:      Singlet-A      2.2043 eV  562.46 nm  f=0.1139  <S**2>=0.000
     309 -> 314        0.63535
     312 -> 316        0.29115

 Excited State   5:      Singlet-A      3.2088 eV  386.39 nm  f=0.0008  <S**2>=0.000
     306 -> 313       -0.33778
     307 -> 313        0.59881

 The electronic state is 1-A.
 Alpha  occ. eigenvalues --  -46.95455 -46.94884 -19.31718 -19.31577 -19.24713
 Alpha  occ. eigenvalues --  -19.24601 -19.24406 -19.23786 -19.23298 -19.23225
 Alpha  occ. eigenvalues --  -14.47193 -14.46793 -14.46658 -14.46642 -14.44434
 Alpha  occ. eigenvalues --  -14.44185 -14.43165 -14.43057 -10.43343 -10.43283
 Alpha  occ. eigenvalues --  -10.39494 -10.39418 -10.38805 -10.38426 -10.36595
 Alpha  occ. eigenvalues --  -10.36470 -10.35730 -10.35723 -10.35524 -10.35325
 Alpha  occ. eigenvalues --  -10.35222 -10.35116 -10.34620 -10.34532 -10.34490
 Alpha  occ. eigenvalues --  -10.34467 -10.34171 -10.33713 -10.33154 -10.33022
 Alpha  occ. eigenvalues --  -10.33022 -10.32650 -10.32583 -10.32497 -10.32445
 Alpha  occ. eigenvalues --  -10.32428 -10.32427 -10.32427 -10.32407 -10.32213
 Alpha  occ. eigenvalues --  -10.32154 -10.32082 -10.31986 -10.31983 -10.31816
 Alpha  occ. eigenvalues --  -10.31798 -10.31658 -10.31515 -10.31428 -10.31359
 Alpha  occ. eigenvalues --  -10.31349 -10.31296 -10.31255 -10.31179 -10.31148
 Alpha  occ. eigenvalues --  -10.31076 -10.31002 -10.30979 -10.30922 -10.30769
 Alpha  occ. eigenvalues --  -10.30415 -10.30339 -10.30331 -10.30286 -10.30256
 Alpha  occ. eigenvalues --  -10.30201 -10.30069 -10.29706 -10.29668 -10.29507
 Alpha  occ. eigenvalues --  -10.29415 -10.29279 -10.28985 -10.28868 -10.28804
 Alpha  occ. eigenvalues --  -10.28543  -3.21361  -3.20923  -1.94923  -1.94500
 Alpha  occ. eigenvalues --   -1.94489  -1.94310  -1.94027  -1.93915  -1.19564
 Alpha  occ. eigenvalues --   -1.18820  -1.14242  -1.11224  -1.10890  -1.10622
 Alpha  occ. eigenvalues --   -1.10190  -1.09569  -1.06970  -1.06532  -1.06165
 Alpha  occ. eigenvalues --   -1.05253  -1.04859  -1.04731  -1.03773  -1.03589
 Alpha  occ. eigenvalues --   -0.96038  -0.94175  -0.91527  -0.91228  -0.91224
 Alpha  occ. eigenvalues --   -0.90901  -0.90695  -0.90623  -0.89699  -0.89299
 Alpha  occ. eigenvalues --   -0.88644  -0.88434  -0.88330  -0.87770  -0.87008
 Alpha  occ. eigenvalues --   -0.86731  -0.86139  -0.85999  -0.85279  -0.85199
 Alpha  occ. eigenvalues --   -0.84692  -0.83847  -0.83381  -0.83118  -0.82844
 Alpha  occ. eigenvalues --   -0.82273  -0.80559  -0.79960  -0.79662  -0.79346
 Alpha  occ. eigenvalues --   -0.78962  -0.78625  -0.78179  -0.78048  -0.77111
 Alpha  occ. eigenvalues --   -0.76920  -0.74741  -0.74468  -0.74105  -0.73721
 Alpha  occ. eigenvalues --   -0.72069  -0.71256  -0.71065  -0.70779  -0.70529
 Alpha  occ. eigenvalues --   -0.69728  -0.69250  -0.69156  -0.68471  -0.67666
 Alpha  occ. eigenvalues --   -0.67508  -0.67335  -0.67195  -0.67017  -0.66575
 Alpha  occ. eigenvalues --   -0.66350  -0.65794  -0.64227  -0.62212  -0.62197
 Alpha  occ. eigenvalues --   -0.61697  -0.61623  -0.61400  -0.61323  -0.60721
 Alpha  occ. eigenvalues --   -0.60472  -0.60366  -0.60206  -0.60018  -0.59157
 Alpha  occ. eigenvalues --   -0.58734  -0.58567  -0.58390  -0.58004  -0.57763
 Alpha  occ. eigenvalues --   -0.57082  -0.56977  -0.56635  -0.56456  -0.56213
 Alpha  occ. eigenvalues --   -0.56204  -0.55782  -0.55689  -0.55432  -0.55112
 Alpha  occ. eigenvalues --   -0.55014  -0.54834  -0.54448  -0.54440  -0.54369
 Alpha  occ. eigenvalues --   -0.53800  -0.53706  -0.53641  -0.53405  -0.53331
 Alpha  occ. eigenvalues --   -0.53156  -0.53007  -0.52804  -0.52463  -0.52311
 Alpha  occ. eigenvalues --   -0.52282  -0.52091  -0.51943  -0.51764  -0.51565
 Alpha  occ. eigenvalues --   -0.51421  -0.51181  -0.51036  -0.50896  -0.50687
 Alpha  occ. eigenvalues --   -0.50575  -0.50406  -0.50396  -0.50174  -0.50055
 Alpha  occ. eigenvalues --   -0.49982  -0.49537  -0.49469  -0.49425  -0.49023
 Alpha  occ. eigenvalues --   -0.48903  -0.48647  -0.48403  -0.48377  -0.48368
 Alpha  occ. eigenvalues --   -0.48250  -0.48041  -0.47995  -0.47663  -0.47586
 Alpha  occ. eigenvalues --   -0.47547  -0.47254  -0.47131  -0.47065  -0.46894
 Alpha  occ. eigenvalues --   -0.46810  -0.46694  -0.46575  -0.46510  -0.46466
 Alpha  occ. eigenvalues --   -0.46254  -0.46079  -0.45753  -0.45683  -0.45497
 Alpha  occ. eigenvalues --   -0.45449  -0.45261  -0.45000  -0.44736  -0.44726
 Alpha  occ. eigenvalues --   -0.44526  -0.44316  -0.44238  -0.44221  -0.44177
 Alpha  occ. eigenvalues --   -0.43843  -0.43824  -0.43729  -0.43591  -0.43564
 Alpha  occ. eigenvalues --   -0.43292  -0.43065  -0.42924  -0.42519  -0.42338
 Alpha  occ. eigenvalues --   -0.42117  -0.42010  -0.41418  -0.41101  -0.41086
 Alpha  occ. eigenvalues --   -0.40649  -0.40401  -0.40134  -0.39786  -0.39693
 Alpha  occ. eigenvalues --   -0.39587  -0.39459  -0.39260  -0.38981  -0.38783
 Alpha  occ. eigenvalues --   -0.37945  -0.37880  -0.36706  -0.36245  -0.36154
 Alpha  occ. eigenvalues --   -0.35967  -0.35284  -0.35207  -0.34033  -0.33982
 Alpha  occ. eigenvalues --   -0.32995  -0.32806  -0.32745  -0.32674  -0.32384
 Alpha  occ. eigenvalues --   -0.32298  -0.31124  -0.31074  -0.26221  -0.26211
 Alpha  occ. eigenvalues --   -0.23464  -0.23077
 Alpha virt. eigenvalues --   -0.07484  -0.07104   0.00063   0.00216   0.02228
 Alpha virt. eigenvalues --    0.02643   0.04135   0.04477   0.04778   0.05436
 Alpha virt. eigenvalues --    0.06747   0.07214   0.07371   0.08035   0.08088

 Mulliken charges:
               1
     1  Mg   0.931870
     2  C   -0.001116
     3  C   -0.065808
     4  C   -0.091691
     5  C   -0.077496
     6  N   -0.307421
     7  C    0.004398
     8  C   -0.074563
     9  C   -0.126337
    10  C    0.080564
    11  C    0.020486
    12  C    0.008009
    13  C   -0.131162
    14  H    0.036905
    15  N   -0.514613
    16  C    0.148957
    17  C   -0.151796
    18  C   -0.055487
    19  C    0.178139
    20  C    0.087339
    21  C    0.034451
    22  O   -0.271013
    23  C    0.017125
    24  N   -0.324880
    25  C    0.043822
    26  C   -0.057471
    27  C   -0.088551
    28  C    0.105880
    29  C    0.017432
    30  C   -0.009878
    31  C   -0.055791
    32  N   -0.439981
    33  C    0.094680
    34  C   -0.179757
    35  C    0.011870
    36  C    0.117588
    37  C    0.048050
    38  C    0.071015
    39  O   -0.201941
    40  C   -0.081159
    41  C    0.257048
    42  O   -0.227872
    43  O   -0.352627
    44  C    0.138916
    45  H   -0.003833
    46  H   -0.037244
    47  H   -0.005234
    48  H    0.022113
    49  H    0.037582
    50  H    0.038146
    51  H    0.026470
    52  H    0.039104
    53  H    0.025006
    54  H    0.032724
    55  H    0.078057
    56  H    0.066397
    57  H    0.053649
    58  H    0.029961
    59  H    0.063960
    60  H    0.061100
    61  H    0.077271
    62  H    0.047593
    63  H    0.049733
    64  H    0.040762
    65  H    0.036128
    66  H    0.051916
    67  H    0.027114
    68  H    0.036486
    69  H    0.027974
    70  H    0.034942
    71  H    0.031367
    72  H    0.047269
    73  H    0.038313
    74  H    0.058157
    75  H    0.037777
    76  H    0.089610
    77  H    0.063409
    78  H    0.059065
    79  H    0.051020
    80  Mg   0.984567
    81  C   -0.043462
    82  C   -0.132111
    83  C   -0.102564
    84  C   -0.063519
    85  N   -0.377802
    86  C    0.011411
    87  C   -0.047244
    88  C   -0.123594
    89  C    0.121256
    90  C    0.014120
    91  C    0.012120
    92  C   -0.135608
    93  H    0.033940
    94  N   -0.504907
    95  C    0.212696
    96  C   -0.172281
    97  C   -0.054785
    98  C    0.150060
    99  C    0.106013
   100  C    0.008178
   101  O   -0.195251
   102  C   -0.027737
   103  N   -0.393326
   104  C    0.110676
   105  C   -0.081215
   106  C   -0.082623
   107  C    0.108117
   108  C    0.029378
   109  C   -0.045341
   110  C   -0.025462
   111  N   -0.385767
   112  C    0.093585
   113  C   -0.223154
   114  C    0.000588
   115  C    0.116374
   116  C    0.079641
   117  C    0.129029
   118  O   -0.222441
   119  C   -0.072387
   120  C    0.292540
   121  O   -0.280003
   122  O   -0.349491
   123  C    0.124688
   124  H   -0.016724
   125  H   -0.040294
   126  H   -0.012800
   127  H    0.028296
   128  H    0.045440
   129  H    0.027695
   130  H    0.042806
   131  H    0.043027
   132  H    0.041073
   133  H    0.048495
   134  H    0.069459
   135  H    0.032938
   136  H    0.061775
   137  H    0.011486
   138  H    0.062651
   139  H    0.058161
   140  H    0.066176
   141  H    0.068481
   142  H    0.046815
   143  H    0.038423
   144  H    0.041332
   145  H    0.031654
   146  H    0.038551
   147  H    0.030400
   148  H    0.021527
   149  H    0.036040
   150  H    0.030029
   151  H    0.032949
   152  H    0.030620
   153  H    0.066786
   154  H    0.060792
   155  H    0.055731
   156  H    0.061721
   157  H    0.085139
   158  H    0.056447
 Sum of Mulliken charges =  -0.00000

 Dipole moment (field-independent basis, Debye):
    X=             -0.8643    Y=              4.1640    Z=              0.6279  Tot=              4.2988
 Quadrupole moment (field-independent basis, Debye-Ang):
   XX=           -398.2424   YY=           -541.6071   ZZ=           -511.8426
   XY=             92.6061   XZ=             -5.3108   YZ=            -36.7268

 Normal termination of Gaussian 16 at Sun Sep 19 19:46:01 2021.
