 Gaussian 16, Revision A.03,
 Gaussian 16:  ES64L-G16RevA.03 25-Dec-2016

 --------------------------------
 #p wB97XD/Def2SVP td=(nstates=5)
 --------------------------------

 --------------------------------
 TDDFT excited states in gaussian
 --------------------------------
 Symbolic Z-matrix:
 Charge =  0 Multiplicity = 1

                         Standard orientation:
 ---------------------------------------------------------------------
 Center     Atomic      Atomic             Coordinates (Angstroms)
 Number     Number       Type             X           Y           Z
 ---------------------------------------------------------------------
      1         12           0       25.664148    0.385483    0.675083
      2          6           0       24.254806   -1.794275   -1.819833
      3          6           0       25.614253    2.849361   -1.687259
      4          6           0       27.254341    2.319864    2.906883
      5          6           0       26.058249   -2.328074    2.683179
      6          7           0       24.924023    0.500048   -1.582513
      7          6           0       24.366859   -0.524387   -2.291410
      8          6           0       23.870484    0.045512   -3.565837
      9          6           0       24.417472    1.499330   -3.605655
     10          6           0       25.097992    1.692804   -2.222928
     11          6           0       25.446857    1.702589   -4.762594
     12          6           0       22.380432   -0.032014   -3.786039
     13          6           0       21.814059    0.309252   -5.154871
     14          1           0       20.869221   -0.653598   -5.741496
     15          7           0       26.229920    2.320892    0.654457
     16          6           0       26.215372    3.179477   -0.479300
     17          6           0       26.641741    4.508752   -0.003012
     18          6           0       27.180469    4.305061    1.264735
     19          6           0       26.952151    2.898650    1.642936
     20          6           0       26.618420    5.715216   -0.918107
     21          6           0       27.832491    5.316697    2.231887
     22          8           0       28.482703    4.995330    3.244147
     23          6           0       27.634314    6.746569    1.932661
     24          7           0       26.613113    0.051309    2.539784
     25          6           0       27.189246    0.957661    3.302480
     26          6           0       27.769173    0.376980    4.621405
     27          6           0       27.148829   -1.021865    4.611055
     28          6           0       26.537567   -1.093928    3.230517
     29          6           0       29.334794    0.350092    4.599506
     30          6           0       26.146127   -1.333272    5.699170
     31          6           0       26.256759   -2.716722    6.364333
     32          7           0       25.162977   -1.603744    0.509342
     33          6           0       25.388413   -2.591372    1.443170
     34          6           0       24.832340   -3.902780    0.992333
     35          6           0       24.425870   -3.553463   -0.279688
     36          6           0       24.677491   -2.205307   -0.561570
     37          6           0       24.642616   -5.157635    1.782485
     38          6           0       23.809367   -4.120162   -1.470170
     39          8           0       23.394736   -5.263237   -1.625631
     40          6           0       23.661900   -3.009438   -2.535249
     41          6           0       24.222004   -3.534463   -3.754331
     42          8           0       25.438934   -3.660333   -4.032467
     43          8           0       23.239854   -3.735373   -4.676005
     44          6           0       23.617598   -3.997118   -6.047683
     45          1           0       25.525983    3.669101   -2.402923
     46          1           0       27.911986    2.893976    3.562660
     47          1           0       26.437870   -3.153243    3.289033
     48          1           0       24.384052   -0.558056   -4.313058
     49          1           0       23.627677    2.237100   -3.748211
     50          1           0       25.384162    2.514235   -5.488128
     51          1           0       25.383820    0.778119   -5.336382
     52          1           0       26.493903    1.675286   -4.459658
     53          1           0       21.850700    0.679292   -3.152151
     54          1           0       21.950700   -0.933966   -3.351129
     55          1           0       22.613319    0.410407   -5.887544
     56          1           0       21.139241    1.147207   -4.982016
     57          1           0       27.529074    6.313375   -0.894017
     58          1           0       25.784521    6.393162   -0.737291
     59          1           0       26.553836    5.483353   -1.981488
     60          1           0       26.568736    6.922381    1.784558
     61          1           0       28.176595    6.862384    0.994893
     62          1           0       27.920143    7.289693    2.832696
     63          1           0       27.376004    1.001756    5.424115
     64          1           0       27.848326   -1.856789    4.640928
     65          1           0       29.718172   -0.669382    4.569180
     66          1           0       29.750935    0.786432    5.507561
     67          1           0       29.617765    0.878472    3.688971
     68          1           0       25.120771   -1.207963    5.352710
     69          1           0       26.179094   -0.454814    6.342812
     70          1           0       25.865830   -2.608587    7.375588
     71          1           0       27.253639   -3.151388    6.284663
     72          1           0       25.606671   -3.308359    5.720121
     73          1           0       23.625923   -5.309475    2.145430
     74          1           0       25.437379   -5.147903    2.527835
     75          1           0       24.994387   -6.005957    1.194053
     76          1           0       22.591219   -2.970584   -2.735633
     77          1           0       24.684110   -3.899680   -6.252301
     78          1           0       23.012037   -3.404411   -6.732773
     79          1           0       23.373688   -5.015548   -6.351155
     80         12           0      -26.025642   -0.578873   -0.532250
     81          6           0      -24.437903    2.572123   -1.009167
     82          6           0      -23.018975   -2.141486   -1.033194
     83          6           0      -27.333776   -3.464896    0.953251
     84          6           0      -28.912031    1.113989    0.540804
     85          7           0      -23.862802    0.277896   -0.732118
     86          6           0      -23.508781    1.509792   -1.133178
     87          6           0      -22.151546    1.447306   -1.809619
     88          6           0      -21.639080   -0.072002   -1.764739
     89          6           0      -23.032674   -0.703239   -1.256798
     90          6           0      -21.241899   -0.505658   -3.193713
     91          6           0      -21.171406    2.401409   -1.146219
     92          6           0      -21.257611    2.532695    0.392977
     93          1           0      -20.118518    1.873322    1.217584
     94          7           0      -25.300522   -2.602646   -0.168390
     95          6           0      -24.006946   -2.980269   -0.456058
     96          6           0      -23.960963   -4.393867   -0.249662
     97          6           0      -25.162391   -4.838259    0.423185
     98          6           0      -26.043240   -3.643115    0.400526
     99          6           0      -22.706515   -5.208098   -0.466678
    100          6           0      -25.405254   -6.173639    1.128289
    101          8           0      -24.513383   -6.997408    1.195225
    102          6           0      -26.647646   -6.524201    1.748734
    103          7           0      -27.811613   -1.090364    0.678388
    104          6           0      -28.152461   -2.327803    1.006669
    105          6           0      -29.480232   -2.412719    1.741744
    106          6           0      -29.786083   -0.862932    1.915593
    107          6           0      -28.845698   -0.225038    0.957752
    108          6           0      -30.623220   -3.197948    0.931028
    109          6           0      -29.632899   -0.430924    3.446316
    110          6           0      -30.836540   -0.024198    4.248398
    111          7           0      -26.661398    1.327584   -0.506784
    112          6           0      -27.918361    1.862977   -0.159089
    113          6           0      -27.966246    3.308200   -0.449045
    114          6           0      -26.639804    3.566273   -0.794451
    115          6           0      -25.815908    2.389857   -0.710608
    116          6           0      -29.195438    4.280755   -0.483490
    117          6           0      -25.750413    4.666326   -1.180776
    118          8           0      -25.935335    5.878537   -1.378898
    119          6           0      -24.307865    4.086341   -1.353640
    120          6           0      -23.603062    4.844408   -0.282185
    121          8           0      -23.894602    4.831684    0.886248
    122          8           0      -22.682675    5.641253   -0.817575
    123          6           0      -21.784283    6.442261    0.085315
    124          1           0      -22.165505   -2.659215   -1.475576
    125          1           0      -27.890643   -4.299279    1.384267
    126          1           0      -29.803267    1.546383    1.001510
    127          1           0      -22.449609    1.814973   -2.791522
    128          1           0      -20.820577   -0.216994   -1.059160
    129          1           0      -20.189498   -0.788504   -3.181464
    130          1           0      -21.333956    0.277518   -3.946658
    131          1           0      -21.845301   -1.385740   -3.414490
    132          1           0      -21.304459    3.402706   -1.555948
    133          1           0      -20.144873    2.079763   -1.324323
    134          1           0      -22.087730    2.039412    0.898430
    135          1           0      -21.283075    3.607862    0.570738
    136          1           0      -21.861183   -4.582243   -0.753861
    137          1           0      -22.949391   -6.004464   -1.171015
    138          1           0      -22.514612   -5.756274    0.455032
    139          1           0      -26.934951   -5.908921    2.601640
    140          1           0      -26.592788   -7.551766    2.107673
    141          1           0      -27.367695   -6.368954    0.944556
    142          1           0      -29.402147   -2.802397    2.756393
    143          1           0      -30.861063   -0.841556    1.735631
    144          1           0      -30.204704   -3.595085    0.005782
    145          1           0      -31.385437   -2.466462    0.661926
    146          1           0      -31.147738   -3.981251    1.480390
    147          1           0      -29.046515    0.483039    3.541493
    148          1           0      -29.141068   -1.211607    4.024986
    149          1           0      -30.945836    1.054068    4.364843
    150          1           0      -30.578092   -0.484270    5.202717
    151          1           0      -31.756450   -0.551213    3.994635
    152          1           0      -29.468354    4.503716    0.547606
    153          1           0      -29.975082    3.789116   -1.065569
    154          1           0      -28.873581    5.223891   -0.924712
    155          1           0      -24.017809    4.308114   -2.381323
    156          1           0      -22.230896    7.386983    0.396210
    157          1           0      -20.836041    6.669451   -0.403538
    158          1           0      -21.595095    5.787996    0.936323
 ---------------------------------------------------------------------

 SCF Done:  E(RwB97XD) =  -4070.57947847     A.U. after   20 cycles

 Excitation energies and oscillator strengths:

 Excited State   1:      Singlet-A      1.6285 eV  761.32 nm  f=0.3483  <S**2>=0.000
     309 -> 315       -0.20689
     311 -> 313        0.67852
     309 <- 315       -0.12523
 This state for optimization and/or second-order correction.
 Total Energy, E(TD-HF/TD-DFT) =  -4070.51963064
 Copying the excited state density for this state as the 1-particle RhoCI density.

 Excited State   2:      Singlet-A      1.6934 eV  732.14 nm  f=0.3782  <S**2>=0.000
     310 -> 316        0.20454
     312 -> 314        0.67932
     310 <- 316        0.12255

 Excited State   3:      Singlet-A      2.1415 eV  578.96 nm  f=0.0705  <S**2>=0.000
     309 -> 313        0.61694
     311 -> 315        0.33159

 Excited State   4:      Singlet-A      2.2626 eV  547.96 nm  f=0.0703  <S**2>=0.000
     310 -> 314        0.61593
     312 -> 316       -0.33991

 Excited State   5:      Singlet-A      3.1856 eV  389.21 nm  f=0.0153  <S**2>=0.000
     308 -> 313        0.65682
     308 -> 317       -0.10732
     311 -> 315       -0.20214

 The electronic state is 1-A.
 Alpha  occ. eigenvalues --  -46.96553 -46.94850 -19.30414 -19.30302 -19.24086
 Alpha  occ. eigenvalues --  -19.23917 -19.23831 -19.23801 -19.23682 -19.23095
 Alpha  occ. eigenvalues --  -14.47024 -14.46569 -14.46484 -14.45719 -14.44758
 Alpha  occ. eigenvalues --  -14.44399 -14.44197 -14.44162 -10.43005 -10.42577
 Alpha  occ. eigenvalues --  -10.39231 -10.39010 -10.38488 -10.38271 -10.36235
 Alpha  occ. eigenvalues --  -10.36123 -10.35407 -10.35021 -10.35018 -10.34964
 Alpha  occ. eigenvalues --  -10.34799 -10.34738 -10.34726 -10.34613 -10.34593
 Alpha  occ. eigenvalues --  -10.34568 -10.34470 -10.34446 -10.34093 -10.33975
 Alpha  occ. eigenvalues --  -10.33921 -10.33205 -10.33011 -10.32955 -10.32818
 Alpha  occ. eigenvalues --  -10.32546 -10.32447 -10.32393 -10.32385 -10.32231
 Alpha  occ. eigenvalues --  -10.32225 -10.32204 -10.32178 -10.32147 -10.32042
 Alpha  occ. eigenvalues --  -10.32025 -10.31908 -10.31732 -10.31729 -10.31504
 Alpha  occ. eigenvalues --  -10.31477 -10.31439 -10.31265 -10.31153 -10.31119
 Alpha  occ. eigenvalues --  -10.31038 -10.30998 -10.30971 -10.30873 -10.30687
 Alpha  occ. eigenvalues --  -10.30555 -10.30346 -10.30234 -10.30096 -10.30087
 Alpha  occ. eigenvalues --  -10.29969 -10.29852 -10.29846 -10.29845 -10.29832
 Alpha  occ. eigenvalues --  -10.29774 -10.29570 -10.29509 -10.29325 -10.28994
 Alpha  occ. eigenvalues --  -10.28652  -3.22347  -3.20887  -1.95892  -1.95495
 Alpha  occ. eigenvalues --   -1.95280  -1.94487  -1.94004  -1.93868  -1.19243
 Alpha  occ. eigenvalues --   -1.18318  -1.12434  -1.11723  -1.11288  -1.11048
 Alpha  occ. eigenvalues --   -1.09910  -1.08166  -1.07778  -1.06624  -1.06605
 Alpha  occ. eigenvalues --   -1.05684  -1.05096  -1.04437  -1.04243  -1.03669
 Alpha  occ. eigenvalues --   -0.95168  -0.93930  -0.91958  -0.91196  -0.90840
 Alpha  occ. eigenvalues --   -0.90687  -0.90422  -0.90172  -0.89548  -0.89032
 Alpha  occ. eigenvalues --   -0.89016  -0.88585  -0.88079  -0.87342  -0.86636
 Alpha  occ. eigenvalues --   -0.86608  -0.85962  -0.85927  -0.84827  -0.84789
 Alpha  occ. eigenvalues --   -0.84537  -0.84536  -0.83206  -0.83064  -0.82870
 Alpha  occ. eigenvalues --   -0.82219  -0.80641  -0.79848  -0.79654  -0.79381
 Alpha  occ. eigenvalues --   -0.79300  -0.78491  -0.78345  -0.78219  -0.77190
 Alpha  occ. eigenvalues --   -0.76923  -0.74996  -0.74857  -0.73937  -0.73726
 Alpha  occ. eigenvalues --   -0.71463  -0.71234  -0.70861  -0.70455  -0.70103
 Alpha  occ. eigenvalues --   -0.70049  -0.68698  -0.68538  -0.68336  -0.67500
 Alpha  occ. eigenvalues --   -0.67381  -0.67166  -0.67116  -0.66783  -0.66574
 Alpha  occ. eigenvalues --   -0.66038  -0.64544  -0.64427  -0.62400  -0.62257
 Alpha  occ. eigenvalues --   -0.61907  -0.61500  -0.61263  -0.61013  -0.60770
 Alpha  occ. eigenvalues --   -0.60646  -0.60371  -0.59823  -0.59632  -0.59262
 Alpha  occ. eigenvalues --   -0.58480  -0.58229  -0.57827  -0.57706  -0.57529
 Alpha  occ. eigenvalues --   -0.56979  -0.56883  -0.56486  -0.56378  -0.55969
 Alpha  occ. eigenvalues --   -0.55836  -0.55823  -0.55428  -0.55399  -0.55135
 Alpha  occ. eigenvalues --   -0.55022  -0.54891  -0.54586  -0.54464  -0.53974
 Alpha  occ. eigenvalues --   -0.53918  -0.53807  -0.53690  -0.53646  -0.53463
 Alpha  occ. eigenvalues --   -0.53136  -0.52726  -0.52611  -0.52459  -0.52228
 Alpha  occ. eigenvalues --   -0.52077  -0.51871  -0.51743  -0.51626  -0.51592
 Alpha  occ. eigenvalues --   -0.51396  -0.51174  -0.51015  -0.50932  -0.50610
 Alpha  occ. eigenvalues --   -0.50486  -0.50320  -0.50275  -0.50191  -0.49888
 Alpha  occ. eigenvalues --   -0.49767  -0.49719  -0.49302  -0.49238  -0.49170
 Alpha  occ. eigenvalues --   -0.48984  -0.48918  -0.48844  -0.48542  -0.48476
 Alpha  occ. eigenvalues --   -0.48210  -0.48164  -0.47974  -0.47748  -0.47555
 Alpha  occ. eigenvalues --   -0.47521  -0.47245  -0.47098  -0.47097  -0.47041
 Alpha  occ. eigenvalues --   -0.47020  -0.46807  -0.46472  -0.46272  -0.45925
 Alpha  occ. eigenvalues --   -0.45884  -0.45840  -0.45638  -0.45610  -0.45503
 Alpha  occ. eigenvalues --   -0.45346  -0.45137  -0.45073  -0.44866  -0.44472
 Alpha  occ. eigenvalues --   -0.44359  -0.44348  -0.43989  -0.43976  -0.43680
 Alpha  occ. eigenvalues --   -0.43654  -0.43515  -0.43460  -0.43358  -0.43264
 Alpha  occ. eigenvalues --   -0.43221  -0.42986  -0.42782  -0.42774  -0.42052
 Alpha  occ. eigenvalues --   -0.42001  -0.41971  -0.41819  -0.41732  -0.40718
 Alpha  occ. eigenvalues --   -0.40551  -0.39910  -0.39849  -0.39393  -0.39230
 Alpha  occ. eigenvalues --   -0.39147  -0.38853  -0.38342  -0.38026  -0.37921
 Alpha  occ. eigenvalues --   -0.37691  -0.37674  -0.36200  -0.36092  -0.35891
 Alpha  occ. eigenvalues --   -0.35620  -0.35502  -0.35174  -0.33787  -0.33600
 Alpha  occ. eigenvalues --   -0.32998  -0.32764  -0.32764  -0.32612  -0.32540
 Alpha  occ. eigenvalues --   -0.32445  -0.32390  -0.31126  -0.26207  -0.26012
 Alpha  occ. eigenvalues --   -0.23126  -0.22732
 Alpha virt. eigenvalues --   -0.07127  -0.06518  -0.00669   0.00091   0.02340
 Alpha virt. eigenvalues --    0.02780   0.04134   0.04570   0.04612   0.06122
 Alpha virt. eigenvalues --    0.06674   0.07172   0.07586   0.08121   0.08958

 Mulliken charges:
               1
     1  Mg   0.974636
     2  C    0.002861
     3  C   -0.074017
     4  C   -0.058905
     5  C   -0.108668
     6  N   -0.330755
     7  C   -0.063241
     8  C    0.015592
     9  C   -0.121625
    10  C    0.063839
    11  C    0.011219
    12  C    0.011722
    13  C   -0.119985
    14  H    0.035302
    15  N   -0.515790
    16  C    0.190001
    17  C   -0.128851
    18  C   -0.091741
    19  C    0.167181
    20  C    0.036531
    21  C    0.055217
    22  O   -0.254769
    23  C    0.008728
    24  N   -0.326290
    25  C   -0.014168
    26  C   -0.059957
    27  C   -0.104879
    28  C    0.037523
    29  C    0.034228
    30  C    0.005181
    31  C   -0.035303
    32  N   -0.421193
    33  C    0.133184
    34  C   -0.209174
    35  C   -0.009064
    36  C    0.152754
    37  C    0.108940
    38  C    0.073437
    39  O   -0.209184
    40  C   -0.032303
    41  C    0.264762
    42  O   -0.283641
    43  O   -0.351480
    44  C    0.134883
    45  H   -0.012390
    46  H    0.030653
    47  H    0.003594
    48  H    0.033958
    49  H    0.037504
    50  H    0.041017
    51  H    0.017663
    52  H    0.035931
    53  H    0.014281
    54  H    0.025757
    55  H    0.056584
    56  H    0.056708
    57  H    0.040377
    58  H    0.054027
    59  H    0.038996
    60  H    0.053152
    61  H    0.060421
    62  H    0.061919
    63  H    0.043780
    64  H    0.028149
    65  H    0.033576
    66  H    0.048030
    67  H    0.054509
    68  H    0.023077
    69  H    0.008871
    70  H    0.052205
    71  H    0.038556
    72  H    0.041140
    73  H    0.077473
    74  H    0.017137
    75  H    0.049456
    76  H    0.080873
    77  H    0.066843
    78  H    0.047335
    79  H    0.046103
    80  Mg   0.941864
    81  C   -0.038135
    82  C   -0.073409
    83  C   -0.078314
    84  C   -0.055598
    85  N   -0.320079
    86  C   -0.052922
    87  C   -0.003152
    88  C   -0.147380
    89  C    0.056902
    90  C    0.022582
    91  C   -0.011499
    92  C   -0.138149
    93  H    0.013820
    94  N   -0.462165
    95  C    0.168027
    96  C   -0.175013
    97  C   -0.086724
    98  C    0.201773
    99  C    0.084787
   100  C    0.035903
   101  O   -0.236001
   102  C    0.005285
   103  N   -0.322631
   104  C    0.047415
   105  C   -0.151646
   106  C   -0.062532
   107  C    0.046571
   108  C    0.017235
   109  C   -0.028926
   110  C   -0.050499
   111  N   -0.501213
   112  C    0.150868
   113  C   -0.184734
   114  C   -0.035119
   115  C    0.186822
   116  C    0.087878
   117  C    0.097744
   118  O   -0.231092
   119  C   -0.050392
   120  C    0.238076
   121  O   -0.235894
   122  O   -0.346776
   123  C    0.130818
   124  H    0.013603
   125  H   -0.019907
   126  H    0.003336
   127  H    0.035238
   128  H    0.061572
   129  H    0.033382
   130  H    0.044474
   131  H    0.040384
   132  H    0.041124
   133  H    0.041303
   134  H    0.087259
   135  H    0.047498
   136  H    0.029811
   137  H    0.048574
   138  H    0.062091
   139  H    0.066389
   140  H    0.056736
   141  H    0.054694
   142  H    0.040394
   143  H    0.018088
   144  H    0.043570
   145  H    0.031210
   146  H    0.046346
   147  H    0.037486
   148  H    0.032160
   149  H    0.053212
   150  H    0.028101
   151  H    0.026655
   152  H    0.054286
   153  H    0.056626
   154  H    0.063019
   155  H    0.067930
   156  H    0.072771
   157  H    0.059131
   158  H    0.067079
 Sum of Mulliken charges =  -0.00000

 Dipole moment (field-independent basis, Debye):
    X=             -3.0654    Y=              3.4929    Z=             -1.0696  Tot=              4.7688
 Quadrupole moment (field-independent basis, Debye-Ang):
   XX=           -465.0285   YY=           -556.2113   ZZ=           -478.4870
   XY=            148.4049   XZ=             21.1782   YZ=            -24.6436

 Normal termination of Gaussian 16 at Mon Sep 20 01:39:02 2021.
