 Gaussian 16, Revision A.03,
 Gaussian 16:  ES64L-G16RevA.03 25-Dec-2016

 --------------------------------
 #p wB97XD/Def2SVP td=(nstates=5)
 --------------------------------

 --------------------------------
 TDDFT excited states in gaussian
 --------------------------------
 Symbolic Z-matrix:
 Charge =  0 Multiplicity = 1

                         Standard orientation:
 ---------------------------------------------------------------------
 Center     Atomic      Atomic             Coordinates (Angstroms)
 Number     Number       Type             X           Y           Z
 ---------------------------------------------------------------------
      1         12           0       13.237656   -0.785809    0.174027
      2          6           0       12.056750    2.170889   -1.377554
      3          6           0       15.551087    1.274907    1.792695
      4          6           0       14.384026   -3.406772    1.785214
      5          6           0       11.434797   -2.677995   -2.119280
      6          7           0       13.683038    1.455203    0.196917
      7          6           0       12.991321    2.472167   -0.388268
      8          6           0       13.521681    3.890659   -0.118087
      9          6           0       14.753396    3.485931    0.839954
     10          6           0       14.641360    1.991992    0.916005
     11          6           0       16.174314    3.888033    0.278289
     12          6           0       12.474972    4.810433    0.591166
     13          6           0       11.815105    6.024235   -0.051521
     14          1           0       11.483857    7.267788    0.762940
     15          7           0       14.708456   -1.054820    1.658422
     16          6           0       15.608285   -0.096539    2.146864
     17          6           0       16.537258   -0.781634    3.017621
     18          6           0       16.126787   -2.104682    3.161436
     19          6           0       14.992840   -2.225753    2.224502
     20          6           0       17.551185    0.027622    3.751801
     21          6           0       16.716077   -3.266270    3.960895
     22          8           0       16.261327   -4.414214    3.970592
     23          6           0       17.820303   -2.948997    4.890672
     24          7           0       13.053758   -2.778869   -0.160944
     25          6           0       13.441613   -3.710822    0.761434
     26          6           0       12.719369   -5.079247    0.518153
     27          6           0       11.909097   -4.818245   -0.744937
     28          6           0       12.194546   -3.331360   -1.095104
     29          6           0       13.694383   -6.300671    0.466568
     30          6           0       10.425414   -5.113263   -0.476998
     31          6           0        9.659975   -5.872127   -1.499178
     32          7           0       12.069712   -0.405229   -1.496464
     33          6           0       11.376257   -1.259928   -2.315558
     34          6           0       10.626643   -0.543643   -3.303842
     35          6           0       10.752653    0.888341   -2.950014
     36          6           0       11.656797    0.882677   -1.815874
     37          6           0        9.812971   -1.172627   -4.447808
     38          6           0       10.376273    2.289354   -3.265802
     39          8           0        9.532799    2.732953   -4.063385
     40          6           0       11.215905    3.156866   -2.240142
     41          6           0       11.999977    3.999769   -3.196754
     42          8           0       13.068331    3.744826   -3.739336
     43          8           0       11.459701    5.180777   -3.323982
     44          6           0       11.978831    6.121093   -4.346678
     45          1           0       16.102220    2.046210    2.334123
     46          1           0       14.701593   -4.360870    2.210243
     47          1           0       10.820228   -3.287859   -2.784183
     48          1           0       13.891303    4.289954   -1.063399
     49          1           0       14.732011    3.819723    1.877829
     50          1           0       16.235786    4.147083   -0.778341
     51          1           0       16.872886    3.063526    0.416342
     52          1           0       16.540868    4.738598    0.853278
     53          1           0       12.970564    5.209496    1.476322
     54          1           0       11.612958    4.224871    0.908235
     55          1           0       10.835244    5.609441   -0.288445
     56          1           0       12.480334    6.213864   -0.893966
     57          1           0       17.417717   -0.034835    4.830915
     58          1           0       17.491055    1.079867    3.472687
     59          1           0       18.575698   -0.292538    3.564575
     60          1           0       17.542297   -2.093366    5.506199
     61          1           0       18.699053   -2.559364    4.376581
     62          1           0       18.066719   -3.749735    5.587222
     63          1           0       12.106132   -5.162319    1.415300
     64          1           0       12.185912   -5.510177   -1.540192
     65          1           0       14.717114   -6.070321    0.764638
     66          1           0       13.779545   -6.754147   -0.520264
     67          1           0       13.270580   -7.132950    1.028340
     68          1           0       10.004442   -4.113656   -0.376783
     69          1           0       10.232111   -5.693343    0.425019
     70          1           0        8.808613   -5.232915   -1.731862
     71          1           0        9.428319   -6.871806   -1.131778
     72          1           0       10.160009   -5.979143   -2.462027
     73          1           0       10.453517   -1.274753   -5.323029
     74          1           0        8.951074   -0.534779   -4.643140
     75          1           0        9.475168   -2.180856   -4.207095
     76          1           0       10.499544    3.762009   -1.684805
     77          1           0       13.023608    6.396257   -4.206581
     78          1           0       11.399016    7.038745   -4.443868
     79          1           0       11.939660    5.789661   -5.383878
     80         12           0      -13.391585   -0.519663   -0.342890
     81          6           0      -11.291023    2.063750    0.711912
     82          6           0      -16.068854    1.681058    0.189545
     83          6           0      -15.562159   -3.027670   -0.787294
     84          6           0      -10.822315   -2.745275    0.194516
     85          7           0      -13.672600    1.720266    0.284140
     86          6           0      -12.621596    2.472287    0.706379
     87          6           0      -13.111857    3.903871    1.161373
     88          6           0      -14.703820    3.660690    1.221663
     89          6           0      -14.853431    2.271435    0.579164
     90          6           0      -15.099893    3.537160    2.735885
     91          6           0      -12.737737    4.913483    0.014742
     92          6           0      -13.233324    6.377921    0.161817
     93          1           0      -13.855004    7.271148   -0.870177
     94          7           0      -15.476826   -0.583260   -0.495009
     95          6           0      -16.438692    0.419447   -0.287446
     96          6           0      -17.704273   -0.153206   -0.480561
     97          6           0      -17.575314   -1.455238   -0.945239
     98          6           0      -16.161281   -1.739124   -0.763878
     99          6           0      -18.933244    0.689165   -0.375509
    100          6           0      -18.655631   -2.498771   -1.382435
    101          8           0      -18.413124   -3.628489   -1.793367
    102          6           0      -20.131447   -2.122907   -1.540648
    103          7           0      -13.213392   -2.579937   -0.180236
    104          6           0      -14.227867   -3.389797   -0.557338
    105          6           0      -13.812087   -4.864420   -0.724619
    106          6           0      -12.326545   -4.797010   -0.273635
    107          6           0      -12.039339   -3.308912   -0.184886
    108          6           0      -14.765998   -5.891972   -0.029773
    109          6           0      -11.289633   -5.582432   -1.122584
    110          6           0      -10.921070   -4.993570   -2.417878
    111          7           0      -11.421531   -0.415854    0.221992
    112          6           0      -10.520668   -1.355400    0.393142
    113          6           0       -9.196867   -0.798778    0.690389
    114          6           0       -9.504807    0.593849    0.813073
    115          6           0      -10.851256    0.772753    0.562659
    116          6           0       -7.882004   -1.389278    0.477033
    117          6           0       -8.892015    1.885151    1.071229
    118          8           0       -7.730943    2.192435    1.219386
    119          6           0      -10.073813    2.862333    1.080622
    120          6           0      -10.163562    3.632816    2.402067
    121          8           0      -10.615199    3.180994    3.422080
    122          8           0       -9.584239    4.869543    2.247359
    123          6           0       -9.640237    5.680835    3.485201
    124          1           0      -16.879304    2.410462    0.232944
    125          1           0      -16.200321   -3.840507   -1.140874
    126          1           0      -10.171360   -3.620523    0.158308
    127          1           0      -12.751530    4.173240    2.154527
    128          1           0      -15.300551    4.434429    0.737003
    129          1           0      -15.330789    2.536190    3.098954
    130          1           0      -16.087968    3.957313    2.925317
    131          1           0      -14.366729    3.962240    3.421062
    132          1           0      -13.100767    4.487312   -0.920115
    133          1           0      -11.652554    4.886820   -0.087728
    134          1           0      -12.389920    6.889788    0.626170
    135          1           0      -14.041892    6.238352    0.878275
    136          1           0      -18.771754    1.726284   -0.080343
    137          1           0      -19.664801    0.138204    0.217148
    138          1           0      -19.301439    0.730950   -1.400957
    139          1           0      -20.626927   -1.882059   -0.600056
    140          1           0      -20.722189   -2.832801   -2.119812
    141          1           0      -20.153594   -1.248833   -2.191767
    142          1           0      -13.928180   -4.916901   -1.806788
    143          1           0      -12.345940   -5.171955    0.749667
    144          1           0      -15.786113   -5.511584    0.011182
    145          1           0      -14.425157   -6.063280    0.991633
    146          1           0      -14.826931   -6.840051   -0.564528
    147          1           0      -11.810183   -6.527869   -1.271885
    148          1           0      -10.416939   -5.815832   -0.512336
    149          1           0      -10.144983   -4.243316   -2.267350
    150          1           0      -11.796094   -4.595888   -2.931593
    151          1           0      -10.448815   -5.722896   -3.076699
    152          1           0       -8.036871   -2.132103   -0.305838
    153          1           0       -7.415662   -1.976197    1.268488
    154          1           0       -7.219982   -0.572631    0.191030
    155          1           0       -9.933283    3.558164    0.252819
    156          1           0       -8.734272    6.284068    3.540731
    157          1           0       -9.553205    5.132285    4.423320
    158          1           0      -10.482658    6.371353    3.461617
 ---------------------------------------------------------------------

 SCF Done:  E(RwB97XD) =  -4070.61922278     A.U. after   19 cycles

 Excitation energies and oscillator strengths:

 Excited State   1:      Singlet-A      1.6935 eV  732.11 nm  f=0.4369  <S**2>=0.000
     310 -> 316       -0.19000
     312 -> 314        0.67958
     310 <- 316       -0.11497
 This state for optimization and/or second-order correction.
 Total Energy, E(TD-HF/TD-DFT) =  -4070.55698697
 Copying the excited state density for this state as the 1-particle RhoCI density.

 Excited State   2:      Singlet-A      1.7232 eV  719.51 nm  f=0.3394  <S**2>=0.000
     309 -> 315       -0.18594
     311 -> 313        0.67989
     309 <- 315       -0.11171

 Excited State   3:      Singlet-A      2.1683 eV  571.81 nm  f=0.0997  <S**2>=0.000
     309 -> 313        0.63392
     311 -> 315        0.29500

 Excited State   4:      Singlet-A      2.2137 eV  560.07 nm  f=0.1135  <S**2>=0.000
     310 -> 314        0.64259
     312 -> 316        0.27817

 Excited State   5:      Singlet-A      3.4466 eV  359.72 nm  f=0.0847  <S**2>=0.000
     299 -> 313        0.10342
     304 -> 313        0.24898
     305 -> 313       -0.17553
     308 -> 313        0.57751
     311 -> 315        0.17717

 The electronic state is 1-A.
 Alpha  occ. eigenvalues --  -46.95011 -46.94799 -19.30974 -19.30392 -19.25297
 Alpha  occ. eigenvalues --  -19.24621 -19.24457 -19.23803 -19.23801 -19.23035
 Alpha  occ. eigenvalues --  -14.47106 -14.46814 -14.46421 -14.45578 -14.44396
 Alpha  occ. eigenvalues --  -14.43740 -14.43646 -14.43477 -10.43591 -10.42380
 Alpha  occ. eigenvalues --  -10.40159 -10.39948 -10.39359 -10.38440 -10.35683
 Alpha  occ. eigenvalues --  -10.35608 -10.35519 -10.35400 -10.35214 -10.35083
 Alpha  occ. eigenvalues --  -10.34827 -10.34800 -10.34640 -10.34525 -10.34425
 Alpha  occ. eigenvalues --  -10.34417 -10.33900 -10.33695 -10.33598 -10.33528
 Alpha  occ. eigenvalues --  -10.33045 -10.32748 -10.32714 -10.32709 -10.32643
 Alpha  occ. eigenvalues --  -10.32629 -10.32604 -10.32576 -10.32530 -10.32287
 Alpha  occ. eigenvalues --  -10.32153 -10.32074 -10.31957 -10.31955 -10.31943
 Alpha  occ. eigenvalues --  -10.31685 -10.31683 -10.31649 -10.31608 -10.31526
 Alpha  occ. eigenvalues --  -10.31485 -10.31469 -10.31332 -10.31108 -10.30995
 Alpha  occ. eigenvalues --  -10.30972 -10.30930 -10.30862 -10.30365 -10.30351
 Alpha  occ. eigenvalues --  -10.30264 -10.30217 -10.30055 -10.29934 -10.29836
 Alpha  occ. eigenvalues --  -10.29834 -10.29672 -10.29670 -10.29631 -10.29375
 Alpha  occ. eigenvalues --  -10.29283 -10.29053 -10.29046 -10.28884 -10.28574
 Alpha  occ. eigenvalues --  -10.28260  -3.21017  -3.20828  -1.94591  -1.94421
 Alpha  occ. eigenvalues --   -1.94154  -1.93973  -1.93954  -1.93804  -1.19878
 Alpha  occ. eigenvalues --   -1.18950  -1.12613  -1.12459  -1.12302  -1.10924
 Alpha  occ. eigenvalues --   -1.10497  -1.08564  -1.07422  -1.06919  -1.06048
 Alpha  occ. eigenvalues --   -1.05758  -1.05316  -1.04710  -1.04462  -1.03261
 Alpha  occ. eigenvalues --   -0.95754  -0.93700  -0.91417  -0.91242  -0.90891
 Alpha  occ. eigenvalues --   -0.90621  -0.90473  -0.90052  -0.89636  -0.89419
 Alpha  occ. eigenvalues --   -0.89095  -0.88611  -0.88067  -0.86973  -0.86137
 Alpha  occ. eigenvalues --   -0.85939  -0.85473  -0.85286  -0.84700  -0.84606
 Alpha  occ. eigenvalues --   -0.84259  -0.83428  -0.82817  -0.82690  -0.82428
 Alpha  occ. eigenvalues --   -0.82327  -0.80726  -0.80462  -0.79478  -0.79339
 Alpha  occ. eigenvalues --   -0.78702  -0.78469  -0.78015  -0.78008  -0.77058
 Alpha  occ. eigenvalues --   -0.76767  -0.74409  -0.74120  -0.73735  -0.73719
 Alpha  occ. eigenvalues --   -0.71913  -0.71158  -0.71088  -0.70273  -0.70042
 Alpha  occ. eigenvalues --   -0.69519  -0.68987  -0.68900  -0.67697  -0.67295
 Alpha  occ. eigenvalues --   -0.67123  -0.66804  -0.66738  -0.66369  -0.66122
 Alpha  occ. eigenvalues --   -0.65930  -0.64438  -0.64293  -0.62949  -0.62062
 Alpha  occ. eigenvalues --   -0.61414  -0.61408  -0.61288  -0.60868  -0.60518
 Alpha  occ. eigenvalues --   -0.60392  -0.60200  -0.59700  -0.59570  -0.59302
 Alpha  occ. eigenvalues --   -0.58678  -0.58434  -0.57557  -0.57470  -0.57424
 Alpha  occ. eigenvalues --   -0.57186  -0.56859  -0.56516  -0.56142  -0.56050
 Alpha  occ. eigenvalues --   -0.55894  -0.55693  -0.55484  -0.55186  -0.55027
 Alpha  occ. eigenvalues --   -0.54840  -0.54552  -0.54513  -0.54469  -0.54418
 Alpha  occ. eigenvalues --   -0.53986  -0.53979  -0.53280  -0.53019  -0.52874
 Alpha  occ. eigenvalues --   -0.52488  -0.52458  -0.52341  -0.52233  -0.51905
 Alpha  occ. eigenvalues --   -0.51823  -0.51794  -0.51600  -0.51568  -0.51327
 Alpha  occ. eigenvalues --   -0.51322  -0.51124  -0.50977  -0.50861  -0.50695
 Alpha  occ. eigenvalues --   -0.50522  -0.50418  -0.50385  -0.50051  -0.49943
 Alpha  occ. eigenvalues --   -0.49803  -0.49663  -0.49391  -0.49260  -0.49008
 Alpha  occ. eigenvalues --   -0.48569  -0.48493  -0.48193  -0.48025  -0.47938
 Alpha  occ. eigenvalues --   -0.47857  -0.47695  -0.47592  -0.47457  -0.47323
 Alpha  occ. eigenvalues --   -0.47230  -0.46990  -0.46948  -0.46900  -0.46865
 Alpha  occ. eigenvalues --   -0.46594  -0.46481  -0.46306  -0.46230  -0.46133
 Alpha  occ. eigenvalues --   -0.46079  -0.45940  -0.45861  -0.45719  -0.45575
 Alpha  occ. eigenvalues --   -0.45220  -0.45135  -0.45101  -0.44932  -0.44791
 Alpha  occ. eigenvalues --   -0.44677  -0.44478  -0.44385  -0.44268  -0.44208
 Alpha  occ. eigenvalues --   -0.43908  -0.43765  -0.43579  -0.43554  -0.43230
 Alpha  occ. eigenvalues --   -0.43076  -0.42628  -0.42586  -0.42248  -0.42112
 Alpha  occ. eigenvalues --   -0.41897  -0.41660  -0.41462  -0.41335  -0.40685
 Alpha  occ. eigenvalues --   -0.40352  -0.40278  -0.39802  -0.39773  -0.39628
 Alpha  occ. eigenvalues --   -0.39276  -0.39205  -0.38773  -0.38632  -0.38293
 Alpha  occ. eigenvalues --   -0.38228  -0.37700  -0.36860  -0.36345  -0.36212
 Alpha  occ. eigenvalues --   -0.35452  -0.35363  -0.35074  -0.34061  -0.33759
 Alpha  occ. eigenvalues --   -0.33577  -0.33062  -0.32726  -0.32535  -0.32413
 Alpha  occ. eigenvalues --   -0.32216  -0.31284  -0.30752  -0.25791  -0.25685
 Alpha  occ. eigenvalues --   -0.22939  -0.22846
 Alpha virt. eigenvalues --   -0.06792  -0.06682   0.00127   0.00640   0.01924
 Alpha virt. eigenvalues --    0.02530   0.04238   0.04396   0.05439   0.05857
 Alpha virt. eigenvalues --    0.07396   0.07774   0.08113   0.08410   0.08612

 Mulliken charges:
               1
     1  Mg   0.972910
     2  C    0.039422
     3  C   -0.094830
     4  C   -0.084778
     5  C   -0.089046
     6  N   -0.280129
     7  C   -0.033514
     8  C   -0.039526
     9  C   -0.125319
    10  C    0.009483
    11  C    0.001896
    12  C   -0.006495
    13  C   -0.125668
    14  H    0.045905
    15  N   -0.445454
    16  C    0.189165
    17  C   -0.135397
    18  C   -0.078195
    19  C    0.174213
    20  C    0.050693
    21  C    0.084332
    22  O   -0.232534
    23  C   -0.007045
    24  N   -0.424793
    25  C    0.030631
    26  C   -0.065386
    27  C   -0.064812
    28  C    0.113742
    29  C    0.012681
    30  C   -0.040764
    31  C   -0.047845
    32  N   -0.454819
    33  C    0.145693
    34  C   -0.198835
    35  C   -0.045427
    36  C    0.123403
    37  C    0.077666
    38  C    0.112943
    39  O   -0.226342
    40  C   -0.112935
    41  C    0.233123
    42  O   -0.268797
    43  O   -0.310098
    44  C    0.148308
    45  H    0.001822
    46  H    0.015973
    47  H   -0.006148
    48  H    0.060555
    49  H    0.045618
    50  H    0.052622
    51  H    0.037707
    52  H    0.037420
    53  H    0.038468
    54  H    0.032914
    55  H    0.062263
    56  H    0.051705
    57  H    0.054581
    58  H    0.035419
    59  H    0.048228
    60  H    0.039700
    61  H    0.049798
    62  H    0.061215
    63  H    0.054039
    64  H    0.031570
    65  H    0.057213
    66  H    0.025167
    67  H    0.035127
    68  H    0.036720
    69  H    0.031287
    70  H    0.037437
    71  H    0.043539
    72  H    0.025351
    73  H    0.056231
    74  H    0.061608
    75  H    0.025386
    76  H    0.075843
    77  H    0.050659
    78  H    0.052493
    79  H    0.053045
    80  Mg   0.973489
    81  C   -0.006759
    82  C   -0.074257
    83  C   -0.111478
    84  C   -0.060485
    85  N   -0.282129
    86  C   -0.051526
    87  C   -0.081021
    88  C   -0.121258
    89  C    0.038092
    90  C    0.009340
    91  C   -0.013291
    92  C   -0.096399
    93  H    0.058577
    94  N   -0.474676
    95  C    0.176485
    96  C   -0.164490
    97  C   -0.081316
    98  C    0.151087
    99  C    0.071036
   100  C    0.085383
   101  O   -0.233837
   102  C   -0.021346
   103  N   -0.406388
   104  C    0.075961
   105  C   -0.112132
   106  C   -0.035639
   107  C   -0.010202
   108  C    0.035622
   109  C   -0.020870
   110  C   -0.015387
   111  N   -0.411380
   112  C    0.152291
   113  C   -0.157193
   114  C   -0.070492
   115  C    0.151331
   116  C    0.070519
   117  C    0.116372
   118  O   -0.187428
   119  C   -0.074725
   120  C    0.263658
   121  O   -0.227688
   122  O   -0.360534
   123  C    0.124818
   124  H   -0.012671
   125  H    0.022374
   126  H   -0.019445
   127  H    0.047365
   128  H    0.048707
   129  H    0.042485
   130  H    0.025776
   131  H    0.050494
   132  H    0.035513
   133  H    0.032230
   134  H    0.051128
   135  H    0.036145
   136  H    0.044469
   137  H    0.048634
   138  H    0.050233
   139  H    0.058264
   140  H    0.054712
   141  H    0.041216
   142  H    0.041067
   143  H    0.042766
   144  H    0.049018
   145  H    0.031704
   146  H    0.040044
   147  H    0.022709
   148  H    0.034880
   149  H    0.032149
   150  H    0.032809
   151  H    0.035457
   152  H    0.029628
   153  H    0.041803
   154  H    0.064224
   155  H    0.079348
   156  H    0.050005
   157  H    0.069019
   158  H    0.056005
 Sum of Mulliken charges =  -0.00000

 Dipole moment (field-independent basis, Debye):
    X=             -1.1163    Y=              1.9362    Z=              3.3349  Tot=              4.0145
 Quadrupole moment (field-independent basis, Debye-Ang):
   XX=           -337.5537   YY=           -465.1080   ZZ=           -519.3890
   XY=             -6.6048   XZ=             64.7806   YZ=             22.5008

 Normal termination of Gaussian 16 at Mon Sep 20 12:22:10 2021.
