 Gaussian 16, Revision A.03,
 Gaussian 16:  ES64L-G16RevA.03 25-Dec-2016

 --------------------------------
 #p wB97XD/Def2SVP td=(nstates=5)
 --------------------------------

 --------------------------------
 TDDFT excited states in gaussian
 --------------------------------
 Symbolic Z-matrix:
 Charge =  0 Multiplicity = 1

                         Standard orientation:
 ---------------------------------------------------------------------
 Center     Atomic      Atomic             Coordinates (Angstroms)
 Number     Number       Type             X           Y           Z
 ---------------------------------------------------------------------
      1         12           0      -28.109921   -0.049620   -0.259983
      2          6           0      -24.798833    0.436803    0.909126
      3          6           0      -28.035964   -3.125527    1.175616
      4          6           0      -31.484957   -0.156308   -0.656380
      5          6           0      -28.161904    3.289055   -1.189115
      6          7           0      -26.558860   -1.056899    1.038542
      7          6           0      -25.251265   -0.759675    1.317710
      8          6           0      -24.566137   -1.870081    2.023789
      9          6           0      -25.546608   -3.112571    1.783844
     10          6           0      -26.782649   -2.416568    1.326029
     11          6           0      -24.977400   -4.097465    0.775394
     12          6           0      -24.340407   -1.417785    3.475029
     13          6           0      -22.860637   -1.485864    4.043852
     14          1           0      -22.530677   -2.266082    5.351939
     15          7           0      -29.596341   -1.423865    0.130605
     16          6           0      -29.323149   -2.693517    0.658209
     17          6           0      -30.525358   -3.467104    0.573312
     18          6           0      -31.581642   -2.633980    0.071524
     19          6           0      -30.883378   -1.359581   -0.246087
     20          6           0      -30.537016   -4.937304    0.971770
     21          6           0      -33.041660   -2.970255   -0.134685
     22          8           0      -33.311989   -4.188516    0.073256
     23          6           0      -34.225156   -2.013162   -0.452685
     24          7           0      -29.653847    1.370914   -0.856976
     25          6           0      -30.965703    1.067859   -0.971439
     26          6           0      -31.836691    2.276730   -1.404715
     27          6           0      -30.735954    3.357689   -1.683244
     28          6           0      -29.414351    2.627652   -1.150980
     29          6           0      -32.663686    1.900437   -2.621031
     30          6           0      -30.934142    4.670433   -0.988842
     31          6           0      -31.248813    5.809903   -1.919711
     32          7           0      -26.800326    1.495705   -0.353907
     33          6           0      -26.892625    2.820125   -0.800177
     34          6           0      -25.662551    3.426453   -0.873371
     35          6           0      -24.792087    2.513065   -0.244373
     36          6           0      -25.545788    1.399351    0.118948
     37          6           0      -25.406280    4.719233   -1.618620
     38          6           0      -23.363559    2.267705    0.088259
     39          8           0      -22.410915    2.951723   -0.124039
     40          6           0      -23.418507    0.930993    0.920400
     41          6           0      -22.226269    0.100026    0.498853
     42          8           0      -21.201422   -0.042309    1.165843
     43          8           0      -22.480126   -0.529797   -0.743778
     44          6           0      -21.407892   -1.444536   -1.134674
     45          1           0      -27.957277   -4.184442    1.431486
     46          1           0      -32.551312   -0.177275   -0.893227
     47          1           0      -28.159368    4.378834   -1.248719
     48          1           0      -23.596809   -2.051482    1.559290
     49          1           0      -25.670225   -3.634345    2.732454
     50          1           0      -24.443472   -3.615253   -0.042293
     51          1           0      -25.809640   -4.610364    0.292151
     52          1           0      -24.362871   -4.878880    1.222376
     53          1           0      -24.982019   -2.034652    4.104076
     54          1           0      -24.733975   -0.425080    3.693535
     55          1           0      -22.682477   -0.425309    4.223450
     56          1           0      -22.150563   -1.699449    3.245798
     57          1           0      -30.097591   -5.079528    1.959091
     58          1           0      -29.906164   -5.450690    0.246224
     59          1           0      -31.508224   -5.419123    1.092570
     60          1           0      -34.022316   -1.701810   -1.476892
     61          1           0      -34.179521   -1.166342    0.232186
     62          1           0      -35.196436   -2.494340   -0.334815
     63          1           0      -32.542132    2.611724   -0.644719
     64          1           0      -30.570881    3.450791   -2.756335
     65          1           0      -33.178273    0.966577   -2.394114
     66          1           0      -31.983620    1.754558   -3.460887
     67          1           0      -33.357358    2.627126   -3.042236
     68          1           0      -30.054712    5.014350   -0.444389
     69          1           0      -31.702746    4.706110   -0.217033
     70          1           0      -32.171245    6.276496   -1.576212
     71          1           0      -31.470261    5.478103   -2.934093
     72          1           0      -30.442111    6.535798   -2.027165
     73          1           0      -24.329072    4.761591   -1.782835
     74          1           0      -25.722705    5.593983   -1.050975
     75          1           0      -25.983151    4.625856   -2.538459
     76          1           0      -23.140318    1.277911    1.916239
     77          1           0      -21.794785   -2.232475   -1.781009
     78          1           0      -21.040877   -2.014241   -0.282133
     79          1           0      -20.558610   -0.937086   -1.593011
     80         12           0       27.774541    0.706681   -0.669060
     81          6           0       26.305769   -2.525556   -0.938306
     82          6           0       24.671935    2.041573   -0.099283
     83          6           0       29.301397    3.580970    0.617107
     84          6           0       30.945335   -0.808089   -0.671619
     85          7           0       25.708558   -0.313209   -0.290357
     86          6           0       25.322231   -1.539269   -0.679299
     87          6           0       23.822013   -1.543988   -0.909272
     88          6           0       23.259093   -0.080246   -0.572355
     89          6           0       24.701462    0.628925   -0.448991
     90          6           0       22.419427    0.417890   -1.770102
     91          6           0       23.149521   -2.621667   -0.074138
     92          6           0       23.709496   -2.853244    1.349446
     93          1           0       22.840035   -2.351962    2.534787
     94          7           0       27.077238    2.631449    0.081197
     95          6           0       25.737722    2.917960    0.230524
     96          6           0       25.673709    4.304597    0.571279
     97          6           0       26.994861    4.800240    0.891483
     98          6           0       27.895542    3.688200    0.495356
     99          6           0       24.367214    5.023399    0.816433
    100          6           0       27.362349    6.098381    1.612023
    101          8           0       26.486627    6.837248    2.019081
    102          6           0       28.711954    6.507907    1.861500
    103          7           0       29.811578    1.280449   -0.007072
    104          6           0       30.162822    2.516032    0.317222
    105          6           0       31.644260    2.660647    0.625357
    106          6           0       32.079456    1.133790    0.555206
    107          6           0       30.930717    0.487890   -0.131746
    108          6           0       32.436463    3.594576   -0.414094
    109          6           0       32.427077    0.583722    2.014588
    110          6           0       33.840023    0.224488    2.377976
    111          7           0       28.498958   -1.136424   -1.011986
    112          6           0       29.831326   -1.587063   -1.107966
    113          6           0       29.873480   -2.999091   -1.531567
    114          6           0       28.522582   -3.343136   -1.486128
    115          6           0       27.695827   -2.249213   -1.050699
    116          6           0       31.088477   -3.859687   -2.022606
    117          6           0       27.624194   -4.484331   -1.688489
    118          8           0       27.810896   -5.659667   -2.044345
    119          6           0       26.166246   -4.017326   -1.366770
    120          6           0       25.868539   -4.905664   -0.208472
    121          8           0       26.501872   -4.950687    0.814884
    122          8           0       24.877262   -5.737607   -0.514998
    123          6           0       24.346606   -6.673083    0.537248
    124          1           0       23.695134    2.515345   -0.215720
    125          1           0       29.913099    4.426918    0.936895
    126          1           0       31.958592   -1.195148   -0.541189
    127          1           0       23.826937   -1.815174   -1.965013
    128          1           0       22.688273   -0.054820    0.356261
    129          1           0       21.406341    0.609421   -1.417011
    130          1           0       22.323041   -0.299780   -2.585225
    131          1           0       22.873499    1.359069   -2.078942
    132          1           0       23.209831   -3.576842   -0.595847
    133          1           0       22.100567   -2.375989    0.094047
    134          1           0       24.623745   -2.328531    1.626455
    135          1           0       23.851428   -3.932272    1.410982
    136          1           0       23.513021    4.350268    0.738959
    137          1           0       24.335846    5.885009    0.148659
    138          1           0       24.434140    5.487191    1.799943
    139          1           0       29.281893    5.860534    2.528315
    140          1           0       28.708887    7.499360    2.313991
    141          1           0       29.159687    6.470927    0.867799
    142          1           0       31.857099    2.969955    1.648337
    143          1           0       33.047331    1.215857    0.060326
    144          1           0       31.732591    4.019154   -1.130511
    145          1           0       33.121752    2.950733   -0.965734
    146          1           0       33.056595    4.378695    0.023027
    147          1           0       31.952799   -0.380857    2.195924
    148          1           0       32.090436    1.277471    2.783747
    149          1           0       34.043071   -0.846235    2.355889
    150          1           0       33.858868    0.592801    3.404219
    151          1           0       34.605632    0.843747    1.910285
    152          1           0       31.676047   -4.130872   -1.145923
    153          1           0       31.622553   -3.264305   -2.763316
    154          1           0       30.703413   -4.793195   -2.432560
    155          1           0       25.589659   -4.189870   -2.276290
    156          1           0       24.921760   -7.596315    0.611136
    157          1           0       23.309477   -6.944442    0.336045
    158          1           0       24.388251   -6.098638    1.462639
 ---------------------------------------------------------------------

 SCF Done:  E(RwB97XD) =  -4070.56941948     A.U. after   20 cycles

 Excitation energies and oscillator strengths:

 Excited State   1:      Singlet-A      1.6248 eV  763.07 nm  f=0.3389  <S**2>=0.000
     309 -> 316       -0.17942
     311 -> 313        0.68356
     309 <- 316       -0.11729
 This state for optimization and/or second-order correction.
 Total Energy, E(TD-HF/TD-DFT) =  -4070.50970895
 Copying the excited state density for this state as the 1-particle RhoCI density.

 Excited State   2:      Singlet-A      1.6286 eV  761.31 nm  f=0.3732  <S**2>=0.000
     310 -> 315        0.20652
     312 -> 314        0.67730
     310 <- 315        0.12500

 Excited State   3:      Singlet-A      2.1415 eV  578.96 nm  f=0.0709  <S**2>=0.000
     310 -> 314        0.61697
     312 -> 315       -0.33155

 Excited State   4:      Singlet-A      2.1634 eV  573.10 nm  f=0.1552  <S**2>=0.000
     309 -> 313        0.64646
     311 -> 316        0.27023

 Excited State   5:      Singlet-A      3.2311 eV  383.72 nm  f=0.0021  <S**2>=0.000
     306 -> 313        0.25019
     306 -> 317        0.10038
     307 -> 313        0.63500

 The electronic state is 1-A.
 Alpha  occ. eigenvalues --  -46.96535 -46.95379 -19.30876 -19.30281 -19.25983
 Alpha  occ. eigenvalues --  -19.24898 -19.23897 -19.23780 -19.23381 -19.23077
 Alpha  occ. eigenvalues --  -14.47006 -14.47005 -14.46837 -14.46551 -14.44740
 Alpha  occ. eigenvalues --  -14.44716 -14.44143 -14.43631 -10.44266 -10.42556
 Alpha  occ. eigenvalues --  -10.39694 -10.39508 -10.38991 -10.38253 -10.36213
 Alpha  occ. eigenvalues --  -10.36104 -10.36077 -10.35420 -10.35387 -10.35138
 Alpha  occ. eigenvalues --  -10.35003 -10.35000 -10.34903 -10.34754 -10.34728
 Alpha  occ. eigenvalues --  -10.34719 -10.34708 -10.34570 -10.33956 -10.33902
 Alpha  occ. eigenvalues --  -10.33080 -10.32992 -10.32936 -10.32884 -10.32797
 Alpha  occ. eigenvalues --  -10.32725 -10.32606 -10.32596 -10.32459 -10.32446
 Alpha  occ. eigenvalues --  -10.32428 -10.32383 -10.32371 -10.32287 -10.32212
 Alpha  occ. eigenvalues --  -10.32208 -10.32185 -10.32051 -10.31888 -10.31876
 Alpha  occ. eigenvalues --  -10.31715 -10.31582 -10.31459 -10.31411 -10.31273
 Alpha  occ. eigenvalues --  -10.31134 -10.31104 -10.30979 -10.30946 -10.30855
 Alpha  occ. eigenvalues --  -10.30828 -10.30671 -10.30532 -10.30477 -10.30390
 Alpha  occ. eigenvalues --  -10.30329 -10.30195 -10.30066 -10.29889 -10.29813
 Alpha  occ. eigenvalues --  -10.29492 -10.29333 -10.29308 -10.29149 -10.29021
 Alpha  occ. eigenvalues --  -10.28975  -3.22329  -3.21385  -1.95874  -1.95477
 Alpha  occ. eigenvalues --   -1.95262  -1.94954  -1.94512  -1.94359  -1.19222
 Alpha  occ. eigenvalues --   -1.17771  -1.14297  -1.12416  -1.11028  -1.10188
 Alpha  occ. eigenvalues --   -1.09889  -1.09872  -1.07276  -1.06587  -1.06314
 Alpha  occ. eigenvalues --   -1.05664  -1.05414  -1.04825  -1.04418  -1.03650
 Alpha  occ. eigenvalues --   -0.95307  -0.93911  -0.91797  -0.91278  -0.90969
 Alpha  occ. eigenvalues --   -0.90822  -0.90666  -0.90154  -0.89815  -0.89013
 Alpha  occ. eigenvalues --   -0.88986  -0.88061  -0.87928  -0.87323  -0.86794
 Alpha  occ. eigenvalues --   -0.86589  -0.86222  -0.85909  -0.84770  -0.84585
 Alpha  occ. eigenvalues --   -0.84516  -0.83885  -0.83044  -0.82682  -0.82471
 Alpha  occ. eigenvalues --   -0.82200  -0.79829  -0.79792  -0.79396  -0.79281
 Alpha  occ. eigenvalues --   -0.78845  -0.78443  -0.78327  -0.78199  -0.77483
 Alpha  occ. eigenvalues --   -0.76904  -0.75542  -0.74839  -0.74232  -0.73707
 Alpha  occ. eigenvalues --   -0.71396  -0.70940  -0.70841  -0.70437  -0.70083
 Alpha  occ. eigenvalues --   -0.69684  -0.69274  -0.68679  -0.68262  -0.67694
 Alpha  occ. eigenvalues --   -0.67482  -0.67400  -0.67146  -0.66965  -0.66763
 Alpha  occ. eigenvalues --   -0.66019  -0.65132  -0.64407  -0.62548  -0.62238
 Alpha  occ. eigenvalues --   -0.62087  -0.61627  -0.61244  -0.60994  -0.60988
 Alpha  occ. eigenvalues --   -0.60626  -0.60106  -0.59805  -0.59242  -0.58843
 Alpha  occ. eigenvalues --   -0.58250  -0.58209  -0.57808  -0.57808  -0.57650
 Alpha  occ. eigenvalues --   -0.56959  -0.56875  -0.56863  -0.56466  -0.56337
 Alpha  occ. eigenvalues --   -0.55855  -0.55805  -0.55542  -0.55382  -0.55188
 Alpha  occ. eigenvalues --   -0.55003  -0.54653  -0.54568  -0.54446  -0.54261
 Alpha  occ. eigenvalues --   -0.54028  -0.53955  -0.53694  -0.53669  -0.53444
 Alpha  occ. eigenvalues --   -0.53068  -0.52839  -0.52591  -0.52491  -0.52267
 Alpha  occ. eigenvalues --   -0.52060  -0.52018  -0.51849  -0.51723  -0.51623
 Alpha  occ. eigenvalues --   -0.51606  -0.51376  -0.51154  -0.50914  -0.50874
 Alpha  occ. eigenvalues --   -0.50584  -0.50467  -0.50287  -0.50171  -0.49954
 Alpha  occ. eigenvalues --   -0.49702  -0.49692  -0.49219  -0.49182  -0.48899
 Alpha  occ. eigenvalues --   -0.48864  -0.48826  -0.48573  -0.48522  -0.48446
 Alpha  occ. eigenvalues --   -0.48192  -0.47975  -0.47855  -0.47728  -0.47710
 Alpha  occ. eigenvalues --   -0.47535  -0.47458  -0.47273  -0.47226  -0.47150
 Alpha  occ. eigenvalues --   -0.47078  -0.47022  -0.46837  -0.46787  -0.46254
 Alpha  occ. eigenvalues --   -0.46008  -0.45909  -0.45907  -0.45674  -0.45591
 Alpha  occ. eigenvalues --   -0.45485  -0.45222  -0.45116  -0.44846  -0.44649
 Alpha  occ. eigenvalues --   -0.44443  -0.44394  -0.44342  -0.44329  -0.44003
 Alpha  occ. eigenvalues --   -0.43957  -0.43676  -0.43495  -0.43442  -0.43432
 Alpha  occ. eigenvalues --   -0.43339  -0.43244  -0.43056  -0.42763  -0.42059
 Alpha  occ. eigenvalues --   -0.41984  -0.41952  -0.41713  -0.40985  -0.40701
 Alpha  occ. eigenvalues --   -0.40533  -0.40175  -0.39890  -0.39768  -0.39518
 Alpha  occ. eigenvalues --   -0.39373  -0.39291  -0.39127  -0.38833  -0.38395
 Alpha  occ. eigenvalues --   -0.38323  -0.37671  -0.37400  -0.36703  -0.36179
 Alpha  occ. eigenvalues --   -0.36073  -0.35601  -0.35498  -0.34002  -0.33581
 Alpha  occ. eigenvalues --   -0.33138  -0.32745  -0.32594  -0.32571  -0.32371
 Alpha  occ. eigenvalues --   -0.32186  -0.31976  -0.31107  -0.26344  -0.26188
 Alpha  occ. eigenvalues --   -0.23482  -0.23107
 Alpha virt. eigenvalues --   -0.07713  -0.07108  -0.00651   0.00059   0.02297
 Alpha virt. eigenvalues --    0.02359   0.04153   0.04416   0.04589   0.04981
 Alpha virt. eigenvalues --    0.06257   0.07191   0.07422   0.07609   0.08138

 Mulliken charges:
               1
     1  Mg   0.972156
     2  C    0.037575
     3  C   -0.077641
     4  C   -0.047386
     5  C   -0.092966
     6  N   -0.359473
     7  C   -0.051771
     8  C   -0.053799
     9  C   -0.081863
    10  C    0.068482
    11  C    0.030568
    12  C    0.005061
    13  C   -0.116266
    14  H    0.047968
    15  N   -0.473546
    16  C    0.150756
    17  C   -0.148782
    18  C   -0.063126
    19  C    0.180107
    20  C    0.070615
    21  C    0.021624
    22  O   -0.276273
    23  C    0.023462
    24  N   -0.303385
    25  C    0.005267
    26  C   -0.045749
    27  C   -0.064941
    28  C    0.055377
    29  C    0.009344
    30  C   -0.002918
    31  C   -0.061514
    32  N   -0.466582
    33  C    0.108707
    34  C   -0.190766
    35  C   -0.079717
    36  C    0.147841
    37  C    0.086708
    38  C    0.122397
    39  O   -0.159451
    40  C   -0.057488
    41  C    0.245487
    42  O   -0.241449
    43  O   -0.390673
    44  C    0.140085
    45  H    0.005755
    46  H   -0.060412
    47  H    0.006945
    48  H    0.035213
    49  H    0.038499
    50  H    0.038033
    51  H    0.024519
    52  H    0.047541
    53  H    0.031355
    54  H    0.047678
    55  H    0.050631
    56  H    0.054794
    57  H    0.034246
    58  H    0.046777
    59  H    0.065069
    60  H    0.062932
    61  H    0.064293
    62  H    0.063560
    63  H    0.043486
    64  H    0.043089
    65  H    0.033479
    66  H    0.024396
    67  H    0.040195
    68  H    0.030960
    69  H    0.026672
    70  H    0.031352
    71  H    0.020870
    72  H    0.039956
    73  H    0.062296
    74  H    0.052060
    75  H    0.046481
    76  H    0.069852
    77  H    0.047267
    78  H    0.043961
    79  H    0.064137
    80  Mg   0.942007
    81  C   -0.038029
    82  C   -0.073355
    83  C   -0.078455
    84  C   -0.055680
    85  N   -0.319977
    86  C   -0.052980
    87  C   -0.003103
    88  C   -0.147397
    89  C    0.056723
    90  C    0.022568
    91  C   -0.011328
    92  C   -0.138390
    93  H    0.013876
    94  N   -0.462334
    95  C    0.168071
    96  C   -0.174970
    97  C   -0.086716
    98  C    0.201938
    99  C    0.084687
   100  C    0.035905
   101  O   -0.235981
   102  C    0.005161
   103  N   -0.322770
   104  C    0.047524
   105  C   -0.151647
   106  C   -0.062558
   107  C    0.046666
   108  C    0.017245
   109  C   -0.028909
   110  C   -0.050499
   111  N   -0.501235
   112  C    0.150912
   113  C   -0.184747
   114  C   -0.035135
   115  C    0.186827
   116  C    0.087884
   117  C    0.097785
   118  O   -0.231098
   119  C   -0.050652
   120  C    0.238405
   121  O   -0.235987
   122  O   -0.346810
   123  C    0.130796
   124  H    0.013644
   125  H   -0.019957
   126  H    0.003319
   127  H    0.035235
   128  H    0.061597
   129  H    0.033413
   130  H    0.044486
   131  H    0.040374
   132  H    0.041105
   133  H    0.041315
   134  H    0.087287
   135  H    0.047549
   136  H    0.029842
   137  H    0.048574
   138  H    0.062110
   139  H    0.066409
   140  H    0.056738
   141  H    0.054714
   142  H    0.040389
   143  H    0.018070
   144  H    0.043565
   145  H    0.031199
   146  H    0.046335
   147  H    0.037489
   148  H    0.032159
   149  H    0.053210
   150  H    0.028094
   151  H    0.026641
   152  H    0.054277
   153  H    0.056613
   154  H    0.063012
   155  H    0.067942
   156  H    0.072767
   157  H    0.059156
   158  H    0.067091
 Sum of Mulliken charges =  -0.00000

 Dipole moment (field-independent basis, Debye):
    X=             -2.1451    Y=              1.3534    Z=             -3.7832  Tot=              4.5547
 Quadrupole moment (field-independent basis, Debye-Ang):
   XX=           -250.1519   YY=           -540.5592   ZZ=           -510.6856
   XY=              5.5287   XZ=             25.2413   YZ=            -18.7036

 Normal termination of Gaussian 16 at Sun Sep 19 17:48:10 2021.
