 Gaussian 16, Revision A.03,
 Gaussian 16:  ES64L-G16RevA.03 25-Dec-2016

 --------------------------------
 #p wB97XD/Def2SVP td=(nstates=5)
 --------------------------------

 --------------------------------
 TDDFT excited states in gaussian
 --------------------------------
 Symbolic Z-matrix:
 Charge =  0 Multiplicity = 1

                         Standard orientation:
 ---------------------------------------------------------------------
 Center     Atomic      Atomic             Coordinates (Angstroms)
 Number     Number       Type             X           Y           Z
 ---------------------------------------------------------------------
      1         12           0       21.883050   -0.582877    0.518154
      2          6           0       21.468826    2.129265   -1.707286
      3          6           0       22.356368    1.510066    3.022153
      4          6           0       23.133227   -3.212694    2.305317
      5          6           0       22.380541   -2.663910   -2.497969
      6          7           0       21.956879    1.592114    0.584098
      7          6           0       21.531015    2.463487   -0.353257
      8          6           0       21.321638    3.844236    0.298867
      9          6           0       21.570943    3.643968    1.759374
     10          6           0       22.036090    2.157866    1.828646
     11          6           0       22.503058    4.760439    2.385420
     12          6           0       19.998125    4.621820   -0.007787
     13          6           0       19.272755    5.530532    1.074843
     14          1           0       18.759983    6.912907    0.645283
     15          7           0       22.403109   -0.836409    2.484449
     16          6           0       22.534667    0.194414    3.387310
     17          6           0       22.864523   -0.381146    4.660110
     18          6           0       23.150042   -1.793839    4.507602
     19          6           0       22.951462   -1.988664    3.054424
     20          6           0       23.015834    0.525877    5.813435
     21          6           0       23.498417   -2.875541    5.559741
     22          8           0       23.741985   -3.985433    5.217231
     23          6           0       23.289565   -2.608929    7.014888
     24          7           0       22.699555   -2.633991   -0.067468
     25          6           0       23.001547   -3.492817    0.932049
     26          6           0       23.372202   -4.912035    0.394542
     27          6           0       23.100459   -4.771501   -1.134481
     28          6           0       22.716757   -3.278785   -1.287377
     29          6           0       24.776171   -5.372377    0.684013
     30          6           0       22.011650   -5.697617   -1.780853
     31          6           0       20.569585   -5.367631   -1.592078
     32          7           0       21.925478   -0.441587   -1.664799
     33          6           0       22.076644   -1.347147   -2.675537
     34          6           0       21.818848   -0.699919   -3.938747
     35          6           0       21.574734    0.668659   -3.650473
     36          6           0       21.698711    0.778024   -2.250512
     37          6           0       21.969863   -1.272167   -5.303994
     38          6           0       21.304476    1.966609   -4.199736
     39          8           0       21.106044    2.374345   -5.338439
     40          6           0       21.173603    2.966523   -2.964663
     41          6           0       22.004136    4.227837   -3.131451
     42          8           0       23.207369    4.238887   -3.172062
     43          8           0       21.160329    5.326090   -3.179369
     44          6           0       21.869173    6.591197   -3.375334
     45          1           0       22.325386    2.105762    3.937256
     46          1           0       23.482841   -4.017647    2.954731
     47          1           0       22.421995   -3.297927   -3.385983
     48          1           0       22.112951    4.382451   -0.222929
     49          1           0       20.621336    3.789304    2.275109
     50          1           0       22.672202    5.545145    1.648223
     51          1           0       23.380553    4.262553    2.797896
     52          1           0       21.987726    5.309082    3.174008
     53          1           0       19.263199    3.874601   -0.308206
     54          1           0       20.097009    5.261172   -0.885419
     55          1           0       20.009821    5.638586    1.870807
     56          1           0       18.431703    4.977962    1.493823
     57          1           0       23.831024    0.110415    6.405425
     58          1           0       22.103547    0.445130    6.403276
     59          1           0       23.204930    1.592247    5.689038
     60          1           0       24.263298   -2.228417    7.320580
     61          1           0       22.921690   -3.517040    7.493467
     62          1           0       22.602842   -1.793183    7.241950
     63          1           0       22.657535   -5.668518    0.719334
     64          1           0       23.931487   -4.828143   -1.836835
     65          1           0       25.270024   -4.718374    1.403859
     66          1           0       25.407906   -5.353880   -0.204452
     67          1           0       24.674562   -6.378755    1.089431
     68          1           0       22.143563   -6.719815   -1.425990
     69          1           0       22.269323   -5.822347   -2.832832
     70          1           0       20.446539   -4.753826   -0.699567
     71          1           0       19.830628   -6.149728   -1.416390
     72          1           0       20.267358   -4.893446   -2.526379
     73          1           0       22.971001   -1.630011   -5.542617
     74          1           0       21.949065   -0.414809   -5.977218
     75          1           0       21.206684   -2.021368   -5.516413
     76          1           0       20.114381    3.216475   -2.900801
     77          1           0       21.602005    6.901021   -2.365497
     78          1           0       21.289296    7.082991   -4.155990
     79          1           0       22.931697    6.461406   -3.582123
     80         12           0      -21.843552   -0.752501   -0.201830
     81          6           0      -23.080090    1.939912    1.554247
     82          6           0      -19.866801    1.531764   -2.110461
     83          6           0      -20.891610   -3.212145   -2.152888
     84          6           0      -23.917996   -2.919907    1.576533
     85          7           0      -21.564864    1.469193   -0.199951
     86          6           0      -22.143634    2.350403    0.621067
     87          6           0      -21.548281    3.768880    0.341518
     88          6           0      -20.620222    3.578382   -0.944432
     89          6           0      -20.721990    2.054663   -1.150211
     90          6           0      -21.099430    4.206089   -2.239223
     91          6           0      -20.855585    4.426196    1.544748
     92          6           0      -21.371662    5.835897    1.779485
     93          1           0      -20.495433    6.897595    2.460027
     94          7           0      -20.494158   -0.821961   -1.843991
     95          6           0      -19.759446    0.161731   -2.440731
     96          6           0      -18.938438   -0.330076   -3.455118
     97          6           0      -19.286915   -1.718084   -3.601172
     98          6           0      -20.263714   -1.989176   -2.490348
     99          6           0      -17.952382    0.520124   -4.242980
    100          6           0      -18.830846   -2.712894   -4.656019
    101          8           0      -19.388642   -3.826512   -4.701491
    102          6           0      -17.842635   -2.356991   -5.690483
    103          7           0      -22.321898   -2.729006   -0.226946
    104          6           0      -21.751806   -3.624610   -1.108234
    105          6           0      -22.265438   -5.105030   -0.961481
    106          6           0      -23.016279   -4.977201    0.432284
    107          6           0      -23.116244   -3.450796    0.607254
    108          6           0      -23.182801   -5.773682   -2.060015
    109          6           0      -22.474915   -5.825816    1.670883
    110          6           0      -21.246502   -5.276476    2.346851
    111          7           0      -23.301663   -0.590267    1.144116
    112          6           0      -24.085383   -1.516910    1.804988
    113          6           0      -24.946547   -0.917610    2.740517
    114          6           0      -24.545517    0.422272    2.686698
    115          6           0      -23.530671    0.598184    1.701390
    116          6           0      -25.851850   -1.703758    3.589838
    117          6           0      -24.929189    1.670607    3.224199
    118          8           0      -25.867119    1.905645    3.988705
    119          6           0      -23.967755    2.773855    2.536110
    120          6           0      -24.788822    3.769362    1.869753
    121          8           0      -25.389255    3.635465    0.828049
    122          8           0      -24.899221    4.856604    2.623100
    123          6           0      -25.770286    5.911060    2.199805
    124          1           0      -19.306478    2.241885   -2.721499
    125          1           0      -20.671733   -4.121981   -2.714726
    126          1           0      -24.552297   -3.632706    2.107691
    127          1           0      -22.453230    4.298102    0.044741
    128          1           0      -19.692162    4.098959   -0.705567
    129          1           0      -21.992010    4.824551   -2.140196
    130          1           0      -21.377621    3.430729   -2.952530
    131          1           0      -20.267302    4.702823   -2.739053
    132          1           0      -19.767243    4.456069    1.489754
    133          1           0      -21.055872    3.805312    2.417638
    134          1           0      -22.200106    5.734903    2.481550
    135          1           0      -21.674302    6.209391    0.801397
    136          1           0      -17.807302    1.498264   -3.784286
    137          1           0      -18.394240    0.761993   -5.209854
    138          1           0      -17.037211   -0.032425   -4.452406
    139          1           0      -17.923110   -3.024107   -6.549468
    140          1           0      -16.856892   -2.528025   -5.256756
    141          1           0      -17.989656   -1.327873   -6.017314
    142          1           0      -21.460344   -5.800895   -0.723335
    143          1           0      -24.007086   -5.418163    0.330296
    144          1           0      -23.328428   -5.045209   -2.856674
    145          1           0      -24.198826   -5.848568   -1.670440
    146          1           0      -22.878134   -6.735292   -2.474046
    147          1           0      -22.165874   -6.786981    1.260812
    148          1           0      -23.236347   -6.065725    2.412038
    149          1           0      -21.314848   -5.556109    3.397573
    150          1           0      -20.987337   -4.221138    2.271826
    151          1           0      -20.394027   -5.765336    1.875228
    152          1           0      -25.555907   -2.712307    3.877421
    153          1           0      -26.905011   -1.686401    3.311994
    154          1           0      -25.863905   -1.092959    4.492188
    155          1           0      -23.388459    3.247721    3.328320
    156          1           0      -25.263818    6.636942    1.562626
    157          1           0      -26.067743    6.452596    3.097591
    158          1           0      -26.613610    5.495646    1.647931
 ---------------------------------------------------------------------

 SCF Done:  E(RwB97XD) =  -4070.60933395     A.U. after   20 cycles

 Excitation energies and oscillator strengths:

 Excited State   1:      Singlet-A      1.6417 eV  755.22 nm  f=0.3465  <S**2>=0.000
     310 -> 315        0.19252
     312 -> 314        0.67990
     310 <- 315        0.11972
 This state for optimization and/or second-order correction.
 Total Energy, E(TD-HF/TD-DFT) =  -4070.54900234
 Copying the excited state density for this state as the 1-particle RhoCI density.

 Excited State   2:      Singlet-A      1.6477 eV  752.47 nm  f=0.4515  <S**2>=0.000
     309 -> 316        0.17768
     311 -> 313        0.68267
     309 <- 316        0.11411

 Excited State   3:      Singlet-A      2.1319 eV  581.56 nm  f=0.1050  <S**2>=0.000
     310 -> 314        0.64023
     312 -> 315       -0.28530

 Excited State   4:      Singlet-A      2.1651 eV  572.65 nm  f=0.1562  <S**2>=0.000
     309 -> 313        0.65107
     311 -> 316       -0.25708

 Excited State   5:      Singlet-A      3.3484 eV  370.27 nm  f=0.0010  <S**2>=0.000
     306 -> 314       -0.21711
     308 -> 314        0.65052

 The electronic state is 1-A.
 Alpha  occ. eigenvalues --  -46.96353 -46.94051 -19.30026 -19.30003 -19.24976
 Alpha  occ. eigenvalues --  -19.24622 -19.23701 -19.23665 -19.23550 -19.23311
 Alpha  occ. eigenvalues --  -14.46912 -14.46818 -14.46802 -14.46397 -14.44338
 Alpha  occ. eigenvalues --  -14.44131 -14.43576 -14.43412 -10.42986 -10.42105
 Alpha  occ. eigenvalues --  -10.39711 -10.38859 -10.38835 -10.38541 -10.35700
 Alpha  occ. eigenvalues --  -10.35578 -10.35257 -10.35174 -10.35166 -10.35014
 Alpha  occ. eigenvalues --  -10.34990 -10.34939 -10.34820 -10.34765 -10.34372
 Alpha  occ. eigenvalues --  -10.34154 -10.33632 -10.33505 -10.33429 -10.33065
 Alpha  occ. eigenvalues --  -10.33052 -10.32994 -10.32851 -10.32628 -10.32577
 Alpha  occ. eigenvalues --  -10.32499 -10.32452 -10.32419 -10.32341 -10.32319
 Alpha  occ. eigenvalues --  -10.32105 -10.32090 -10.32034 -10.31900 -10.31754
 Alpha  occ. eigenvalues --  -10.31720 -10.31693 -10.31661 -10.31649 -10.31635
 Alpha  occ. eigenvalues --  -10.31422 -10.31402 -10.31337 -10.31249 -10.30988
 Alpha  occ. eigenvalues --  -10.30782 -10.30774 -10.30734 -10.30538 -10.30468
 Alpha  occ. eigenvalues --  -10.30454 -10.30441 -10.30309 -10.30279 -10.30275
 Alpha  occ. eigenvalues --  -10.30185 -10.30071 -10.30037 -10.29637 -10.29437
 Alpha  occ. eigenvalues --  -10.29287 -10.28966 -10.28935 -10.28796 -10.28782
 Alpha  occ. eigenvalues --  -10.28681  -3.22147  -3.20244  -1.95700  -1.95270
 Alpha  occ. eigenvalues --   -1.95096  -1.93838  -1.93391  -1.93222  -1.20108
 Alpha  occ. eigenvalues --   -1.18477  -1.15148  -1.11463  -1.11097  -1.10763
 Alpha  occ. eigenvalues --   -1.10740  -1.09970  -1.06620  -1.06238  -1.05768
 Alpha  occ. eigenvalues --   -1.05346  -1.05156  -1.04596  -1.04537  -1.03894
 Alpha  occ. eigenvalues --   -0.94060  -0.93595  -0.91292  -0.91183  -0.90759
 Alpha  occ. eigenvalues --   -0.90662  -0.90222  -0.90210  -0.89595  -0.89459
 Alpha  occ. eigenvalues --   -0.89326  -0.89136  -0.88743  -0.88055  -0.86534
 Alpha  occ. eigenvalues --   -0.85900  -0.85765  -0.85616  -0.84847  -0.84472
 Alpha  occ. eigenvalues --   -0.84338  -0.83925  -0.83160  -0.82803  -0.82580
 Alpha  occ. eigenvalues --   -0.82386  -0.80327  -0.80285  -0.79266  -0.79081
 Alpha  occ. eigenvalues --   -0.79033  -0.78846  -0.77896  -0.77826  -0.77228
 Alpha  occ. eigenvalues --   -0.76619  -0.75451  -0.74340  -0.73452  -0.73436
 Alpha  occ. eigenvalues --   -0.71748  -0.71573  -0.71211  -0.70843  -0.70230
 Alpha  occ. eigenvalues --   -0.69761  -0.69102  -0.68954  -0.67353  -0.66950
 Alpha  occ. eigenvalues --   -0.66932  -0.66584  -0.66365  -0.66250  -0.66109
 Alpha  occ. eigenvalues --   -0.66025  -0.64313  -0.63707  -0.62435  -0.62065
 Alpha  occ. eigenvalues --   -0.62000  -0.61529  -0.61007  -0.60823  -0.60508
 Alpha  occ. eigenvalues --   -0.60338  -0.60317  -0.59998  -0.59680  -0.59408
 Alpha  occ. eigenvalues --   -0.58517  -0.58108  -0.58069  -0.57867  -0.57352
 Alpha  occ. eigenvalues --   -0.57109  -0.57012  -0.56601  -0.56549  -0.56308
 Alpha  occ. eigenvalues --   -0.56018  -0.55693  -0.55466  -0.55316  -0.55144
 Alpha  occ. eigenvalues --   -0.54731  -0.54714  -0.54463  -0.54313  -0.54250
 Alpha  occ. eigenvalues --   -0.54031  -0.53696  -0.53686  -0.53295  -0.53161
 Alpha  occ. eigenvalues --   -0.52897  -0.52781  -0.52540  -0.52284  -0.52254
 Alpha  occ. eigenvalues --   -0.52230  -0.51974  -0.51941  -0.51616  -0.51451
 Alpha  occ. eigenvalues --   -0.51431  -0.51171  -0.51127  -0.51089  -0.50955
 Alpha  occ. eigenvalues --   -0.50882  -0.50687  -0.50542  -0.50340  -0.50314
 Alpha  occ. eigenvalues --   -0.50077  -0.49723  -0.49666  -0.49301  -0.49197
 Alpha  occ. eigenvalues --   -0.49092  -0.48823  -0.48747  -0.48466  -0.48323
 Alpha  occ. eigenvalues --   -0.47988  -0.47961  -0.47774  -0.47482  -0.47453
 Alpha  occ. eigenvalues --   -0.47391  -0.47361  -0.47069  -0.46873  -0.46577
 Alpha  occ. eigenvalues --   -0.46531  -0.46529  -0.46308  -0.46269  -0.46027
 Alpha  occ. eigenvalues --   -0.45851  -0.45666  -0.45592  -0.45574  -0.45449
 Alpha  occ. eigenvalues --   -0.45241  -0.45213  -0.44999  -0.44927  -0.44623
 Alpha  occ. eigenvalues --   -0.44540  -0.44499  -0.44352  -0.43985  -0.43935
 Alpha  occ. eigenvalues --   -0.43790  -0.43535  -0.43440  -0.43436  -0.43346
 Alpha  occ. eigenvalues --   -0.43024  -0.42921  -0.42828  -0.42503  -0.42393
 Alpha  occ. eigenvalues --   -0.42042  -0.41123  -0.41122  -0.40874  -0.40865
 Alpha  occ. eigenvalues --   -0.40116  -0.40062  -0.39867  -0.39673  -0.39357
 Alpha  occ. eigenvalues --   -0.39182  -0.39020  -0.38643  -0.38345  -0.38126
 Alpha  occ. eigenvalues --   -0.37939  -0.37688  -0.36619  -0.36241  -0.35809
 Alpha  occ. eigenvalues --   -0.35583  -0.35396  -0.35394  -0.33775  -0.33685
 Alpha  occ. eigenvalues --   -0.33053  -0.32730  -0.32652  -0.32566  -0.32234
 Alpha  occ. eigenvalues --   -0.32036  -0.31957  -0.31529  -0.26058  -0.25759
 Alpha  occ. eigenvalues --   -0.23301  -0.22872
 Alpha virt. eigenvalues --   -0.07477  -0.07022   0.00271   0.00485   0.02448
 Alpha virt. eigenvalues --    0.02522   0.04225   0.04569   0.04615   0.06202
 Alpha virt. eigenvalues --    0.06986   0.07775   0.07911   0.08235   0.08478

 Mulliken charges:
               1
     1  Mg   0.948366
     2  C   -0.025658
     3  C   -0.065535
     4  C   -0.063928
     5  C   -0.102314
     6  N   -0.370981
     7  C   -0.015721
     8  C   -0.028498
     9  C   -0.134677
    10  C    0.098746
    11  C    0.020690
    12  C   -0.029983
    13  C   -0.123600
    14  H    0.053496
    15  N   -0.508364
    16  C    0.144509
    17  C   -0.142144
    18  C   -0.082458
    19  C    0.113012
    20  C    0.033113
    21  C    0.056525
    22  O   -0.199122
    23  C   -0.017988
    24  N   -0.306644
    25  C    0.065674
    26  C   -0.068828
    27  C   -0.047986
    28  C    0.007234
    29  C    0.036427
    30  C   -0.047577
    31  C   -0.031088
    32  N   -0.393457
    33  C    0.166325
    34  C   -0.184891
    35  C   -0.031411
    36  C    0.105906
    37  C    0.061926
    38  C    0.130821
    39  O   -0.210246
    40  C   -0.060618
    41  C    0.252826
    42  O   -0.228661
    43  O   -0.379451
    44  C    0.117916
    45  H   -0.017337
    46  H    0.026222
    47  H   -0.005173
    48  H    0.048849
    49  H    0.042219
    50  H    0.042690
    51  H    0.050132
    52  H    0.032121
    53  H    0.030171
    54  H    0.046365
    55  H    0.034884
    56  H    0.055813
    57  H    0.037180
    58  H    0.055360
    59  H    0.058303
    60  H    0.064572
    61  H    0.073675
    62  H    0.037395
    63  H    0.039930
    64  H    0.035240
    65  H    0.044180
    66  H    0.034864
    67  H    0.041329
    68  H    0.023733
    69  H    0.022428
    70  H    0.035755
    71  H    0.033332
    72  H    0.037189
    73  H    0.045475
    74  H    0.051371
    75  H    0.052621
    76  H    0.070878
    77  H    0.051482
    78  H    0.068768
    79  H    0.086300
    80  Mg   0.992286
    81  C   -0.044637
    82  C   -0.105319
    83  C   -0.051518
    84  C   -0.104107
    85  N   -0.349830
    86  C   -0.028381
    87  C   -0.021315
    88  C   -0.162844
    89  C    0.116071
    90  C    0.006215
    91  C    0.037909
    92  C   -0.145919
    93  H    0.028816
    94  N   -0.425330
    95  C    0.160264
    96  C   -0.175194
    97  C   -0.074088
    98  C    0.171315
    99  C    0.066531
   100  C    0.038126
   101  O   -0.260146
   102  C    0.004565
   103  N   -0.396043
   104  C    0.027511
   105  C   -0.070180
   106  C   -0.076057
   107  C    0.087137
   108  C    0.029261
   109  C   -0.031252
   110  C   -0.058207
   111  N   -0.470178
   112  C    0.132058
   113  C   -0.134387
   114  C   -0.037939
   115  C    0.195217
   116  C    0.072390
   117  C    0.096087
   118  O   -0.219399
   119  C   -0.078131
   120  C    0.235449
   121  O   -0.251483
   122  O   -0.328085
   123  C    0.135840
   124  H   -0.002063
   125  H    0.021845
   126  H   -0.004704
   127  H    0.033209
   128  H    0.042971
   129  H    0.043836
   130  H    0.040429
   131  H    0.035205
   132  H    0.039542
   133  H    0.030021
   134  H    0.063216
   135  H    0.056156
   136  H    0.042419
   137  H    0.057073
   138  H    0.056357
   139  H    0.055903
   140  H    0.067022
   141  H    0.045029
   142  H    0.038411
   143  H    0.027413
   144  H    0.039893
   145  H    0.027338
   146  H    0.056790
   147  H    0.029191
   148  H    0.032962
   149  H    0.037780
   150  H    0.047623
   151  H    0.028742
   152  H    0.045997
   153  H    0.055595
   154  H    0.045381
   155  H    0.065542
   156  H    0.042558
   157  H    0.055537
   158  H    0.066706
 Sum of Mulliken charges =  -0.00000

 Dipole moment (field-independent basis, Debye):
    X=              2.1897    Y=             -0.0136    Z=              3.7972  Tot=              4.3834
 Quadrupole moment (field-independent basis, Debye-Ang):
   XX=           -791.4275   YY=           -461.6059   ZZ=           -518.6203
   XY=             18.6376   XZ=            132.4574   YZ=              7.1457

 Normal termination of Gaussian 16 at Sun Sep 19 02:38:31 2021.
