 Gaussian 16, Revision A.03,
 Gaussian 16:  ES64L-G16RevA.03 25-Dec-2016

 --------------------------------
 #p wB97XD/Def2SVP td=(nstates=5)
 --------------------------------

 --------------------------------
 TDDFT excited states in gaussian
 --------------------------------
 Symbolic Z-matrix:
 Charge =  0 Multiplicity = 1

                         Standard orientation:
 ---------------------------------------------------------------------
 Center     Atomic      Atomic             Coordinates (Angstroms)
 Number     Number       Type             X           Y           Z
 ---------------------------------------------------------------------
      1         12           0      -27.607219    0.126827   -0.252369
      2          6           0      -24.264897   -0.513033   -0.155087
      3          6           0      -28.118039   -3.107560    0.890893
      4          6           0      -30.866998    0.885427    0.014012
      5          6           0      -26.954219    3.548516   -0.753771
      6          7           0      -26.299611   -1.527219    0.551539
      7          6           0      -24.957498   -1.526022    0.424624
      8          6           0      -24.328591   -2.734828    1.015081
      9          6           0      -25.641878   -3.738571    0.998426
     10          6           0      -26.801900   -2.740584    0.798685
     11          6           0      -25.536847   -4.853838   -0.083305
     12          6           0      -23.849564   -2.427585    2.425009
     13          6           0      -24.886897   -1.845832    3.493297
     14          1           0      -24.852349   -2.322131    4.940136
     15          7           0      -29.259309   -0.943207    0.361729
     16          6           0      -29.293813   -2.326279    0.671888
     17          6           0      -30.665960   -2.698998    0.763779
     18          6           0      -31.487803   -1.594963    0.573976
     19          6           0      -30.586144   -0.473837    0.259861
     20          6           0      -30.991148   -4.149465    1.057362
     21          6           0      -32.988116   -1.525979    0.730596
     22          8           0      -33.550251   -2.600527    1.058572
     23          6           0      -33.776535   -0.339721    0.745477
     24          7           0      -28.709010    2.012977   -0.143993
     25          6           0      -30.071935    2.030981   -0.094848
     26          6           0      -30.616572    3.478058   -0.158412
     27          6           0      -29.318637    4.318084   -0.406823
     28          6           0      -28.241794    3.247229   -0.361230
     29          6           0      -31.692707    3.673298   -1.205012
     30          6           0      -29.146057    5.476199    0.714125
     31          6           0      -28.673816    6.822751    0.153975
     32          7           0      -25.936939    1.385010   -0.443820
     33          6           0      -25.803389    2.677911   -0.837788
     34          6           0      -24.419310    2.871181   -1.175200
     35          6           0      -23.713519    1.634307   -0.976465
     36          6           0      -24.693972    0.777503   -0.504187
     37          6           0      -23.768086    4.190224   -1.414575
     38          6           0      -22.468771    0.935495   -0.958913
     39          8           0      -21.388078    1.420667   -1.316780
     40          6           0      -22.786659   -0.465315   -0.469476
     41          6           0      -22.370630   -1.435190   -1.511616
     42          8           0      -21.214762   -1.442904   -1.886954
     43          8           0      -23.342528   -2.308106   -1.895036
     44          6           0      -22.936970   -3.285653   -2.906886
     45          1           0      -28.291392   -4.182068    0.978083
     46          1           0      -31.935572    1.058646   -0.128317
     47          1           0      -26.685373    4.552856   -1.088612
     48          1           0      -23.469268   -3.169870    0.504685
     49          1           0      -25.675840   -4.348600    1.902034
     50          1           0      -25.596952   -5.834829    0.386600
     51          1           0      -24.548558   -4.762166   -0.534622
     52          1           0      -26.273666   -4.782755   -0.884451
     53          1           0      -22.964980   -1.797585    2.329424
     54          1           0      -23.378122   -3.366904    2.713766
     55          1           0      -25.941097   -1.986985    3.254521
     56          1           0      -24.598792   -0.795499    3.525659
     57          1           0      -30.946601   -4.240927    2.142767
     58          1           0      -30.210308   -4.778684    0.632023
     59          1           0      -31.950776   -4.515103    0.690724
     60          1           0      -34.663626   -0.450492    1.369895
     61          1           0      -33.987294    0.057347   -0.248344
     62          1           0      -33.184092    0.375978    1.313850
     63          1           0      -30.997946    3.640506    0.850293
     64          1           0      -29.319924    4.691199   -1.430792
     65          1           0      -32.008721    2.752058   -1.693726
     66          1           0      -31.606085    4.445828   -1.968600
     67          1           0      -32.575059    3.875018   -0.596966
     68          1           0      -28.444450    5.220797    1.508309
     69          1           0      -30.062240    5.635326    1.282519
     70          1           0      -29.516914    7.512568    0.180499
     71          1           0      -28.437538    6.687353   -0.901674
     72          1           0      -27.837889    7.246205    0.710979
     73          1           0      -24.027601    4.721666   -2.329381
     74          1           0      -22.696950    3.986928   -1.385218
     75          1           0      -24.003477    4.911985   -0.632354
     76          1           0      -22.181446   -0.617260    0.424718
     77          1           0      -22.086813   -3.841121   -2.509880
     78          1           0      -22.728946   -2.841682   -3.880525
     79          1           0      -23.775853   -3.925361   -3.180629
     80         12           0       27.351780    0.649677   -0.384496
     81          6           0       25.688760   -2.446200   -0.395023
     82          6           0       24.367793    2.167342    0.399507
     83          6           0       29.108129    3.357066    0.344087
     84          6           0       30.409747   -1.071315   -0.936647
     85          7           0       25.354806   -0.089276    0.203504
     86          6           0       24.871561   -1.421000    0.125471
     87          6           0       23.400920   -1.498821    0.159853
     88          6           0       22.987403    0.027793    0.318782
     89          6           0       24.312751    0.771584    0.270727
     90          6           0       21.901962    0.458360   -0.697313
     91          6           0       22.840109   -2.238116    1.336229
     92          6           0       23.571121   -2.062481    2.675607
     93          1           0       22.784375   -2.025818    4.043407
     94          7           0       26.834561    2.557602    0.255599
     95          6           0       25.564164    2.984048    0.389378
     96          6           0       25.584999    4.401578    0.650407
     97          6           0       26.942029    4.800138    0.568749
     98          6           0       27.716389    3.567918    0.349548
     99          6           0       24.390487    5.257211    0.976443
    100          6           0       27.459726    6.232332    0.698435
    101          8           0       26.698637    7.158305    0.900384
    102          6           0       28.889162    6.686677    0.718798
    103          7           0       29.448159    1.026204   -0.055146
    104          6           0       29.939961    2.279401    0.195821
    105          6           0       31.487171    2.342159   -0.024853
    106          6           0       31.862328    0.832641   -0.126090
    107          6           0       30.507162    0.221388   -0.407334
    108          6           0       31.948890    3.107998   -1.288189
    109          6           0       32.344472    0.134870    1.232240
    110          6           0       33.560568   -0.715280    1.154773
    111          7           0       27.957133   -1.251661   -0.714802
    112          6           0       29.149782   -1.729010   -1.095518
    113          6           0       28.986947   -3.098621   -1.714007
    114          6           0       27.599470   -3.363931   -1.483867
    115          6           0       27.056224   -2.274563   -0.745738
    116          6           0       30.008541   -4.015259   -2.371565
    117          6           0       26.618395   -4.407085   -1.567721
    118          8           0       26.706787   -5.549696   -1.988639
    119          6           0       25.317683   -3.824451   -0.881157
    120          6           0       25.080563   -4.637469    0.374588
    121          8           0       25.738715   -4.656293    1.361741
    122          8           0       23.876739   -5.294234    0.232489
    123          6           0       23.379469   -5.889083    1.477158
    124          1           0       23.394853    2.660159    0.450458
    125          1           0       29.692454    4.276585    0.406770
    126          1           0       31.368938   -1.499851   -1.234539
    127          1           0       23.075144   -1.984232   -0.760112
    128          1           0       22.657746    0.333431    1.311711
    129          1           0       21.201840    0.964914   -0.032746
    130          1           0       21.509205   -0.453472   -1.147350
    131          1           0       22.262959    1.185184   -1.425259
    132          1           0       22.605808   -3.283024    1.131104
    133          1           0       21.827052   -1.948417    1.616186
    134          1           0       24.149092   -1.145237    2.557867
    135          1           0       24.288701   -2.882726    2.649378
    136          1           0       24.594987    5.906998    1.828005
    137          1           0       23.512783    4.627271    1.120542
    138          1           0       24.253732    5.868124    0.083830
    139          1           0       29.474076    6.355651    1.576331
    140          1           0       28.763812    7.755469    0.892855
    141          1           0       29.368490    6.640914   -0.259667
    142          1           0       31.924700    2.837448    0.841862
    143          1           0       32.558881    0.612447   -0.935471
    144          1           0       32.379100    2.392263   -1.988489
    145          1           0       32.511157    4.006442   -1.034245
    146          1           0       31.068637    3.511453   -1.787388
    147          1           0       31.535615   -0.436276    1.687336
    148          1           0       32.543360    0.975730    1.896913
    149          1           0       34.340063   -0.408952    1.852069
    150          1           0       33.988421   -0.773369    0.153673
    151          1           0       33.350517   -1.747375    1.434109
    152          1           0       29.999300   -4.943949   -1.800970
    153          1           0       30.940720   -3.457379   -2.468699
    154          1           0       29.584204   -4.272021   -3.342105
    155          1           0       24.454107   -3.845615   -1.545528
    156          1           0       23.693742   -5.342560    2.366234
    157          1           0       23.815800   -6.887968    1.470646
    158          1           0       22.311824   -6.043625    1.323476
 ---------------------------------------------------------------------

 SCF Done:  E(RwB97XD) =  -4070.60175035     A.U. after   20 cycles

 Excitation energies and oscillator strengths:

 Excited State   1:      Singlet-A      1.6067 eV  771.69 nm  f=0.3726  <S**2>=0.000
     310 -> 316        0.17858
     312 -> 314        0.68544
     310 <- 316        0.11728
 This state for optimization and/or second-order correction.
 Total Energy, E(TD-HF/TD-DFT) =  -4070.54270690
 Copying the excited state density for this state as the 1-particle RhoCI density.

 Excited State   2:      Singlet-A      1.6885 eV  734.29 nm  f=0.3927  <S**2>=0.000
     309 -> 315        0.18195
     311 -> 313        0.68311
     309 <- 315        0.11275

 Excited State   3:      Singlet-A      2.1633 eV  573.13 nm  f=0.1260  <S**2>=0.000
     309 -> 313        0.64778
     311 -> 315       -0.25634

 Excited State   4:      Singlet-A      2.2111 eV  560.73 nm  f=0.0984  <S**2>=0.000
     310 -> 314        0.62751
     312 -> 316       -0.31207

 Excited State   5:      Singlet-A      3.2087 eV  386.40 nm  f=0.0008  <S**2>=0.000
     305 -> 313       -0.33698
     308 -> 313        0.59924

 The electronic state is 1-A.
 Alpha  occ. eigenvalues --  -46.95472 -46.94916 -19.31594 -19.29822 -19.25314
 Alpha  occ. eigenvalues --  -19.24422 -19.24163 -19.23314 -19.23243 -19.23231
 Alpha  occ. eigenvalues --  -14.46975 -14.46677 -14.46658 -14.46469 -14.44451
 Alpha  occ. eigenvalues --  -14.44158 -14.44091 -14.43178 -10.43299 -10.43061
 Alpha  occ. eigenvalues --  -10.38987 -10.38823 -10.38544 -10.38442 -10.36487
 Alpha  occ. eigenvalues --  -10.35747 -10.35342 -10.35239 -10.35223 -10.35181
 Alpha  occ. eigenvalues --  -10.34953 -10.34816 -10.34636 -10.34581 -10.34506
 Alpha  occ. eigenvalues --  -10.34489 -10.34483 -10.34187 -10.33975 -10.33304
 Alpha  occ. eigenvalues --  -10.33171 -10.33037 -10.32844 -10.32599 -10.32543
 Alpha  occ. eigenvalues --  -10.32533 -10.32513 -10.32461 -10.32442 -10.32436
 Alpha  occ. eigenvalues --  -10.32424 -10.32271 -10.32170 -10.32157 -10.32098
 Alpha  occ. eigenvalues --  -10.32087 -10.31862 -10.31856 -10.31815 -10.31532
 Alpha  occ. eigenvalues --  -10.31502 -10.31445 -10.31375 -10.31271 -10.31194
 Alpha  occ. eigenvalues --  -10.31049 -10.30936 -10.30837 -10.30785 -10.30521
 Alpha  occ. eigenvalues --  -10.30473 -10.30431 -10.30403 -10.30348 -10.30343
 Alpha  occ. eigenvalues --  -10.30284 -10.30220 -10.29935 -10.29526 -10.29428
 Alpha  occ. eigenvalues --  -10.29413 -10.29345 -10.29162 -10.29139 -10.28819
 Alpha  occ. eigenvalues --  -10.28559  -3.21378  -3.20986  -1.94939  -1.94539
 Alpha  occ. eigenvalues --   -1.94516  -1.94329  -1.94116  -1.93975  -1.19581
 Alpha  occ. eigenvalues --   -1.19387  -1.12590  -1.12172  -1.11240  -1.11138
 Alpha  occ. eigenvalues --   -1.10640  -1.10206  -1.06987  -1.06571  -1.06549
 Alpha  occ. eigenvalues --   -1.06013  -1.05309  -1.04746  -1.04630  -1.03605
 Alpha  occ. eigenvalues --   -0.96054  -0.95138  -0.91722  -0.91292  -0.91244
 Alpha  occ. eigenvalues --   -0.90916  -0.90639  -0.90278  -0.89716  -0.89429
 Alpha  occ. eigenvalues --   -0.88346  -0.88264  -0.87786  -0.87735  -0.87024
 Alpha  occ. eigenvalues --   -0.86627  -0.86033  -0.86014  -0.85295  -0.84708
 Alpha  occ. eigenvalues --   -0.84610  -0.83580  -0.83398  -0.82860  -0.82797
 Alpha  occ. eigenvalues --   -0.82446  -0.80575  -0.79977  -0.79865  -0.79421
 Alpha  occ. eigenvalues --   -0.78978  -0.78758  -0.78064  -0.77959  -0.77073
 Alpha  occ. eigenvalues --   -0.76936  -0.74671  -0.74484  -0.74122  -0.73633
 Alpha  occ. eigenvalues --   -0.72085  -0.71536  -0.71081  -0.70794  -0.70790
 Alpha  occ. eigenvalues --   -0.70553  -0.69172  -0.69070  -0.68486  -0.67771
 Alpha  occ. eigenvalues --   -0.67351  -0.67212  -0.67054  -0.66500  -0.66367
 Alpha  occ. eigenvalues --   -0.66347  -0.65810  -0.64077  -0.62228  -0.61956
 Alpha  occ. eigenvalues --   -0.61713  -0.61405  -0.61339  -0.60986  -0.60904
 Alpha  occ. eigenvalues --   -0.60737  -0.60382  -0.60084  -0.60035  -0.59376
 Alpha  occ. eigenvalues --   -0.58750  -0.58583  -0.58515  -0.57996  -0.57779
 Alpha  occ. eigenvalues --   -0.57341  -0.57098  -0.57033  -0.56540  -0.56472
 Alpha  occ. eigenvalues --   -0.56220  -0.56004  -0.55705  -0.55449  -0.55030
 Alpha  occ. eigenvalues --   -0.54971  -0.54784  -0.54464  -0.54279  -0.54188
 Alpha  occ. eigenvalues --   -0.53999  -0.53816  -0.53720  -0.53511  -0.53346
 Alpha  occ. eigenvalues --   -0.53320  -0.53057  -0.53023  -0.52851  -0.52819
 Alpha  occ. eigenvalues --   -0.52329  -0.52078  -0.51582  -0.51531  -0.51437
 Alpha  occ. eigenvalues --   -0.51317  -0.51192  -0.51053  -0.50824  -0.50704
 Alpha  occ. eigenvalues --   -0.50668  -0.50591  -0.50530  -0.50422  -0.50263
 Alpha  occ. eigenvalues --   -0.50072  -0.49553  -0.49443  -0.49109  -0.49039
 Alpha  occ. eigenvalues --   -0.49023  -0.48803  -0.48716  -0.48663  -0.48420
 Alpha  occ. eigenvalues --   -0.48384  -0.48290  -0.48012  -0.47927  -0.47803
 Alpha  occ. eigenvalues --   -0.47678  -0.47563  -0.47404  -0.47147  -0.47147
 Alpha  occ. eigenvalues --   -0.46827  -0.46591  -0.46582  -0.46524  -0.46482
 Alpha  occ. eigenvalues --   -0.46276  -0.46003  -0.45815  -0.45700  -0.45514
 Alpha  occ. eigenvalues --   -0.45514  -0.45129  -0.44752  -0.44676  -0.44500
 Alpha  occ. eigenvalues --   -0.44360  -0.44332  -0.44236  -0.44193  -0.44091
 Alpha  occ. eigenvalues --   -0.44060  -0.43840  -0.43770  -0.43745  -0.43309
 Alpha  occ. eigenvalues --   -0.43081  -0.43037  -0.42940  -0.42653  -0.42354
 Alpha  occ. eigenvalues --   -0.42274  -0.41743  -0.41433  -0.41102  -0.41012
 Alpha  occ. eigenvalues --   -0.40665  -0.40387  -0.39801  -0.39789  -0.39709
 Alpha  occ. eigenvalues --   -0.39475  -0.39293  -0.39054  -0.38997  -0.38454
 Alpha  occ. eigenvalues --   -0.37896  -0.37688  -0.37026  -0.36723  -0.36194
 Alpha  occ. eigenvalues --   -0.35982  -0.35301  -0.35276  -0.33999  -0.33557
 Alpha  occ. eigenvalues --   -0.33098  -0.32824  -0.32444  -0.32399  -0.32315
 Alpha  occ. eigenvalues --   -0.32051  -0.31804  -0.31140  -0.26228  -0.26206
 Alpha  occ. eigenvalues --   -0.23481  -0.22830
 Alpha virt. eigenvalues --   -0.07501  -0.07099   0.00046   0.00149   0.02212
 Alpha virt. eigenvalues --    0.02320   0.04118   0.04459   0.04514   0.04674
 Alpha virt. eigenvalues --    0.07355   0.07601   0.07796   0.08019   0.08178

 Mulliken charges:
               1
     1  Mg   0.931454
     2  C   -0.000993
     3  C   -0.065708
     4  C   -0.091526
     5  C   -0.077509
     6  N   -0.307380
     7  C    0.004276
     8  C   -0.074404
     9  C   -0.126417
    10  C    0.080406
    11  C    0.020532
    12  C    0.007956
    13  C   -0.131147
    14  H    0.036925
    15  N   -0.514508
    16  C    0.149014
    17  C   -0.151797
    18  C   -0.055544
    19  C    0.177966
    20  C    0.087393
    21  C    0.034474
    22  O   -0.271034
    23  C    0.017050
    24  N   -0.324803
    25  C    0.043540
    26  C   -0.057450
    27  C   -0.088545
    28  C    0.105976
    29  C    0.017438
    30  C   -0.009881
    31  C   -0.055797
    32  N   -0.439677
    33  C    0.094571
    34  C   -0.179731
    35  C    0.011864
    36  C    0.117625
    37  C    0.048049
    38  C    0.070969
    39  O   -0.201897
    40  C   -0.081090
    41  C    0.257021
    42  O   -0.227858
    43  O   -0.352621
    44  C    0.138957
    45  H   -0.003835
    46  H   -0.037219
    47  H   -0.005200
    48  H    0.022117
    49  H    0.037570
    50  H    0.038113
    51  H    0.026425
    52  H    0.039077
    53  H    0.025043
    54  H    0.032731
    55  H    0.078030
    56  H    0.066414
    57  H    0.053636
    58  H    0.029902
    59  H    0.063908
    60  H    0.061110
    61  H    0.077284
    62  H    0.047631
    63  H    0.049746
    64  H    0.040773
    65  H    0.036131
    66  H    0.051918
    67  H    0.027119
    68  H    0.036493
    69  H    0.027990
    70  H    0.034954
    71  H    0.031360
    72  H    0.047290
    73  H    0.038321
    74  H    0.058170
    75  H    0.037801
    76  H    0.089620
    77  H    0.063411
    78  H    0.059047
    79  H    0.050979
    80  Mg   0.971102
    81  C   -0.073508
    82  C   -0.088682
    83  C   -0.070184
    84  C   -0.087660
    85  N   -0.366507
    86  C    0.021330
    87  C   -0.041452
    88  C   -0.131874
    89  C    0.060029
    90  C    0.036717
    91  C   -0.026037
    92  C   -0.106264
    93  H    0.042096
    94  N   -0.438521
    95  C    0.155038
    96  C   -0.199093
    97  C   -0.050507
    98  C    0.165455
    99  C    0.110713
   100  C    0.017548
   101  O   -0.237355
   102  C   -0.009384
   103  N   -0.356953
   104  C    0.045707
   105  C   -0.080105
   106  C   -0.111504
   107  C    0.037496
   108  C    0.042923
   109  C    0.014734
   110  C   -0.045853
   111  N   -0.434629
   112  C    0.147911
   113  C   -0.205246
   114  C   -0.044337
   115  C    0.163240
   116  C    0.102109
   117  C    0.124307
   118  O   -0.206595
   119  C   -0.072953
   120  C    0.257988
   121  O   -0.210127
   122  O   -0.374956
   123  C    0.128967
   124  H   -0.001763
   125  H   -0.030317
   126  H    0.001576
   127  H    0.040568
   128  H    0.052548
   129  H    0.037949
   130  H    0.045567
   131  H    0.046143
   132  H    0.018105
   133  H    0.023483
   134  H    0.051745
   135  H    0.057167
   136  H    0.065768
   137  H    0.021471
   138  H    0.056310
   139  H    0.066064
   140  H    0.044668
   141  H    0.054421
   142  H    0.033918
   143  H    0.029516
   144  H    0.040550
   145  H    0.046087
   146  H    0.027751
   147  H    0.057244
   148  H    0.024507
   149  H    0.038647
   150  H    0.024896
   151  H    0.035847
   152  H    0.069365
   153  H    0.037709
   154  H    0.057395
   155  H    0.064952
   156  H    0.073147
   157  H    0.055924
   158  H    0.055952
 Sum of Mulliken charges =  -0.00000

 Dipole moment (field-independent basis, Debye):
    X=             -3.5999    Y=              1.5500    Z=             -2.0355  Tot=              4.4164
 Quadrupole moment (field-independent basis, Debye-Ang):
   XX=           -209.3422   YY=           -525.2187   ZZ=           -510.8092
   XY=              4.9749   XZ=             -2.5229   YZ=             -5.2194

 Normal termination of Gaussian 16 at Sun Sep 19 17:45:45 2021.
