 Gaussian 16, Revision A.03,
 Gaussian 16:  ES64L-G16RevA.03 25-Dec-2016

 --------------------------------
 #p wB97XD/Def2SVP td=(nstates=5)
 --------------------------------

 --------------------------------
 TDDFT excited states in gaussian
 --------------------------------
 Symbolic Z-matrix:
 Charge =  0 Multiplicity = 1

                         Standard orientation:
 ---------------------------------------------------------------------
 Center     Atomic      Atomic             Coordinates (Angstroms)
 Number     Number       Type             X           Y           Z
 ---------------------------------------------------------------------
      1         12           0       10.767762    0.612430   -0.137075
      2          6           0       10.786256   -2.756609    0.352038
      3          6           0        7.586288    0.654849    1.243383
      4          6           0       10.907470    3.964410   -0.268634
      5          6           0       14.205989    0.539274   -0.884749
      6          7           0        9.455990   -0.872604    0.942693
      7          6           0        9.704161   -2.197641    0.950813
      8          6           0        8.683353   -2.963543    1.710234
      9          6           0        7.448875   -1.865565    1.655375
     10          6           0        8.190089   -0.574289    1.249502
     11          6           0        6.299156   -2.295760    0.697214
     12          6           0        9.177158   -3.212810    3.126491
     13          6           0        9.625682   -1.970783    4.027563
     14          1           0        9.270255   -1.924260    5.508409
     15          7           0        9.449179    2.101960    0.405265
     16          6           0        8.110958    1.919870    0.836872
     17          6           0        7.490822    3.202621    0.825379
     18          6           0        8.401112    4.184090    0.453310
     19          6           0        9.648108    3.471276    0.128540
     20          6           0        6.029952    3.290223    1.217775
     21          6           0        8.193594    5.679805    0.452345
     22          8           0        7.057994    6.071134    0.820434
     23          6           0        9.205507    6.667200    0.278797
     24          7           0       12.411778    2.043927   -0.313935
     25          6           0       12.172829    3.383809   -0.402953
     26          6           0       13.480948    4.171534   -0.653979
     27          6           0       14.533121    3.028195   -0.848130
     28          6           0       13.693588    1.787111   -0.596543
     29          6           0       13.391281    5.137199   -1.816306
     30          6           0       15.780595    3.199610    0.172636
     31          6           0       17.148592    2.918757   -0.459572
     32          7           0       12.304465   -0.811888   -0.276261
     33          6           0       13.567276   -0.752588   -0.772682
     34          6           0       13.996320   -2.107951   -0.986659
     35          6           0       12.934480   -2.999223   -0.605053
     36          6           0       11.942606   -2.143143   -0.155873
     37          6           0       15.394662   -2.531589   -1.280665
     38          6           0       12.489192   -4.339836   -0.398857
     39          8           0       13.144624   -5.348201   -0.690349
     40          6           0       11.092440   -4.227739    0.183714
     41          6           0       10.147263   -4.930621   -0.717613
     42          8           0       10.333263   -6.104060   -0.973375
     43          8           0        9.079586   -4.184531   -1.113838
     44          6           0        8.127082   -4.875089   -1.985493
     45          1           0        6.507574    0.638754    1.411727
     46          1           0       10.862851    5.022994   -0.532305
     47          1           0       15.216388    0.420789   -1.282429
     48          1           0        8.384683   -3.940700    1.330547
     49          1           0        6.910308   -1.839125    2.603554
     50          1           0        5.361186   -2.361290    1.247381
     51          1           0        6.544994   -3.296240    0.340270
     52          1           0        6.170389   -1.655717   -0.176601
     53          1           0        9.955846   -3.973071    3.061888
     54          1           0        8.368378   -3.810728    3.546402
     55          1           0        9.269096   -0.994541    3.698819
     56          1           0       10.711245   -2.057353    3.991347
     57          1           0        6.027131    3.355287    2.305990
     58          1           0        5.532339    2.364200    0.932460
     59          1           0        5.462436    4.118534    0.792536
     60          1           0        8.972759    7.585350    0.819100
     61          1           0        9.482385    6.830596   -0.763509
     62          1           0       10.060182    6.284398    0.834905
     63          1           0       13.639883    4.689858    0.292278
     64          1           0       14.824355    2.979201   -1.897183
     65          1           0       12.393885    5.221862   -2.246914
     66          1           0       14.109072    5.105042   -2.635523
     67          1           0       13.464177    6.105670   -1.320621
     68          1           0       15.721697    2.559625    1.053068
     69          1           0       15.802480    4.188798    0.629596
     70          1           0       17.664907    3.870595   -0.581179
     71          1           0       16.985065    2.541628   -1.469318
     72          1           0       17.762818    2.243719    0.136575
     73          1           0       15.799478   -2.287025   -2.261972
     74          1           0       15.402185   -3.611176   -1.125882
     75          1           0       16.112688   -2.080216   -0.595889
     76          1           0       11.123633   -4.743240    1.144048
     77          1           0        7.774159   -5.760530   -1.456000
     78          1           0        8.531258   -5.109787   -2.970336
     79          1           0        7.320999   -4.203823   -2.281328
     80         12           0      -11.305435    0.286325   -0.389470
     81          6           0       -8.690824   -2.048981   -0.024440
     82          6           0      -13.419369   -2.171958    0.466548
     83          6           0      -13.565955    2.643216   -0.264062
     84          6           0       -8.752149    2.780711   -0.560464
     85          7           0      -11.048031   -1.855057    0.200003
     86          6           0       -9.942350   -2.636738    0.213614
     87          6           0      -10.226562   -4.087210    0.547308
     88          6           0      -11.802604   -4.095618    0.417104
     89          6           0      -12.165900   -2.625952    0.368880
     90          6           0      -12.364528   -4.883578   -0.837368
     91          6           0       -9.742111   -4.744504    1.912650
     92          6           0       -9.271984   -3.875922    3.109587
     93          1           0       -9.565512   -4.403148    4.563768
     94          7           0      -13.293035    0.164849   -0.073049
     95          6           0      -13.971180   -0.886336    0.367572
     96          6           0      -15.374482   -0.473930    0.642943
     97          6           0      -15.443399    0.962273    0.250865
     98          6           0      -14.051035    1.308426   -0.036240
     99          6           0      -16.474999   -1.428548    1.020383
    100          6           0      -16.672380    1.831625    0.304494
    101          8           0      -17.742586    1.319975    0.624156
    102          6           0      -16.705139    3.382852    0.044200
    103          7           0      -11.178989    2.504616   -0.298319
    104          6           0      -12.303554    3.120908   -0.419404
    105          6           0      -11.979346    4.666550   -0.631566
    106          6           0      -10.457972    4.663647   -0.468508
    107          6           0      -10.073602    3.197487   -0.417917
    108          6           0      -12.461816    5.364041   -1.914336
    109          6           0       -9.955542    5.281869    0.937222
    110          6           0       -9.163744    6.600284    0.863114
    111          7           0       -9.189849    0.428558   -0.253987
    112          6           0       -8.303269    1.452281   -0.460124
    113          6           0       -6.923727    0.925255   -0.624934
    114          6           0       -6.993839   -0.466249   -0.332530
    115          6           0       -8.433838   -0.695654   -0.229062
    116          6           0       -5.630150    1.744537   -0.831220
    117          6           0       -6.293209   -1.694048   -0.154061
    118          8           0       -5.093114   -2.002007   -0.054806
    119          6           0       -7.369411   -2.801382   -0.020545
    120          6           0       -7.125431   -3.795400   -1.159719
    121          8           0       -6.665961   -4.906103   -1.188924
    122          8           0       -7.746265   -3.287103   -2.305894
    123          6           0       -7.745317   -4.143021   -3.532782
    124          1           0      -14.083446   -2.989465    0.755546
    125          1           0      -14.364219    3.389299   -0.252192
    126          1           0       -8.013026    3.520428   -0.873910
    127          1           0       -9.825106   -4.645434   -0.298264
    128          1           0      -12.231948   -4.586404    1.290663
    129          1           0      -11.551293   -5.258392   -1.457965
    130          1           0      -12.807929   -4.075016   -1.417476
    131          1           0      -13.058324   -5.655919   -0.504841
    132          1           0       -8.940833   -5.438164    1.657587
    133          1           0      -10.534107   -5.392045    2.290385
    134          1           0       -9.772238   -2.915235    2.987203
    135          1           0       -8.188799   -3.802641    3.201758
    136          1           0      -17.471313   -0.998854    0.918488
    137          1           0      -16.217359   -1.816620    2.006551
    138          1           0      -16.309513   -2.282208    0.362305
    139          1           0      -16.279419    3.811028   -0.864069
    140          1           0      -16.117949    3.866159    0.825055
    141          1           0      -17.720444    3.778237    0.054117
    142          1           0      -12.460533    5.281714    0.128035
    143          1           0       -9.848514    5.192263   -1.202292
    144          1           0      -13.023947    4.686939   -2.557685
    145          1           0      -11.636811    5.828469   -2.455537
    146          1           0      -13.169051    6.172532   -1.729212
    147          1           0       -9.293729    4.596834    1.465387
    148          1           0      -10.858493    5.416860    1.533062
    149          1           0       -8.392541    6.728625    1.623042
    150          1           0       -9.899441    7.383443    1.045969
    151          1           0       -8.726434    6.571844   -0.134984
    152          1           0       -5.726905    2.814182   -0.648116
    153          1           0       -5.386143    1.588509   -1.881751
    154          1           0       -4.835672    1.274685   -0.251966
    155          1           0       -7.249148   -3.307234    0.936878
    156          1           0       -6.911845   -4.827172   -3.690525
    157          1           0       -7.673934   -3.414896   -4.340547
    158          1           0       -8.642588   -4.715629   -3.768449
 ---------------------------------------------------------------------

 SCF Done:  E(RwB97XD) =  -4070.59310378     A.U. after   19 cycles

 Excitation energies and oscillator strengths:

 Excited State   1:      Singlet-A      1.6874 eV  734.76 nm  f=0.4755  <S**2>=0.000
     310 -> 316        0.17928
     311 -> 314        0.10710
     312 -> 313        0.67474
     310 <- 316        0.11116
 This state for optimization and/or second-order correction.
 Total Energy, E(TD-HF/TD-DFT) =  -4070.53109256
 Copying the excited state density for this state as the 1-particle RhoCI density.

 Excited State   2:      Singlet-A      1.7159 eV  722.55 nm  f=0.3380  <S**2>=0.000
     309 -> 315        0.18845
     311 -> 314        0.67282
     312 -> 313       -0.10662
     309 <- 315        0.11398

 Excited State   3:      Singlet-A      2.1630 eV  573.19 nm  f=0.1238  <S**2>=0.000
     310 -> 313        0.64782
     312 -> 316       -0.25591

 Excited State   4:      Singlet-A      2.2306 eV  555.83 nm  f=0.0956  <S**2>=0.000
     309 -> 314        0.63461
     311 -> 315       -0.29956

 Excited State   5:      Singlet-A      3.2094 eV  386.32 nm  f=0.0007  <S**2>=0.000
     306 -> 313       -0.33554
     308 -> 313        0.59993

 The electronic state is 1-A.
 Alpha  occ. eigenvalues --  -46.96472 -46.95374 -19.31457 -19.29959 -19.25485
 Alpha  occ. eigenvalues --  -19.24693 -19.24292 -19.23632 -19.23212 -19.23169
 Alpha  occ. eigenvalues --  -14.46977 -14.46576 -14.46550 -14.46435 -14.45133
 Alpha  occ. eigenvalues --  -14.44776 -14.44354 -14.43081 -10.43871 -10.43171
 Alpha  occ. eigenvalues --  -10.39863 -10.39607 -10.38751 -10.38338 -10.36329
 Alpha  occ. eigenvalues --  -10.35737 -10.35655 -10.35637 -10.35249 -10.35200
 Alpha  occ. eigenvalues --  -10.35184 -10.35121 -10.34824 -10.34752 -10.34492
 Alpha  occ. eigenvalues --  -10.34403 -10.34392 -10.34241 -10.34135 -10.34075
 Alpha  occ. eigenvalues --  -10.33887 -10.33442 -10.33145 -10.33075 -10.32941
 Alpha  occ. eigenvalues --  -10.32926 -10.32912 -10.32484 -10.32438 -10.32368
 Alpha  occ. eigenvalues --  -10.32367 -10.32268 -10.32127 -10.32069 -10.32026
 Alpha  occ. eigenvalues --  -10.31991 -10.31955 -10.31731 -10.31717 -10.31592
 Alpha  occ. eigenvalues --  -10.31485 -10.31439 -10.31378 -10.31336 -10.31281
 Alpha  occ. eigenvalues --  -10.31197 -10.31183 -10.31165 -10.31058 -10.31040
 Alpha  occ. eigenvalues --  -10.30869 -10.30691 -10.30510 -10.30468 -10.30402
 Alpha  occ. eigenvalues --  -10.30368 -10.30364 -10.30290 -10.30064 -10.30023
 Alpha  occ. eigenvalues --  -10.29639 -10.29423 -10.29368 -10.29310 -10.28734
 Alpha  occ. eigenvalues --  -10.28460  -3.22401  -3.21279  -1.95978  -1.95521
 Alpha  occ. eigenvalues --   -1.95370  -1.94840  -1.94418  -1.94229  -1.19446
 Alpha  occ. eigenvalues --   -1.18345  -1.11794  -1.11723  -1.11123  -1.10568
 Alpha  occ. eigenvalues --   -1.10089  -1.09618  -1.08796  -1.06907  -1.06874
 Alpha  occ. eigenvalues --   -1.06454  -1.06124  -1.05391  -1.04647  -1.03508
 Alpha  occ. eigenvalues --   -0.95946  -0.95689  -0.91787  -0.91142  -0.90838
 Alpha  occ. eigenvalues --   -0.90786  -0.90544  -0.90521  -0.90262  -0.89593
 Alpha  occ. eigenvalues --   -0.88970  -0.88254  -0.87697  -0.87382  -0.86926
 Alpha  occ. eigenvalues --   -0.86900  -0.85924  -0.85885  -0.85205  -0.84844
 Alpha  occ. eigenvalues --   -0.84588  -0.83773  -0.83281  -0.82849  -0.82747
 Alpha  occ. eigenvalues --   -0.82534  -0.80537  -0.80468  -0.79876  -0.79711
 Alpha  occ. eigenvalues --   -0.79010  -0.78891  -0.78684  -0.77938  -0.77369
 Alpha  occ. eigenvalues --   -0.76828  -0.75403  -0.74443  -0.74384  -0.74010
 Alpha  occ. eigenvalues --   -0.71954  -0.71671  -0.71266  -0.70987  -0.70712
 Alpha  occ. eigenvalues --   -0.70644  -0.69566  -0.69081  -0.68836  -0.68403
 Alpha  occ. eigenvalues --   -0.67709  -0.67571  -0.67245  -0.67090  -0.66946
 Alpha  occ. eigenvalues --   -0.66240  -0.65696  -0.65266  -0.62656  -0.62275
 Alpha  occ. eigenvalues --   -0.62131  -0.61599  -0.61512  -0.61243  -0.60612
 Alpha  occ. eigenvalues --   -0.60598  -0.60273  -0.60155  -0.59938  -0.59337
 Alpha  occ. eigenvalues --   -0.58637  -0.58491  -0.58412  -0.57935  -0.57723
 Alpha  occ. eigenvalues --   -0.57673  -0.57099  -0.56993  -0.56589  -0.56347
 Alpha  occ. eigenvalues --   -0.56106  -0.55976  -0.55658  -0.55588  -0.55381
 Alpha  occ. eigenvalues --   -0.54959  -0.54929  -0.54781  -0.54368  -0.54031
 Alpha  occ. eigenvalues --   -0.53730  -0.53713  -0.53635  -0.53605  -0.53287
 Alpha  occ. eigenvalues --   -0.53229  -0.53083  -0.52926  -0.52736  -0.52580
 Alpha  occ. eigenvalues --   -0.52229  -0.52021  -0.51816  -0.51529  -0.51493
 Alpha  occ. eigenvalues --   -0.51338  -0.51059  -0.50942  -0.50870  -0.50588
 Alpha  occ. eigenvalues --   -0.50533  -0.50519  -0.50497  -0.50309  -0.50299
 Alpha  occ. eigenvalues --   -0.49924  -0.49859  -0.49590  -0.49450  -0.49433
 Alpha  occ. eigenvalues --   -0.49272  -0.48941  -0.48941  -0.48644  -0.48564
 Alpha  occ. eigenvalues --   -0.48322  -0.48294  -0.48291  -0.48122  -0.47918
 Alpha  occ. eigenvalues --   -0.47864  -0.47585  -0.47565  -0.47456  -0.47356
 Alpha  occ. eigenvalues --   -0.47026  -0.46847  -0.46718  -0.46482  -0.46435
 Alpha  occ. eigenvalues --   -0.46364  -0.46181  -0.45976  -0.45605  -0.45589
 Alpha  occ. eigenvalues --   -0.45388  -0.45324  -0.45152  -0.44639  -0.44635
 Alpha  occ. eigenvalues --   -0.44342  -0.44235  -0.44150  -0.44098  -0.44088
 Alpha  occ. eigenvalues --   -0.44067  -0.43746  -0.43657  -0.43425  -0.43225
 Alpha  occ. eigenvalues --   -0.43161  -0.42941  -0.42913  -0.42819  -0.42651
 Alpha  occ. eigenvalues --   -0.42262  -0.41933  -0.41360  -0.41199  -0.41017
 Alpha  occ. eigenvalues --   -0.40821  -0.40537  -0.40197  -0.39786  -0.39690
 Alpha  occ. eigenvalues --   -0.39584  -0.39370  -0.38957  -0.38879  -0.38806
 Alpha  occ. eigenvalues --   -0.38341  -0.37780  -0.37146  -0.36606  -0.36323
 Alpha  occ. eigenvalues --   -0.35931  -0.35877  -0.35195  -0.34163  -0.33895
 Alpha  occ. eigenvalues --   -0.33573  -0.33344  -0.32923  -0.32751  -0.32296
 Alpha  occ. eigenvalues --   -0.32221  -0.31484  -0.31043  -0.26485  -0.26127
 Alpha  occ. eigenvalues --   -0.23407  -0.23381
 Alpha virt. eigenvalues --   -0.07402  -0.07331  -0.00190   0.00142   0.01341
 Alpha virt. eigenvalues --    0.02311   0.03788   0.04211   0.04457   0.04560
 Alpha virt. eigenvalues --    0.06733   0.07115   0.07477   0.07908   0.08131

 Mulliken charges:
               1
     1  Mg   0.931611
     2  C   -0.001119
     3  C   -0.065500
     4  C   -0.091739
     5  C   -0.077765
     6  N   -0.307464
     7  C    0.004320
     8  C   -0.074048
     9  C   -0.126797
    10  C    0.080261
    11  C    0.020243
    12  C    0.007743
    13  C   -0.131099
    14  H    0.036930
    15  N   -0.514544
    16  C    0.148873
    17  C   -0.151793
    18  C   -0.055628
    19  C    0.178097
    20  C    0.087161
    21  C    0.034277
    22  O   -0.271348
    23  C    0.017154
    24  N   -0.324787
    25  C    0.043576
    26  C   -0.057447
    27  C   -0.088515
    28  C    0.105979
    29  C    0.017537
    30  C   -0.009808
    31  C   -0.055739
    32  N   -0.439806
    33  C    0.094704
    34  C   -0.179837
    35  C    0.011854
    36  C    0.117581
    37  C    0.048089
    38  C    0.070952
    39  O   -0.202000
    40  C   -0.080944
    41  C    0.257133
    42  O   -0.227878
    43  O   -0.352705
    44  C    0.138773
    45  H   -0.003047
    46  H   -0.037640
    47  H   -0.005462
    48  H    0.022452
    49  H    0.038009
    50  H    0.039558
    51  H    0.026723
    52  H    0.039076
    53  H    0.024881
    54  H    0.033254
    55  H    0.077909
    56  H    0.066159
    57  H    0.053684
    58  H    0.030644
    59  H    0.063555
    60  H    0.060756
    61  H    0.077081
    62  H    0.047676
    63  H    0.049607
    64  H    0.040621
    65  H    0.036047
    66  H    0.051728
    67  H    0.026912
    68  H    0.036506
    69  H    0.027811
    70  H    0.034759
    71  H    0.031341
    72  H    0.047233
    73  H    0.038128
    74  H    0.058136
    75  H    0.037639
    76  H    0.089666
    77  H    0.063837
    78  H    0.058799
    79  H    0.051423
    80  Mg   0.957710
    81  C   -0.036408
    82  C   -0.091711
    83  C   -0.036317
    84  C   -0.103554
    85  N   -0.341099
    86  C   -0.037847
    87  C    0.005155
    88  C   -0.158208
    89  C    0.057925
    90  C    0.033613
    91  C    0.002430
    92  C   -0.150069
    93  H    0.027000
    94  N   -0.476065
    95  C    0.164701
    96  C   -0.173288
    97  C   -0.081228
    98  C    0.167378
    99  C    0.085953
   100  C    0.055580
   101  O   -0.240225
   102  C   -0.027238
   103  N   -0.273709
   104  C    0.045760
   105  C   -0.055728
   106  C   -0.126095
   107  C    0.077144
   108  C    0.014258
   109  C   -0.041949
   110  C   -0.039879
   111  N   -0.401928
   112  C    0.126932
   113  C   -0.186178
   114  C   -0.009121
   115  C    0.160768
   116  C    0.075232
   117  C    0.093749
   118  O   -0.219010
   119  C   -0.083218
   120  C    0.279463
   121  O   -0.209747
   122  O   -0.397922
   123  C    0.134897
   124  H   -0.010800
   125  H   -0.053650
   126  H    0.002768
   127  H    0.040840
   128  H    0.037119
   129  H    0.035387
   130  H    0.038150
   131  H    0.054959
   132  H    0.045188
   133  H    0.044743
   134  H    0.073029
   135  H    0.074179
   136  H    0.077801
   137  H    0.041129
   138  H    0.036978
   139  H    0.056596
   140  H    0.057249
   141  H    0.052535
   142  H    0.035617
   143  H    0.023230
   144  H    0.033224
   145  H    0.036073
   146  H    0.027217
   147  H    0.043320
   148  H    0.025294
   149  H    0.043950
   150  H    0.037879
   151  H    0.028158
   152  H    0.043168
   153  H    0.054731
   154  H    0.069368
   155  H    0.068757
   156  H    0.065670
   157  H    0.044828
   158  H    0.047409
 Sum of Mulliken charges =  -0.00000

 Dipole moment (field-independent basis, Debye):
    X=             -1.8352    Y=              7.6382    Z=             -3.8977  Tot=              8.7694
 Quadrupole moment (field-independent basis, Debye-Ang):
   XX=           -552.1007   YY=           -520.6447   ZZ=           -497.8788
   XY=             88.1486   XZ=             19.9469   YZ=            -14.3805

 Normal termination of Gaussian 16 at Sun Sep 19 20:11:34 2021.
