 Gaussian 16, Revision A.03,
 Gaussian 16:  ES64L-G16RevA.03 25-Dec-2016

 --------------------------------
 #p wB97XD/Def2SVP td=(nstates=5)
 --------------------------------

 --------------------------------
 TDDFT excited states in gaussian
 --------------------------------
 Symbolic Z-matrix:
 Charge =  0 Multiplicity = 1

                         Standard orientation:
 ---------------------------------------------------------------------
 Center     Atomic      Atomic             Coordinates (Angstroms)
 Number     Number       Type             X           Y           Z
 ---------------------------------------------------------------------
      1         12           0       11.686406    0.287622    0.309789
      2          6           0        9.573408   -2.376023    0.641603
      3          6           0       14.260945   -2.046941   -0.454530
      4          6           0       13.702965    2.894337   -0.414395
      5          6           0        8.931793    2.414857    0.154501
      6          7           0       11.781583   -2.036152   -0.257523
      7          6           0       10.826951   -2.890317    0.207017
      8          6           0       11.245946   -4.311370   -0.049887
      9          6           0       12.783401   -4.205204   -0.442959
     10          6           0       13.026051   -2.663800   -0.384786
     11          6           0       13.686683   -5.232678    0.134882
     12          6           0       10.367082   -5.239688   -1.014877
     13          6           0        9.639036   -4.589428   -2.153771
     14          1           0        9.782189   -5.234997   -3.524916
     15          7           0       13.744393    0.394158   -0.105896
     16          6           0       14.611118   -0.625843   -0.349085
     17          6           0       15.930542   -0.153013   -0.647706
     18          6           0       15.809621    1.326472   -0.521975
     19          6           0       14.368877    1.601099   -0.329421
     20          6           0       17.125234   -0.923947   -0.951593
     21          6           0       16.904838    2.381702   -0.579809
     22          8           0       18.003234    2.089482   -0.895774
     23          6           0       16.734295    3.859913   -0.363872
     24          7           0       11.348568    2.294805   -0.195167
     25          6           0       12.361563    3.172084   -0.262797
     26          6           0       11.820774    4.638644   -0.679617
     27          6           0       10.324823    4.507059   -0.110169
     28          6           0       10.193158    3.002656   -0.105957
     29          6           0       12.593998    5.825164   -0.097397
     30          6           0        9.303209    5.324528   -0.921148
     31          6           0        8.285872    6.229519   -0.216271
     32          7           0        9.644319    0.071460    0.271515
     33          6           0        8.617071    1.006605    0.248240
     34          6           0        7.361014    0.404282    0.474320
     35          6           0        7.647290   -0.932791    0.695327
     36          6           0        9.070483   -1.106565    0.562520
     37          6           0        6.022279    1.071079    0.549515
     38          6           0        7.188961   -2.214071    1.039036
     39          8           0        6.027749   -2.554662    1.255514
     40          6           0        8.348939   -3.233675    0.855414
     41          6           0        8.337397   -4.008158    2.165128
     42          8           0        8.297134   -5.254426    2.242377
     43          8           0        8.522750   -3.101432    3.182025
     44          6           0        8.809270   -3.526550    4.574023
     45          1           0       14.969253   -2.801969   -0.801752
     46          1           0       14.311072    3.693428   -0.843199
     47          1           0        8.080956    3.098508    0.175330
     48          1           0       11.132359   -4.875210    0.876733
     49          1           0       12.827444   -4.377924   -1.517899
     50          1           0       14.588209   -4.815191    0.583117
     51          1           0       13.894119   -6.041091   -0.566234
     52          1           0       13.191900   -5.710441    0.980531
     53          1           0        9.563747   -5.778138   -0.511927
     54          1           0       11.022939   -5.928023   -1.548848
     55          1           0        9.730842   -3.504585   -2.194770
     56          1           0        8.577030   -4.781071   -1.996917
     57          1           0       17.068124   -1.877621   -0.427789
     58          1           0       18.056390   -0.427719   -0.680691
     59          1           0       17.119144   -1.096512   -2.028434
     60          1           0       15.924473    3.757448    0.358872
     61          1           0       16.396994    4.383772   -1.257699
     62          1           0       17.588973    4.407403    0.033811
     63          1           0       11.770296    4.633917   -1.768861
     64          1           0       10.136017    4.774883    0.929117
     65          1           0       11.972146    6.250505    0.690785
     66          1           0       12.953626    6.472505   -0.896692
     67          1           0       13.522646    5.532819    0.391850
     68          1           0        8.744022    4.608932   -1.524510
     69          1           0        9.853028    5.891093   -1.672833
     70          1           0        8.172874    7.256973   -0.562537
     71          1           0        8.384839    6.215790    0.869930
     72          1           0        7.367418    5.652864   -0.321122
     73          1           0        5.326871    0.619480    1.257433
     74          1           0        5.571396    1.049895   -0.442903
     75          1           0        6.075312    2.107726    0.884720
     76          1           0        8.019718   -3.817513   -0.003285
     77          1           0        9.539072   -2.884140    5.066461
     78          1           0        9.193815   -4.546136    4.543514
     79          1           0        8.010848   -3.588205    5.312440
     80         12           0      -10.896904    0.780829    0.309981
     81          6           0      -12.489267   -2.383098   -0.238067
     82          6           0       -8.027079   -0.586115   -1.243930
     83          6           0       -9.642244    3.885824    0.097561
     84          6           0      -13.977312    2.080860    1.166943
     85          7           0      -10.293582   -1.267970   -0.637735
     86          6           0      -11.161383   -2.319530   -0.734277
     87          6           0      -10.581544   -3.375691   -1.661724
     88          6           0       -9.081335   -2.862237   -1.695277
     89          6           0       -9.066159   -1.475744   -1.174295
     90          6           0       -8.013353   -3.717785   -0.934556
     91          6           0      -11.404337   -3.435684   -2.988582
     92          6           0      -11.819036   -4.838092   -3.596902
     93          1           0      -11.304191   -5.248239   -4.988334
     94          7           0       -9.095720    1.526220   -0.257868
     95          6           0       -8.020255    0.824082   -0.863141
     96          6           0       -6.896474    1.713868   -1.090192
     97          6           0       -7.390905    3.024033   -0.698314
     98          6           0       -8.758521    2.825557   -0.256307
     99          6           0       -5.661287    1.252160   -1.743876
    100          6           0       -6.524283    4.293903   -0.759548
    101          8           0       -5.374491    4.162666   -1.272015
    102          6           0       -6.942635    5.689955   -0.251307
    103          7           0      -11.724388    2.811167    0.328455
    104          6           0      -10.983176    3.900394    0.395646
    105          6           0      -11.884314    5.076283    0.593317
    106          6           0      -13.246495    4.447423    0.990963
    107          6           0      -13.011064    2.990624    0.734664
    108          6           0      -11.459481    6.244190    1.582657
    109          6           0      -14.529170    5.016678    0.191196
    110          6           0      -15.614704    5.783356    0.985720
    111          7           0      -12.765655    0.032794    0.636392
    112          6           0      -13.905869    0.657649    0.975590
    113          6           0      -14.987445   -0.251950    1.079068
    114          6           0      -14.450901   -1.468676    0.651568
    115          6           0      -13.084847   -1.246505    0.343674
    116          6           0      -16.381725   -0.054039    1.520730
    117          6           0      -14.844692   -2.820151    0.397577
    118          8           0      -15.947417   -3.312386    0.482722
    119          6           0      -13.495596   -3.504672   -0.279382
    120          6           0      -13.056105   -4.646979    0.530701
    121          8           0      -12.994378   -4.671206    1.766469
    122          8           0      -12.707591   -5.646410   -0.352586
    123          6           0      -12.237145   -6.898940    0.236609
    124          1           0       -7.110741   -0.949875   -1.711307
    125          1           0       -9.325489    4.920301   -0.048284
    126          1           0      -14.907181    2.391062    1.648547
    127          1           0      -10.560202   -4.303912   -1.090136
    128          1           0       -8.974355   -2.792971   -2.778439
    129          1           0       -7.527742   -3.061365   -0.211062
    130          1           0       -7.221501   -4.112577   -1.570734
    131          1           0       -8.407511   -4.536456   -0.331688
    132          1           0      -10.698199   -2.939346   -3.653881
    133          1           0      -12.310607   -2.831067   -3.015204
    134          1           0      -12.908800   -4.830442   -3.585953
    135          1           0      -11.615182   -5.603176   -2.848391
    136          1           0       -5.969307    0.768434   -2.671123
    137          1           0       -5.192046    0.472906   -1.143671
    138          1           0       -4.853299    1.972305   -1.875526
    139          1           0       -7.690240    6.086734   -0.938349
    140          1           0       -5.998209    6.178243   -0.013281
    141          1           0       -7.412404    5.463193    0.706364
    142          1           0      -11.952574    5.579050   -0.370599
    143          1           0      -13.227736    4.549001    2.076131
    144          1           0      -11.946802    7.130704    1.176038
    145          1           0      -10.371645    6.310504    1.591270
    146          1           0      -11.882602    5.992677    2.555341
    147          1           0      -14.946602    4.129134   -0.284036
    148          1           0      -14.155050    5.595949   -0.652849
    149          1           0      -16.622076    5.425261    0.777652
    150          1           0      -15.540163    6.842993    0.739925
    151          1           0      -15.456732    5.773971    2.064333
    152          1           0      -16.857257   -0.996216    1.791410
    153          1           0      -16.767374    0.365798    0.591511
    154          1           0      -16.407128    0.821391    2.169512
    155          1           0      -13.644758   -3.709089   -1.338997
    156          1           0      -12.928177   -7.274667    0.991540
    157          1           0      -11.243849   -6.754800    0.664230
    158          1           0      -12.177423   -7.652026   -0.549174
 ---------------------------------------------------------------------

 SCF Done:  E(RwB97XD) =  -4070.54054534     A.U. after   19 cycles

 Excitation energies and oscillator strengths:

 Excited State   1:      Singlet-A      1.5767 eV  786.35 nm  f=0.4706  <S**2>=0.000
     309 -> 315       -0.17394
     311 -> 313        0.68341
     309 <- 315       -0.11796
 This state for optimization and/or second-order correction.
 Total Energy, E(TD-HF/TD-DFT) =  -4070.48260231
 Copying the excited state density for this state as the 1-particle RhoCI density.

 Excited State   2:      Singlet-A      1.6380 eV  756.94 nm  f=0.3238  <S**2>=0.000
     310 -> 316       -0.19012
     312 -> 314        0.68008
     310 <- 316       -0.12063

 Excited State   3:      Singlet-A      2.0923 eV  592.57 nm  f=0.1398  <S**2>=0.000
     309 -> 313        0.64986
     311 -> 315        0.25885

 Excited State   4:      Singlet-A      2.1989 eV  563.83 nm  f=0.1292  <S**2>=0.000
     310 -> 314        0.63870
     312 -> 316        0.29210

 Excited State   5:      Singlet-A      3.0099 eV  411.92 nm  f=0.0073  <S**2>=0.000
     307 -> 313       -0.21735
     308 -> 313        0.63590
     308 -> 317        0.12419

 The electronic state is 1-A.
 Alpha  occ. eigenvalues --  -46.96273 -46.95210 -19.31463 -19.31452 -19.25475
 Alpha  occ. eigenvalues --  -19.25314 -19.24775 -19.23583 -19.23168 -19.22158
 Alpha  occ. eigenvalues --  -14.47143 -14.46622 -14.46505 -14.45935 -14.44581
 Alpha  occ. eigenvalues --  -14.44517 -14.44389 -14.44257 -10.44382 -10.43902
 Alpha  occ. eigenvalues --  -10.39459 -10.39236 -10.38327 -10.37441 -10.36556
 Alpha  occ. eigenvalues --  -10.36135 -10.36123 -10.35628 -10.35169 -10.34984
 Alpha  occ. eigenvalues --  -10.34888 -10.34828 -10.34756 -10.34662 -10.34641
 Alpha  occ. eigenvalues --  -10.34362 -10.34357 -10.34277 -10.34119 -10.33739
 Alpha  occ. eigenvalues --  -10.33419 -10.33059 -10.33010 -10.32919 -10.32903
 Alpha  occ. eigenvalues --  -10.32745 -10.32681 -10.32555 -10.32491 -10.32337
 Alpha  occ. eigenvalues --  -10.32321 -10.32221 -10.31975 -10.31907 -10.31842
 Alpha  occ. eigenvalues --  -10.31791 -10.31605 -10.31604 -10.31594 -10.31558
 Alpha  occ. eigenvalues --  -10.31530 -10.31525 -10.31514 -10.31383 -10.31248
 Alpha  occ. eigenvalues --  -10.31200 -10.31177 -10.31074 -10.30721 -10.30699
 Alpha  occ. eigenvalues --  -10.30680 -10.30659 -10.30641 -10.30561 -10.30446
 Alpha  occ. eigenvalues --  -10.30188 -10.30172 -10.30095 -10.29999 -10.29898
 Alpha  occ. eigenvalues --  -10.29887 -10.29590 -10.28979 -10.28928 -10.28914
 Alpha  occ. eigenvalues --  -10.28581  -3.22208  -3.21208  -1.95748  -1.95364
 Alpha  occ. eigenvalues --   -1.95147  -1.94786  -1.94319  -1.94192  -1.18676
 Alpha  occ. eigenvalues --   -1.17875  -1.13553  -1.13049  -1.11630  -1.10322
 Alpha  occ. eigenvalues --   -1.09476  -1.09441  -1.07435  -1.07180  -1.06722
 Alpha  occ. eigenvalues --   -1.06401  -1.05708  -1.04908  -1.04358  -1.04133
 Alpha  occ. eigenvalues --   -0.95720  -0.95121  -0.91676  -0.91213  -0.90605
 Alpha  occ. eigenvalues --   -0.90288  -0.90170  -0.89964  -0.89879  -0.89849
 Alpha  occ. eigenvalues --   -0.89375  -0.89158  -0.87930  -0.87763  -0.86550
 Alpha  occ. eigenvalues --   -0.86432  -0.85875  -0.85730  -0.84982  -0.84579
 Alpha  occ. eigenvalues --   -0.84072  -0.83883  -0.83299  -0.82916  -0.82523
 Alpha  occ. eigenvalues --   -0.82410  -0.80429  -0.80158  -0.79724  -0.79555
 Alpha  occ. eigenvalues --   -0.78896  -0.78774  -0.78626  -0.78180  -0.77406
 Alpha  occ. eigenvalues --   -0.77243  -0.75560  -0.75162  -0.74154  -0.73719
 Alpha  occ. eigenvalues --   -0.71922  -0.71708  -0.71356  -0.71343  -0.70382
 Alpha  occ. eigenvalues --   -0.70336  -0.68709  -0.68539  -0.68167  -0.68045
 Alpha  occ. eigenvalues --   -0.67576  -0.67487  -0.67076  -0.66742  -0.66672
 Alpha  occ. eigenvalues --   -0.66362  -0.65581  -0.64910  -0.62258  -0.62110
 Alpha  occ. eigenvalues --   -0.61891  -0.61466  -0.61426  -0.60861  -0.60827
 Alpha  occ. eigenvalues --   -0.60353  -0.60023  -0.59566  -0.59556  -0.59191
 Alpha  occ. eigenvalues --   -0.58476  -0.58143  -0.57861  -0.57777  -0.57555
 Alpha  occ. eigenvalues --   -0.57241  -0.57047  -0.56822  -0.56432  -0.56370
 Alpha  occ. eigenvalues --   -0.55939  -0.55611  -0.55261  -0.55254  -0.55050
 Alpha  occ. eigenvalues --   -0.54856  -0.54560  -0.54402  -0.54017  -0.54013
 Alpha  occ. eigenvalues --   -0.53731  -0.53704  -0.53627  -0.53313  -0.53304
 Alpha  occ. eigenvalues --   -0.53148  -0.53014  -0.52608  -0.52521  -0.52483
 Alpha  occ. eigenvalues --   -0.52225  -0.51952  -0.51886  -0.51857  -0.51607
 Alpha  occ. eigenvalues --   -0.51483  -0.51427  -0.51309  -0.51095  -0.50919
 Alpha  occ. eigenvalues --   -0.50701  -0.50373  -0.50102  -0.49805  -0.49794
 Alpha  occ. eigenvalues --   -0.49637  -0.49576  -0.49505  -0.49455  -0.49364
 Alpha  occ. eigenvalues --   -0.49253  -0.49129  -0.49009  -0.48950  -0.48794
 Alpha  occ. eigenvalues --   -0.48533  -0.48342  -0.48333  -0.48050  -0.48035
 Alpha  occ. eigenvalues --   -0.47854  -0.47528  -0.47501  -0.47443  -0.47336
 Alpha  occ. eigenvalues --   -0.47234  -0.46947  -0.46930  -0.46786  -0.46414
 Alpha  occ. eigenvalues --   -0.46091  -0.45902  -0.45640  -0.45538  -0.45491
 Alpha  occ. eigenvalues --   -0.45277  -0.45183  -0.44985  -0.44956  -0.44861
 Alpha  occ. eigenvalues --   -0.44735  -0.44637  -0.44509  -0.44350  -0.44225
 Alpha  occ. eigenvalues --   -0.44027  -0.43912  -0.43625  -0.43470  -0.43376
 Alpha  occ. eigenvalues --   -0.43168  -0.43121  -0.43045  -0.42736  -0.42421
 Alpha  occ. eigenvalues --   -0.42193  -0.42161  -0.42114  -0.40916  -0.40819
 Alpha  occ. eigenvalues --   -0.40636  -0.40602  -0.40172  -0.39919  -0.39719
 Alpha  occ. eigenvalues --   -0.39541  -0.39415  -0.38958  -0.38504  -0.38138
 Alpha  occ. eigenvalues --   -0.37717  -0.37510  -0.37099  -0.36779  -0.36063
 Alpha  occ. eigenvalues --   -0.35826  -0.35291  -0.35254  -0.33770  -0.33518
 Alpha  occ. eigenvalues --   -0.33111  -0.33038  -0.32555  -0.32296  -0.32218
 Alpha  occ. eigenvalues --   -0.31520  -0.31503  -0.30371  -0.26356  -0.26048
 Alpha  occ. eigenvalues --   -0.23493  -0.23078
 Alpha virt. eigenvalues --   -0.08008  -0.07256   0.00008   0.00214   0.02365
 Alpha virt. eigenvalues --    0.02417   0.04104   0.04530   0.04860   0.05517
 Alpha virt. eigenvalues --    0.06449   0.06669   0.07385   0.07626   0.08512

 Mulliken charges:
               1
     1  Mg   0.958347
     2  C    0.008033
     3  C   -0.083436
     4  C   -0.083769
     5  C   -0.096527
     6  N   -0.330836
     7  C   -0.005485
     8  C   -0.018726
     9  C   -0.091833
    10  C    0.035667
    11  C    0.041660
    12  C   -0.010964
    13  C   -0.168482
    14  H    0.029825
    15  N   -0.448252
    16  C    0.171405
    17  C   -0.181882
    18  C   -0.096649
    19  C    0.137228
    20  C    0.086367
    21  C    0.013446
    22  O   -0.209907
    23  C   -0.015032
    24  N   -0.361388
    25  C    0.083986
    26  C   -0.139035
    27  C   -0.084265
    28  C    0.074773
    29  C    0.050088
    30  C   -0.015439
    31  C   -0.044834
    32  N   -0.442172
    33  C    0.139339
    34  C   -0.187950
    35  C    0.058652
    36  C    0.110069
    37  C    0.078471
    38  C    0.062410
    39  O   -0.216472
    40  C   -0.121325
    41  C    0.312970
    42  O   -0.256864
    43  O   -0.379159
    44  C    0.145065
    45  H    0.008325
    46  H    0.003730
    47  H   -0.013749
    48  H    0.042030
    49  H    0.049697
    50  H    0.035470
    51  H    0.041349
    52  H    0.026840
    53  H    0.059105
    54  H    0.045041
    55  H    0.064622
    56  H    0.055737
    57  H    0.031585
    58  H    0.063108
    59  H    0.053721
    60  H    0.032418
    61  H    0.070929
    62  H    0.057913
    63  H    0.056123
    64  H    0.040617
    65  H    0.038936
    66  H    0.039543
    67  H    0.032238
    68  H    0.030453
    69  H    0.027685
    70  H    0.056489
    71  H    0.025730
    72  H    0.031357
    73  H    0.061098
    74  H    0.061365
    75  H    0.032248
    76  H    0.065451
    77  H    0.053590
    78  H    0.053820
    79  H    0.058270
    80  Mg   0.980587
    81  C   -0.123981
    82  C   -0.080460
    83  C   -0.101939
    84  C   -0.096538
    85  N   -0.314488
    86  C   -0.024842
    87  C   -0.047669
    88  C   -0.085515
    89  C    0.060928
    90  C    0.030084
    91  C   -0.009506
    92  C   -0.101156
    93  H    0.050423
    94  N   -0.481153
    95  C    0.127624
    96  C   -0.142595
    97  C   -0.098091
    98  C    0.230128
    99  C    0.076985
   100  C    0.025853
   101  O   -0.278001
   102  C    0.019979
   103  N   -0.347135
   104  C    0.019229
   105  C   -0.090565
   106  C   -0.108944
   107  C    0.094248
   108  C    0.033641
   109  C    0.010094
   110  C   -0.047556
   111  N   -0.436761
   112  C    0.106353
   113  C   -0.206274
   114  C   -0.066821
   115  C    0.192849
   116  C    0.118105
   117  C    0.144210
   118  O   -0.188485
   119  C   -0.050563
   120  C    0.292298
   121  O   -0.254395
   122  O   -0.371206
   123  C    0.136572
   124  H    0.000441
   125  H   -0.036783
   126  H    0.002828
   127  H    0.018743
   128  H    0.029616
   129  H    0.037425
   130  H    0.045895
   131  H    0.037219
   132  H    0.031076
   133  H    0.053536
   134  H    0.047956
   135  H    0.042549
   136  H    0.047823
   137  H    0.034068
   138  H    0.069153
   139  H    0.083917
   140  H    0.064583
   141  H    0.043427
   142  H    0.038269
   143  H    0.032611
   144  H    0.040505
   145  H    0.040973
   146  H    0.031782
   147  H    0.033652
   148  H    0.025452
   149  H    0.046665
   150  H    0.035451
   151  H    0.033231
   152  H    0.080985
   153  H    0.046688
   154  H    0.029814
   155  H    0.059584
   156  H    0.065589
   157  H    0.052997
   158  H    0.056725
 Sum of Mulliken charges =  -0.00000

 Dipole moment (field-independent basis, Debye):
    X=             -0.4142    Y=              5.1609    Z=              1.4253  Tot=              5.3701
 Quadrupole moment (field-independent basis, Debye-Ang):
   XX=           -581.1063   YY=           -466.3834   ZZ=           -503.3192
   XY=            -44.1904   XZ=             38.0160   YZ=             19.6708

 Normal termination of Gaussian 16 at Sat Sep 18 21:26:37 2021.
