 Gaussian 16, Revision A.03,
 Gaussian 16:  ES64L-G16RevA.03 25-Dec-2016

 --------------------------------
 #p wB97XD/Def2SVP td=(nstates=5)
 --------------------------------

 --------------------------------
 TDDFT excited states in gaussian
 --------------------------------
 Symbolic Z-matrix:
 Charge =  0 Multiplicity = 1

                         Standard orientation:
 ---------------------------------------------------------------------
 Center     Atomic      Atomic             Coordinates (Angstroms)
 Number     Number       Type             X           Y           Z
 ---------------------------------------------------------------------
      1         12           0       25.513023   -0.550678    0.037391
      2          6           0       24.388862    2.587553    1.002865
      3          6           0       26.095414    0.599304   -3.079095
      4          6           0       26.405150   -3.660988   -0.819909
      5          6           0       24.724209   -1.688448    3.253791
      6          7           0       25.268525    1.429312   -0.860016
      7          6           0       24.900675    2.556166   -0.298645
      8          6           0       25.005727    3.702596   -1.406856
      9          6           0       24.773181    2.839435   -2.628876
     10          6           0       25.466195    1.508356   -2.196112
     11          6           0       23.264180    2.752133   -2.943525
     12          6           0       26.343230    4.540505   -1.221786
     13          6           0       26.329394    5.919379   -1.888784
     14          1           0       25.192736    6.263009   -2.835944
     15          7           0       26.318386   -1.362571   -1.631672
     16          6           0       26.556141   -0.676816   -2.820515
     17          6           0       27.353495   -1.576845   -3.706705
     18          6           0       27.400825   -2.889350   -3.069829
     19          6           0       26.614307   -2.650626   -1.830543
     20          6           0       27.906307   -1.132203   -5.040092
     21          6           0       28.127409   -4.246378   -3.499733
     22          8           0       28.136755   -5.268828   -2.805908
     23          6           0       28.849901   -4.232188   -4.830678
     24          7           0       25.455032   -2.381187    1.000578
     25          6           0       25.856810   -3.523449    0.449621
     26          6           0       25.613195   -4.758051    1.371424
     27          6           0       25.321529   -4.046564    2.700429
     28          6           0       25.208599   -2.598525    2.340269
     29          6           0       24.485793   -5.714307    0.891600
     30          6           0       26.233527   -4.390284    3.960962
     31          6           0       27.272422   -3.391234    4.351904
     32          7           0       24.532323    0.181309    1.731950
     33          6           0       24.343673   -0.351820    2.962436
     34          6           0       23.699819    0.535897    3.863739
     35          6           0       23.692704    1.759785    3.123369
     36          6           0       24.209277    1.442640    1.887855
     37          6           0       23.131753    0.391805    5.251815
     38          6           0       23.369390    3.155429    3.116210
     39          8           0       22.875398    3.877898    3.954838
     40          6           0       23.937089    3.808779    1.815935
     41          6           0       22.889546    4.603950    1.168264
     42          8           0       21.850340    4.109093    0.758942
     43          8           0       23.112380    6.003462    1.227351
     44          6           0       22.033834    6.851881    0.696563
     45          1           0       26.207238    0.992278   -4.090674
     46          1           0       26.663005   -4.670610   -1.144098
     47          1           0       24.445366   -2.090988    4.229482
     48          1           0       24.218904    4.439194   -1.249947
     49          1           0       25.318389    3.160084   -3.516234
     50          1           0       23.197318    3.290734   -3.889399
     51          1           0       22.642514    3.231165   -2.185967
     52          1           0       23.062983    1.700588   -3.146963
     53          1           0       27.188880    3.992716   -1.638563
     54          1           0       26.413056    4.720334   -0.148738
     55          1           0       27.276443    6.016393   -2.418729
     56          1           0       26.351759    6.655880   -1.085936
     57          1           0       28.186855   -0.078432   -5.023779
     58          1           0       27.278101   -1.290092   -5.916150
     59          1           0       28.841902   -1.662639   -5.216666
     60          1           0       28.095369   -3.860112   -5.523341
     61          1           0       29.147630   -5.214421   -5.196518
     62          1           0       29.749644   -3.621249   -4.755932
     63          1           0       26.507512   -5.375663    1.452762
     64          1           0       24.278772   -4.270276    2.922639
     65          1           0       23.926775   -5.965357    1.793357
     66          1           0       24.793986   -6.619831    0.371270
     67          1           0       23.889758   -5.179131    0.152343
     68          1           0       26.649455   -5.388140    3.821242
     69          1           0       25.606346   -4.416970    4.851756
     70          1           0       26.970537   -2.967133    5.309852
     71          1           0       27.310038   -2.477769    3.757103
     72          1           0       28.268826   -3.807864    4.499616
     73          1           0       23.162321   -0.638206    5.608870
     74          1           0       22.142633    0.849944    5.278129
     75          1           0       23.694930    0.860750    6.058963
     76          1           0       24.783520    4.461692    2.027264
     77          1           0       22.287609    7.906058    0.587924
     78          1           0       21.237666    6.723105    1.430302
     79          1           0       21.722266    6.373230   -0.231089
     80         12           0      -24.639112   -0.732904    0.062788
     81          6           0      -25.796622    2.630897    0.503946
     82          6           0      -23.056450    0.218385   -2.652320
     83          6           0      -24.365431   -3.969197   -0.597466
     84          6           0      -26.804555   -1.581130    2.912368
     85          7           0      -24.420294    1.222202   -0.920048
     86          6           0      -24.991795    2.473027   -0.612855
     87          6           0      -24.596126    3.617623   -1.620567
     88          6           0      -23.618255    2.727975   -2.607442
     89          6           0      -23.660673    1.306041   -2.056708
     90          6           0      -24.100694    2.758365   -4.120976
     91          6           0      -23.943621    4.893705   -0.983536
     92          6           0      -23.195191    5.806563   -1.947485
     93          1           0      -23.832856    7.193993   -2.144974
     94          7           0      -23.730928   -1.733087   -1.380912
     95          6           0      -23.070029   -1.213876   -2.469281
     96          6           0      -22.476379   -2.242649   -3.296958
     97          6           0      -22.873438   -3.479500   -2.650298
     98          6           0      -23.646500   -3.065172   -1.425673
     99          6           0      -21.621048   -2.043900   -4.458545
    100          6           0      -22.564857   -4.919047   -3.023609
    101          8           0      -22.849556   -5.865375   -2.344546
    102          6           0      -21.937784   -5.096606   -4.380886
    103          7           0      -25.523127   -2.530569    0.988555
    104          6           0      -25.194888   -3.756746    0.509128
    105          6           0      -25.803710   -4.879492    1.391108
    106          6           0      -26.453420   -4.068011    2.565378
    107          6           0      -26.210580   -2.623691    2.171730
    108          6           0      -26.810196   -5.878981    0.725823
    109          6           0      -25.882169   -4.349525    3.999827
    110          6           0      -26.397648   -5.669025    4.615785
    111          7           0      -26.026127    0.226120    1.425592
    112          6           0      -26.732096   -0.206351    2.524492
    113          6           0      -27.334552    0.904069    3.148026
    114          6           0      -27.074549    2.000701    2.414993
    115          6           0      -26.268829    1.568165    1.318395
    116          6           0      -28.069560    0.761661    4.474457
    117          6           0      -27.281376    3.435048    2.191056
    118          8           0      -27.923945    4.240130    2.814405
    119          6           0      -26.449898    3.876567    0.893900
    120          6           0      -27.441314    4.224588   -0.170215
    121          8           0      -28.010207    3.546442   -0.995753
    122          8           0      -27.584506    5.594904   -0.078805
    123          6           0      -28.507965    6.241195   -1.041498
    124          1           0      -22.544304    0.426908   -3.593831
    125          1           0      -24.364536   -5.002990   -0.951260
    126          1           0      -27.308993   -1.982471    3.794386
    127          1           0      -25.480934    3.858453   -2.210051
    128          1           0      -22.624956    3.176894   -2.585666
    129          1           0      -23.238747    2.906493   -4.771334
    130          1           0      -24.883710    3.457390   -4.413617
    131          1           0      -24.449813    1.771972   -4.424790
    132          1           0      -23.328363    4.422028   -0.216219
    133          1           0      -24.570996    5.552420   -0.382638
    134          1           0      -23.138833    5.323449   -2.922540
    135          1           0      -22.230437    6.059007   -1.508329
    136          1           0      -20.692873   -2.458685   -4.065487
    137          1           0      -21.573685   -0.990989   -4.736883
    138          1           0      -21.860801   -2.590301   -5.370496
    139          1           0      -20.853286   -5.122997   -4.275589
    140          1           0      -22.443457   -4.542775   -5.172409
    141          1           0      -22.376972   -6.031293   -4.728425
    142          1           0      -24.949686   -5.335535    1.892763
    143          1           0      -27.537538   -4.166450    2.505459
    144          1           0      -27.807563   -5.924075    1.164191
    145          1           0      -26.413251   -6.869676    0.946194
    146          1           0      -26.967609   -5.741278   -0.343919
    147          1           0      -26.186275   -3.547554    4.671547
    148          1           0      -24.798405   -4.316902    3.879707
    149          1           0      -27.328347   -5.974373    4.137205
    150          1           0      -26.502800   -5.476306    5.683382
    151          1           0      -25.734358   -6.521362    4.465578
    152          1           0      -28.054786    1.696026    5.035675
    153          1           0      -27.620105   -0.056301    5.037602
    154          1           0      -29.088626    0.412013    4.307586
    155          1           0      -25.770170    4.700760    1.111478
    156          1           0      -29.034360    7.005654   -0.470135
    157          1           0      -29.228497    5.562459   -1.497602
    158          1           0      -27.775017    6.649451   -1.738045
 ---------------------------------------------------------------------

 SCF Done:  E(RwB97XD) =  -4070.62696512     A.U. after   19 cycles

 Excitation energies and oscillator strengths:

 Excited State   1:      Singlet-A      1.6367 eV  757.54 nm  f=0.3946  <S**2>=0.000
     310 -> 316       -0.18394
     312 -> 314        0.68418
     310 <- 316       -0.11741
 This state for optimization and/or second-order correction.
 Total Energy, E(TD-HF/TD-DFT) =  -4070.56681850
 Copying the excited state density for this state as the 1-particle RhoCI density.

 Excited State   2:      Singlet-A      1.6905 eV  733.43 nm  f=0.3926  <S**2>=0.000
     309 -> 315       -0.18167
     311 -> 313        0.68422
     309 <- 315       -0.11473

 Excited State   3:      Singlet-A      2.1544 eV  575.48 nm  f=0.1328  <S**2>=0.000
     310 -> 314        0.64887
     312 -> 316        0.26853

 Excited State   4:      Singlet-A      2.1645 eV  572.82 nm  f=0.1480  <S**2>=0.000
     309 -> 313        0.65218
     311 -> 315        0.26035

 Excited State   5:      Singlet-A      3.4572 eV  358.62 nm  f=0.0012  <S**2>=0.000
     305 -> 314        0.14281
     307 -> 314        0.67101

 The electronic state is 1-A.
 Alpha  occ. eigenvalues --  -46.94890 -46.94135 -19.29159 -19.29071 -19.25589
 Alpha  occ. eigenvalues --  -19.24833 -19.24417 -19.24153 -19.23955 -19.22928
 Alpha  occ. eigenvalues --  -14.46807 -14.46629 -14.46046 -14.45884 -14.44766
 Alpha  occ. eigenvalues --  -14.44200 -14.43440 -14.43204 -10.42802 -10.42734
 Alpha  occ. eigenvalues --  -10.41308 -10.39287 -10.38710 -10.38092 -10.35428
 Alpha  occ. eigenvalues --  -10.35268 -10.35153 -10.34951 -10.34924 -10.34871
 Alpha  occ. eigenvalues --  -10.34803 -10.34663 -10.34591 -10.34467 -10.34367
 Alpha  occ. eigenvalues --  -10.34225 -10.34125 -10.34096 -10.33812 -10.33341
 Alpha  occ. eigenvalues --  -10.33249 -10.33096 -10.32961 -10.32932 -10.32893
 Alpha  occ. eigenvalues --  -10.32765 -10.32630 -10.32502 -10.32285 -10.32060
 Alpha  occ. eigenvalues --  -10.32046 -10.32034 -10.31790 -10.31683 -10.31660
 Alpha  occ. eigenvalues --  -10.31608 -10.31605 -10.31357 -10.31287 -10.31129
 Alpha  occ. eigenvalues --  -10.31097 -10.31029 -10.30997 -10.30911 -10.30873
 Alpha  occ. eigenvalues --  -10.30844 -10.30836 -10.30833 -10.30795 -10.30772
 Alpha  occ. eigenvalues --  -10.30636 -10.30248 -10.30024 -10.29867 -10.29718
 Alpha  occ. eigenvalues --  -10.29652 -10.29614 -10.29600 -10.29581 -10.29578
 Alpha  occ. eigenvalues --  -10.29545 -10.29465 -10.29366 -10.28736 -10.28311
 Alpha  occ. eigenvalues --  -10.28186  -3.20879  -3.20301  -1.94465  -1.93981
 Alpha  occ. eigenvalues --   -1.93910  -1.93868  -1.93396  -1.93326  -1.17843
 Alpha  occ. eigenvalues --   -1.16646  -1.13571  -1.13033  -1.12782  -1.11790
 Alpha  occ. eigenvalues --   -1.09649  -1.08951  -1.07599  -1.06756  -1.06191
 Alpha  occ. eigenvalues --   -1.05806  -1.05326  -1.05250  -1.04484  -1.03600
 Alpha  occ. eigenvalues --   -0.94987  -0.94104  -0.91109  -0.90814  -0.90462
 Alpha  occ. eigenvalues --   -0.90230  -0.90126  -0.89955  -0.89287  -0.89083
 Alpha  occ. eigenvalues --   -0.89057  -0.88748  -0.88185  -0.87960  -0.86228
 Alpha  occ. eigenvalues --   -0.85807  -0.85531  -0.85070  -0.84715  -0.84534
 Alpha  occ. eigenvalues --   -0.84055  -0.83948  -0.82902  -0.82646  -0.82053
 Alpha  occ. eigenvalues --   -0.82026  -0.80604  -0.80065  -0.79162  -0.78870
 Alpha  occ. eigenvalues --   -0.78587  -0.78553  -0.77777  -0.77458  -0.77015
 Alpha  occ. eigenvalues --   -0.76746  -0.74820  -0.74746  -0.73265  -0.73172
 Alpha  occ. eigenvalues --   -0.71554  -0.71143  -0.70748  -0.70654  -0.69908
 Alpha  occ. eigenvalues --   -0.69712  -0.68952  -0.68681  -0.67039  -0.66993
 Alpha  occ. eigenvalues --   -0.66597  -0.66553  -0.66340  -0.66198  -0.65977
 Alpha  occ. eigenvalues --   -0.65881  -0.63453  -0.63263  -0.62707  -0.62059
 Alpha  occ. eigenvalues --   -0.61562  -0.61453  -0.61136  -0.60792  -0.60248
 Alpha  occ. eigenvalues --   -0.60025  -0.59968  -0.59814  -0.59587  -0.58888
 Alpha  occ. eigenvalues --   -0.58081  -0.57852  -0.57669  -0.57654  -0.57372
 Alpha  occ. eigenvalues --   -0.56974  -0.56695  -0.56360  -0.56185  -0.56045
 Alpha  occ. eigenvalues --   -0.55900  -0.55597  -0.55587  -0.55348  -0.54964
 Alpha  occ. eigenvalues --   -0.54605  -0.54600  -0.54294  -0.54256  -0.54099
 Alpha  occ. eigenvalues --   -0.53882  -0.53749  -0.53546  -0.53272  -0.53148
 Alpha  occ. eigenvalues --   -0.52924  -0.52732  -0.52711  -0.52436  -0.52241
 Alpha  occ. eigenvalues --   -0.52085  -0.51831  -0.51713  -0.51601  -0.51430
 Alpha  occ. eigenvalues --   -0.51404  -0.51123  -0.51050  -0.51000  -0.50805
 Alpha  occ. eigenvalues --   -0.50753  -0.50498  -0.50425  -0.50330  -0.49903
 Alpha  occ. eigenvalues --   -0.49765  -0.49727  -0.49648  -0.49325  -0.48953
 Alpha  occ. eigenvalues --   -0.48809  -0.48663  -0.48366  -0.48272  -0.48188
 Alpha  occ. eigenvalues --   -0.47953  -0.47814  -0.47717  -0.47654  -0.47462
 Alpha  occ. eigenvalues --   -0.47345  -0.47205  -0.47103  -0.46950  -0.46868
 Alpha  occ. eigenvalues --   -0.46769  -0.46640  -0.46595  -0.46275  -0.45948
 Alpha  occ. eigenvalues --   -0.45947  -0.45896  -0.45766  -0.45452  -0.45446
 Alpha  occ. eigenvalues --   -0.45283  -0.45171  -0.45088  -0.44946  -0.44665
 Alpha  occ. eigenvalues --   -0.44465  -0.44445  -0.44039  -0.43982  -0.43783
 Alpha  occ. eigenvalues --   -0.43757  -0.43570  -0.43319  -0.43036  -0.42972
 Alpha  occ. eigenvalues --   -0.42874  -0.42797  -0.42682  -0.42437  -0.42381
 Alpha  occ. eigenvalues --   -0.42105  -0.41892  -0.41209  -0.41118  -0.40693
 Alpha  occ. eigenvalues --   -0.40213  -0.39990  -0.39977  -0.39663  -0.39464
 Alpha  occ. eigenvalues --   -0.38981  -0.38655  -0.38498  -0.38444  -0.38142
 Alpha  occ. eigenvalues --   -0.37723  -0.37635  -0.36556  -0.36455  -0.35917
 Alpha  occ. eigenvalues --   -0.35905  -0.35453  -0.34859  -0.34217  -0.33463
 Alpha  occ. eigenvalues --   -0.33404  -0.32822  -0.32733  -0.32562  -0.32279
 Alpha  occ. eigenvalues --   -0.32171  -0.31911  -0.31708  -0.25838  -0.25489
 Alpha  occ. eigenvalues --   -0.23229  -0.22751
 Alpha virt. eigenvalues --   -0.07189  -0.06880   0.00647   0.00812   0.01987
 Alpha virt. eigenvalues --    0.02951   0.04561   0.04738   0.05669   0.06590
 Alpha virt. eigenvalues --    0.06962   0.07506   0.08025   0.08152   0.08701

 Mulliken charges:
               1
     1  Mg   0.985746
     2  C   -0.033875
     3  C   -0.089413
     4  C   -0.081525
     5  C   -0.113397
     6  N   -0.312499
     7  C   -0.021954
     8  C   -0.084778
     9  C   -0.106183
    10  C    0.035545
    11  C    0.056872
    12  C    0.017367
    13  C   -0.109407
    14  H    0.037434
    15  N   -0.477381
    16  C    0.190032
    17  C   -0.158487
    18  C   -0.108895
    19  C    0.127408
    20  C    0.049088
    21  C    0.101713
    22  O   -0.227648
    23  C   -0.029594
    24  N   -0.378966
    25  C    0.080917
    26  C   -0.097575
    27  C   -0.032731
    28  C    0.053682
    29  C    0.021175
    30  C   -0.006254
    31  C   -0.048552
    32  N   -0.374492
    33  C    0.116161
    34  C   -0.174756
    35  C   -0.023341
    36  C    0.102076
    37  C    0.084899
    38  C    0.096575
    39  O   -0.204577
    40  C   -0.019851
    41  C    0.245676
    42  O   -0.251764
    43  O   -0.402719
    44  C    0.147338
    45  H    0.004661
    46  H    0.017882
    47  H   -0.007195
    48  H    0.021221
    49  H    0.004271
    50  H    0.035510
    51  H    0.070947
    52  H    0.037002
    53  H    0.035400
    54  H    0.041313
    55  H    0.045572
    56  H    0.053113
    57  H    0.040758
    58  H    0.065828
    59  H    0.031017
    60  H    0.059235
    61  H    0.056239
    62  H    0.081384
    63  H    0.037182
    64  H    0.030694
    65  H    0.038435
    66  H    0.045380
    67  H    0.041227
    68  H    0.033883
    69  H    0.028044
    70  H    0.018071
    71  H    0.047812
    72  H    0.040868
    73  H    0.015385
    74  H    0.066010
    75  H    0.046102
    76  H    0.068314
    77  H    0.063919
    78  H    0.057312
    79  H    0.048114
    80  Mg   0.977258
    81  C   -0.038780
    82  C   -0.071977
    83  C   -0.068607
    84  C   -0.096300
    85  N   -0.383262
    86  C   -0.009670
    87  C   -0.026968
    88  C   -0.121299
    89  C    0.109417
    90  C   -0.013755
    91  C   -0.019384
    92  C   -0.123125
    93  H    0.029468
    94  N   -0.491448
    95  C    0.111819
    96  C   -0.136100
    97  C   -0.128150
    98  C    0.164691
    99  C    0.081596
   100  C    0.041242
   101  O   -0.208225
   102  C   -0.027585
   103  N   -0.338884
   104  C    0.031420
   105  C   -0.031770
   106  C   -0.109789
   107  C    0.026672
   108  C    0.019862
   109  C   -0.035734
   110  C   -0.029324
   111  N   -0.401702
   112  C    0.165445
   113  C   -0.241973
   114  C    0.013972
   115  C    0.138372
   116  C    0.096256
   117  C    0.119947
   118  O   -0.173078
   119  C   -0.118307
   120  C    0.285049
   121  O   -0.233258
   122  O   -0.386696
   123  C    0.128175
   124  H   -0.028689
   125  H    0.025148
   126  H    0.001811
   127  H    0.050864
   128  H    0.047811
   129  H    0.031110
   130  H    0.050467
   131  H    0.042788
   132  H    0.033702
   133  H    0.059768
   134  H    0.061100
   135  H    0.063967
   136  H    0.057845
   137  H    0.039866
   138  H    0.047094
   139  H    0.079773
   140  H    0.047376
   141  H    0.039934
   142  H    0.038809
   143  H    0.032535
   144  H    0.032677
   145  H    0.039119
   146  H    0.051673
   147  H    0.028470
   148  H    0.032745
   149  H    0.031889
   150  H    0.042775
   151  H    0.037475
   152  H    0.058698
   153  H    0.027642
   154  H    0.045759
   155  H    0.081045
   156  H    0.063685
   157  H    0.072777
   158  H    0.054981
 Sum of Mulliken charges =  -0.00000

 Dipole moment (field-independent basis, Debye):
    X=              6.5718    Y=             -1.1668    Z=             -6.5732  Tot=              9.3679
 Quadrupole moment (field-independent basis, Debye-Ang):
   XX=           -485.7828   YY=           -509.7982   ZZ=           -470.9299
   XY=             11.8078   XZ=            -70.1957   YZ=            -46.6824

 Normal termination of Gaussian 16 at Mon Sep 20 20:04:48 2021.
