 Gaussian 16, Revision A.03,
 Gaussian 16:  ES64L-G16RevA.03 25-Dec-2016

 --------------------------------
 #p wB97XD/Def2SVP td=(nstates=5)
 --------------------------------

 --------------------------------
 TDDFT excited states in gaussian
 --------------------------------
 Symbolic Z-matrix:
 Charge =  0 Multiplicity = 1

                         Standard orientation:
 ---------------------------------------------------------------------
 Center     Atomic      Atomic             Coordinates (Angstroms)
 Number     Number       Type             X           Y           Z
 ---------------------------------------------------------------------
      1         12           0      -10.573307    0.324014    0.251745
      2          6           0       -8.177035    0.487338   -2.313680
      3          6           0      -11.026245   -3.004247   -0.482878
      4          6           0      -12.208714    0.082528    3.117522
      5          6           0       -9.818873    3.696259    1.074324
      6          7           0       -9.523484   -1.124868   -1.043752
      7          6           0       -8.553969   -0.844319   -2.040967
      8          6           0       -8.393369   -1.943848   -3.008061
      9          6           0       -9.406325   -3.033754   -2.448750
     10          6           0      -10.065703   -2.345051   -1.264271
     11          6           0      -10.342306   -3.594140   -3.546897
     12          6           0       -7.031349   -2.567937   -3.026451
     13          6           0       -6.314950   -2.704004   -1.674630
     14          1           0       -5.393656   -3.944607   -1.353211
     15          7           0      -11.546813   -1.240090    1.212619
     16          6           0      -11.707992   -2.464614    0.675755
     17          6           0      -12.595343   -3.220278    1.524013
     18          6           0      -13.020752   -2.333243    2.543447
     19          6           0      -12.287234   -1.076557    2.322674
     20          6           0      -12.953954   -4.672342    1.356159
     21          6           0      -14.032984   -2.657389    3.641774
     22          8           0      -14.549831   -3.755166    3.714012
     23          6           0      -14.436415   -1.787500    4.795320
     24          7           0      -10.750050    1.596337    1.982353
     25          6           0      -11.546800    1.279448    3.050121
     26          6           0      -11.823697    2.529293    3.948847
     27          6           0      -10.783221    3.555776    3.407207
     28          6           0      -10.439390    2.933796    2.071495
     29          6           0      -13.257787    3.105447    3.864309
     30          6           0       -9.388202    3.623495    4.190626
     31          6           0       -8.870201    4.975930    4.522647
     32          7           0       -9.404286    1.810684   -0.465084
     33          6           0       -9.364439    3.112233   -0.149489
     34          6           0       -8.741986    3.901013   -1.278761
     35          6           0       -8.316131    2.861661   -2.165801
     36          6           0       -8.611687    1.609635   -1.556088
     37          6           0       -8.548034    5.400932   -1.448735
     38          6           0       -7.539111    2.633069   -3.349733
     39          8           0       -6.969002    3.418414   -4.090512
     40          6           0       -7.449169    1.061100   -3.503054
     41          6           0       -5.997027    0.681115   -3.300534
     42          8           0       -5.364709    0.739946   -2.298186
     43          8           0       -5.535219    0.131741   -4.477669
     44          6           0       -4.239327   -0.541637   -4.345183
     45          1           0      -11.307997   -3.995019   -0.844906
     46          1           0      -12.885886    0.075628    3.973250
     47          1           0       -9.747984    4.759778    1.311669
     48          1           0       -8.622439   -1.548291   -3.997581
     49          1           0       -8.959089   -3.878909   -1.925597
     50          1           0      -10.242631   -4.663810   -3.361722
     51          1           0       -9.937848   -3.268001   -4.505165
     52          1           0      -11.387133   -3.321263   -3.397324
     53          1           0       -6.373810   -2.171793   -3.800737
     54          1           0       -7.007465   -3.600385   -3.375830
     55          1           0       -7.109595   -2.632284   -0.931228
     56          1           0       -5.758342   -1.768265   -1.619938
     57          1           0      -12.886441   -5.204624    2.305537
     58          1           0      -12.340273   -5.116502    0.572533
     59          1           0      -13.994286   -4.649862    1.030770
     60          1           0      -13.652725   -1.581556    5.523662
     61          1           0      -15.112893   -2.454255    5.330242
     62          1           0      -15.076349   -0.954588    4.502087
     63          1           0      -11.643336    2.238594    4.983691
     64          1           0      -11.192590    4.557102    3.271069
     65          1           0      -13.210215    4.082205    3.383208
     66          1           0      -13.791321    3.004089    4.809243
     67          1           0      -13.842224    2.477651    3.192650
     68          1           0       -8.616170    3.062641    3.664337
     69          1           0       -9.586948    3.084379    5.117042
     70          1           0       -8.679408    5.109916    5.587221
     71          1           0       -9.513130    5.785664    4.176805
     72          1           0       -7.902632    5.163356    4.057831
     73          1           0       -7.475670    5.560618   -1.561275
     74          1           0       -9.079714    5.898272   -0.636583
     75          1           0       -8.976106    5.639336   -2.422312
     76          1           0       -7.826661    0.716839   -4.465646
     77          1           0       -4.075756   -0.959963   -3.352128
     78          1           0       -3.520946    0.253178   -4.546170
     79          1           0       -4.167816   -1.213148   -5.200358
     80         12           0       10.160583    0.147859    0.641802
     81          6           0        7.751363   -1.333855   -1.482954
     82          6           0        9.847028    2.884301   -1.143347
     83          6           0       13.065299    1.035607    1.948153
     84          6           0       10.733136   -3.136551    1.871925
     85          7           0        8.741371    0.683383   -1.040615
     86          6           0        7.838301    0.022871   -1.668692
     87          6           0        6.979492    0.959642   -2.542991
     88          6           0        7.959351    2.215209   -2.797863
     89          6           0        8.985159    1.897720   -1.631631
     90          6           0        8.644448    2.300341   -4.218983
     91          6           0        5.668165    1.454269   -1.736362
     92          6           0        4.330453    1.735731   -2.494277
     93          1           0        4.464684    2.203343   -3.990330
     94          7           0       11.201106    1.829554    0.595449
     95          6           0       10.842003    2.906023   -0.201676
     96          6           0       11.835624    4.013632    0.026732
     97          6           0       12.776564    3.453129    0.988154
     98          6           0       12.442319    2.052869    1.262011
     99          6           0       11.735063    5.328039   -0.724026
    100          6           0       13.943526    4.162983    1.638580
    101          8           0       14.744074    3.631122    2.420276
    102          6           0       14.139744    5.599111    1.365599
    103          7           0       11.685436   -0.913912    1.882613
    104          6           0       12.796136   -0.285524    2.222997
    105          6           0       13.568080   -1.110773    3.346172
    106          6           0       12.760612   -2.517451    3.266565
    107          6           0       11.629529   -2.159268    2.306343
    108          6           0       15.113225   -1.200011    3.117805
    109          6           0       12.213902   -3.127170    4.599007
    110          6           0       12.861242   -4.397932    5.086398
    111          7           0        9.281290   -1.843968    0.465714
    112          6           0        9.658966   -3.038015    1.047093
    113          6           0        8.900851   -4.092781    0.516148
    114          6           0        8.167985   -3.469323   -0.511469
    115          6           0        8.428026   -2.120077   -0.556420
    116          6           0        8.937759   -5.492557    0.874571
    117          6           0        7.169365   -3.765510   -1.463943
    118          8           0        6.476193   -4.775226   -1.764221
    119          6           0        7.055800   -2.428272   -2.325292
    120          6           0        5.634511   -2.138572   -2.642083
    121          8           0        4.722662   -1.884244   -1.857881
    122          8           0        5.523217   -2.091696   -4.067566
    123          6           0        4.191512   -1.826325   -4.626602
    124          1           0        9.609547    3.809955   -1.672567
    125          1           0       13.991600    1.365400    2.421829
    126          1           0       10.862998   -4.127595    2.313235
    127          1           0        6.912054    0.500508   -3.528929
    128          1           0        7.361400    3.125173   -2.761189
    129          1           0        8.539049    1.371032   -4.778368
    130          1           0        9.720726    2.451369   -4.137682
    131          1           0        8.142043    3.115284   -4.739978
    132          1           0        5.894344    2.329416   -1.127012
    133          1           0        5.454142    0.717092   -0.962245
    134          1           0        3.707120    2.493119   -2.017882
    135          1           0        3.851027    0.767822   -2.645768
    136          1           0       11.882747    6.187704   -0.069380
    137          1           0       10.785734    5.453317   -1.244822
    138          1           0       12.403398    5.302294   -1.584350
    139          1           0       14.264164    5.783306    0.298130
    140          1           0       15.015561    5.961022    1.904259
    141          1           0       13.341594    6.257654    1.708212
    142          1           0       13.390067   -0.723262    4.349225
    143          1           0       13.296210   -3.265571    2.680285
    144          1           0       15.381184   -0.757544    2.158199
    145          1           0       15.275826   -2.268187    3.262966
    146          1           0       15.584245   -0.731762    3.981118
    147          1           0       11.159203   -3.353681    4.441236
    148          1           0       12.260653   -2.375301    5.387049
    149          1           0       13.720307   -4.508177    4.425946
    150          1           0       12.172319   -5.218951    4.884514
    151          1           0       13.224172   -4.334275    6.111483
    152          1           0        8.823443   -5.541106    1.957144
    153          1           0        9.908540   -5.981524    0.792847
    154          1           0        8.111309   -6.015844    0.393326
    155          1           0        7.622605   -2.570330   -3.245984
    156          1           0        4.207557   -1.901414   -5.714209
    157          1           0        3.956242   -0.773253   -4.471252
    158          1           0        3.492350   -2.574897   -4.255388
 ---------------------------------------------------------------------

 SCF Done:  E(RwB97XD) =  -4070.56843508     A.U. after   20 cycles

 Excitation energies and oscillator strengths:

 Excited State   1:      Singlet-A      1.6064 eV  771.82 nm  f=0.3688  <S**2>=0.000
     309 -> 316       -0.17849
     312 -> 313        0.68545
     309 <- 316       -0.11727
 This state for optimization and/or second-order correction.
 Total Energy, E(TD-HF/TD-DFT) =  -4070.50940166
 Copying the excited state density for this state as the 1-particle RhoCI density.

 Excited State   2:      Singlet-A      1.7433 eV  711.21 nm  f=0.3629  <S**2>=0.000
     310 -> 315        0.21760
     311 -> 314        0.67307
     310 <- 315        0.11920

 Excited State   3:      Singlet-A      2.1692 eV  571.57 nm  f=0.0790  <S**2>=0.000
     310 -> 314        0.62755
     311 -> 315       -0.30930

 Excited State   4:      Singlet-A      2.2109 eV  560.78 nm  f=0.0983  <S**2>=0.000
     309 -> 313        0.62755
     312 -> 316        0.31167

 Excited State   5:      Singlet-A      3.6217 eV  342.34 nm  f=0.0000  <S**2>=0.000
     312 -> 314        0.70699

 The electronic state is 1-A.
 Alpha  occ. eigenvalues --  -46.95671 -46.94862 -19.29741 -19.29136 -19.25233
 Alpha  occ. eigenvalues --  -19.25092 -19.24118 -19.23984 -19.23484 -19.23181
 Alpha  occ. eigenvalues --  -14.46911 -14.46656 -14.46417 -14.46237 -14.44558
 Alpha  occ. eigenvalues --  -14.44105 -14.44038 -14.43129 -10.43105 -10.42983
 Alpha  occ. eigenvalues --  -10.39042 -10.38940 -10.38495 -10.38477 -10.35521
 Alpha  occ. eigenvalues --  -10.35159 -10.35084 -10.34974 -10.34905 -10.34801
 Alpha  occ. eigenvalues --  -10.34754 -10.34748 -10.34639 -10.34585 -10.34583
 Alpha  occ. eigenvalues --  -10.34529 -10.34439 -10.34387 -10.34232 -10.33922
 Alpha  occ. eigenvalues --  -10.33248 -10.33183 -10.32793 -10.32676 -10.32648
 Alpha  occ. eigenvalues --  -10.32506 -10.32502 -10.32473 -10.32461 -10.32377
 Alpha  occ. eigenvalues --  -10.32330 -10.32318 -10.32122 -10.32074 -10.32046
 Alpha  occ. eigenvalues --  -10.31912 -10.31832 -10.31811 -10.31778 -10.31612
 Alpha  occ. eigenvalues --  -10.31600 -10.31526 -10.31445 -10.31360 -10.30998
 Alpha  occ. eigenvalues --  -10.30949 -10.30786 -10.30468 -10.30447 -10.30369
 Alpha  occ. eigenvalues --  -10.30353 -10.30273 -10.30244 -10.30168 -10.30125
 Alpha  occ. eigenvalues --  -10.30014 -10.29821 -10.29751 -10.29644 -10.29630
 Alpha  occ. eigenvalues --  -10.29359 -10.29302 -10.29181 -10.29112 -10.29112
 Alpha  occ. eigenvalues --  -10.28619  -3.21584  -3.20931  -1.95175  -1.94715
 Alpha  occ. eigenvalues --   -1.94531  -1.94485  -1.94062  -1.93920  -1.19306
 Alpha  occ. eigenvalues --   -1.16059  -1.12541  -1.12127  -1.11587  -1.11057
 Alpha  occ. eigenvalues --   -1.09461  -1.08882  -1.07732  -1.07164  -1.06518
 Alpha  occ. eigenvalues --   -1.05960  -1.05500  -1.05253  -1.04573  -1.03459
 Alpha  occ. eigenvalues --   -0.95080  -0.94901  -0.91634  -0.91375  -0.91246
 Alpha  occ. eigenvalues --   -0.90467  -0.90230  -0.89745  -0.89434  -0.89371
 Alpha  occ. eigenvalues --   -0.89196  -0.88805  -0.88214  -0.87686  -0.86568
 Alpha  occ. eigenvalues --   -0.86156  -0.85986  -0.85825  -0.84597  -0.84539
 Alpha  occ. eigenvalues --   -0.83883  -0.83519  -0.83391  -0.82739  -0.82583
 Alpha  occ. eigenvalues --   -0.82385  -0.80889  -0.79818  -0.79605  -0.79364
 Alpha  occ. eigenvalues --   -0.78821  -0.78685  -0.77892  -0.77769  -0.77126
 Alpha  occ. eigenvalues --   -0.77018  -0.75171  -0.74618  -0.74195  -0.73573
 Alpha  occ. eigenvalues --   -0.71459  -0.70888  -0.70729  -0.70511  -0.70466
 Alpha  occ. eigenvalues --   -0.69818  -0.69133  -0.69011  -0.67831  -0.67725
 Alpha  occ. eigenvalues --   -0.67531  -0.67488  -0.66993  -0.66545  -0.66426
 Alpha  occ. eigenvalues --   -0.66283  -0.64000  -0.63212  -0.62495  -0.62070
 Alpha  occ. eigenvalues --   -0.61905  -0.61354  -0.61243  -0.60920  -0.60849
 Alpha  occ. eigenvalues --   -0.60293  -0.60017  -0.59676  -0.59321  -0.59245
 Alpha  occ. eigenvalues --   -0.58914  -0.58459  -0.57924  -0.57706  -0.57362
 Alpha  occ. eigenvalues --   -0.57269  -0.56967  -0.56481  -0.56261  -0.55944
 Alpha  occ. eigenvalues --   -0.55687  -0.55404  -0.55071  -0.54908  -0.54841
 Alpha  occ. eigenvalues --   -0.54731  -0.54505  -0.54332  -0.54231  -0.54137
 Alpha  occ. eigenvalues --   -0.54115  -0.53958  -0.53464  -0.53373  -0.53256
 Alpha  occ. eigenvalues --   -0.53033  -0.53014  -0.52799  -0.52785  -0.52459
 Alpha  occ. eigenvalues --   -0.52221  -0.52026  -0.51786  -0.51475  -0.51435
 Alpha  occ. eigenvalues --   -0.51260  -0.51133  -0.51055  -0.50750  -0.50690
 Alpha  occ. eigenvalues --   -0.50611  -0.50564  -0.50484  -0.50264  -0.50200
 Alpha  occ. eigenvalues --   -0.49894  -0.49679  -0.49509  -0.49387  -0.49175
 Alpha  occ. eigenvalues --   -0.49051  -0.48973  -0.48954  -0.48753  -0.48675
 Alpha  occ. eigenvalues --   -0.48666  -0.48237  -0.48195  -0.48004  -0.47873
 Alpha  occ. eigenvalues --   -0.47741  -0.47469  -0.47352  -0.47240  -0.47086
 Alpha  occ. eigenvalues --   -0.46822  -0.46536  -0.46223  -0.46129  -0.45945
 Alpha  occ. eigenvalues --   -0.45845  -0.45807  -0.45740  -0.45456  -0.45437
 Alpha  occ. eigenvalues --   -0.45188  -0.45065  -0.44866  -0.44605  -0.44483
 Alpha  occ. eigenvalues --   -0.44444  -0.44294  -0.44023  -0.44010  -0.43826
 Alpha  occ. eigenvalues --   -0.43724  -0.43568  -0.43486  -0.43066  -0.42981
 Alpha  occ. eigenvalues --   -0.42902  -0.42617  -0.42596  -0.42483  -0.42190
 Alpha  occ. eigenvalues --   -0.42188  -0.41925  -0.41697  -0.40966  -0.40867
 Alpha  occ. eigenvalues --   -0.40374  -0.40282  -0.39855  -0.39715  -0.39355
 Alpha  occ. eigenvalues --   -0.39208  -0.38996  -0.38385  -0.38339  -0.38038
 Alpha  occ. eigenvalues --   -0.37600  -0.37511  -0.36947  -0.36527  -0.36129
 Alpha  occ. eigenvalues --   -0.35839  -0.35585  -0.35222  -0.33961  -0.33500
 Alpha  occ. eigenvalues --   -0.33181  -0.33051  -0.32568  -0.32395  -0.32261
 Alpha  occ. eigenvalues --   -0.31999  -0.31755  -0.31416  -0.26150  -0.26037
 Alpha  occ. eigenvalues --   -0.23439  -0.22775
 Alpha virt. eigenvalues --   -0.07046  -0.06913  -0.00681   0.00208   0.01868
 Alpha virt. eigenvalues --    0.02369   0.04407   0.04562   0.04724   0.05496
 Alpha virt. eigenvalues --    0.06797   0.07743   0.07880   0.07921   0.08246

 Mulliken charges:
               1
     1  Mg   0.971388
     2  C   -0.073442
     3  C   -0.088641
     4  C   -0.070306
     5  C   -0.087889
     6  N   -0.366547
     7  C    0.021994
     8  C   -0.041576
     9  C   -0.131741
    10  C    0.060178
    11  C    0.036628
    12  C   -0.026305
    13  C   -0.106819
    14  H    0.044135
    15  N   -0.438665
    16  C    0.155283
    17  C   -0.198929
    18  C   -0.050425
    19  C    0.165528
    20  C    0.110466
    21  C    0.017511
    22  O   -0.237347
    23  C   -0.009400
    24  N   -0.357156
    25  C    0.045880
    26  C   -0.080024
    27  C   -0.111609
    28  C    0.037714
    29  C    0.042929
    30  C    0.014756
    31  C   -0.045763
    32  N   -0.434681
    33  C    0.147908
    34  C   -0.205475
    35  C   -0.044368
    36  C    0.163249
    37  C    0.102103
    38  C    0.124177
    39  O   -0.207094
    40  C   -0.072825
    41  C    0.257684
    42  O   -0.209707
    43  O   -0.375178
    44  C    0.128910
    45  H   -0.001663
    46  H   -0.030433
    47  H    0.001254
    48  H    0.040300
    49  H    0.052917
    50  H    0.038114
    51  H    0.045509
    52  H    0.045894
    53  H    0.018033
    54  H    0.023708
    55  H    0.051394
    56  H    0.057241
    57  H    0.065927
    58  H    0.021677
    59  H    0.056211
    60  H    0.066119
    61  H    0.044594
    62  H    0.054296
    63  H    0.033901
    64  H    0.029313
    65  H    0.040413
    66  H    0.046004
    67  H    0.027730
    68  H    0.057449
    69  H    0.024528
    70  H    0.038535
    71  H    0.024699
    72  H    0.035740
    73  H    0.069072
    74  H    0.037541
    75  H    0.057162
    76  H    0.064782
    77  H    0.074433
    78  H    0.055294
    79  H    0.055807
    80  Mg   0.950988
    81  C   -0.001338
    82  C   -0.092505
    83  C   -0.057331
    84  C   -0.097791
    85  N   -0.289374
    86  C   -0.079601
    87  C   -0.022191
    88  C   -0.152117
    89  C    0.044775
    90  C    0.020196
    91  C    0.018934
    92  C   -0.121786
    93  H   -0.003297
    94  N   -0.573656
    95  C    0.230534
    96  C   -0.157298
    97  C   -0.064193
    98  C    0.176560
    99  C    0.067566
   100  C    0.057078
   101  O   -0.243380
   102  C   -0.029468
   103  N   -0.281791
   104  C    0.040701
   105  C   -0.118700
   106  C   -0.082488
   107  C    0.022745
   108  C    0.039337
   109  C   -0.018008
   110  C   -0.035006
   111  N   -0.421068
   112  C    0.154943
   113  C   -0.152099
   114  C   -0.029701
   115  C    0.146208
   116  C    0.092551
   117  C    0.133434
   118  O   -0.250932
   119  C   -0.095567
   120  C    0.288778
   121  O   -0.246075
   122  O   -0.409321
   123  C    0.146674
   124  H   -0.006385
   125  H    0.019124
   126  H   -0.015551
   127  H    0.024857
   128  H    0.044467
   129  H    0.036788
   130  H    0.039434
   131  H    0.044316
   132  H    0.028471
   133  H    0.057846
   134  H    0.066945
   135  H    0.078644
   136  H    0.055783
   137  H    0.031719
   138  H    0.060608
   139  H    0.053863
   140  H    0.050746
   141  H    0.060099
   142  H    0.047669
   143  H    0.033834
   144  H    0.061730
   145  H    0.028905
   146  H    0.039183
   147  H    0.034253
   148  H    0.025037
   149  H    0.022625
   150  H    0.040415
   151  H    0.046482
   152  H    0.029890
   153  H    0.045406
   154  H    0.071863
   155  H    0.082338
   156  H    0.043784
   157  H    0.042786
   158  H    0.066110
 Sum of Mulliken charges =  -0.00000

 Dipole moment (field-independent basis, Debye):
    X=             -0.0612    Y=              5.0266    Z=              0.3065  Tot=              5.0363
 Quadrupole moment (field-independent basis, Debye-Ang):
   XX=           -471.7163   YY=           -500.1009   ZZ=           -487.7673
   XY=            -19.9570   XZ=             -2.0505   YZ=             14.3757

 Normal termination of Gaussian 16 at Sat Sep 18 14:25:04 2021.
