 Gaussian 16, Revision A.03,
 Gaussian 16:  ES64L-G16RevA.03 25-Dec-2016

 --------------------------------
 #p wB97XD/Def2SVP td=(nstates=5)
 --------------------------------

 --------------------------------
 TDDFT excited states in gaussian
 --------------------------------
 Symbolic Z-matrix:
 Charge =  0 Multiplicity = 1

                         Standard orientation:
 ---------------------------------------------------------------------
 Center     Atomic      Atomic             Coordinates (Angstroms)
 Number     Number       Type             X           Y           Z
 ---------------------------------------------------------------------
      1         12           0       -8.982568    0.548502    0.094558
      2          6           0       -6.818375   -1.844870    1.338581
      3          6           0       -6.756060    3.052043    1.264074
      4          6           0      -10.753612    2.945371   -1.596768
      5          6           0      -10.885190   -1.886849   -1.447552
      6          7           0       -7.091231    0.550112    1.285847
      7          6           0       -6.345762   -0.569959    1.588307
      8          6           0       -4.910811   -0.248991    2.151812
      9          6           0       -5.067047    1.307694    2.493107
     10          6           0       -6.415414    1.725051    1.680455
     11          6           0       -5.125441    1.764440    4.000547
     12          6           0       -3.786033   -0.512596    1.213571
     13          6           0       -2.706455   -1.520080    1.559505
     14          1           0       -1.319961   -1.259237    0.949299
     15          7           0       -8.831904    2.731486   -0.057025
     16          6           0       -7.849894    3.523217    0.567635
     17          6           0       -8.126738    4.904529    0.331887
     18          6           0       -9.233862    4.895546   -0.660039
     19          6           0       -9.671535    3.476842   -0.841414
     20          6           0       -7.229628    6.053792    0.803175
     21          6           0       -9.757780    6.200223   -1.285184
     22          8           0       -9.343372    7.338621   -1.086590
     23          6           0      -10.635203    6.071310   -2.479679
     24          7           0      -10.550458    0.535051   -1.527591
     25          6           0      -11.193984    1.658327   -1.873665
     26          6           0      -12.086582    1.298975   -3.060627
     27          6           0      -12.245421   -0.292159   -3.010865
     28          6           0      -11.163920   -0.613827   -1.885351
     29          6           0      -13.502579    1.949726   -2.871300
     30          6           0      -12.010875   -1.148979   -4.322118
     31          6           0      -13.159713   -1.914366   -4.961626
     32          7           0       -8.941652   -1.513054    0.016982
     33          6           0       -9.811395   -2.397904   -0.628048
     34          6           0       -9.358905   -3.743613   -0.449047
     35          6           0       -8.163575   -3.611368    0.323137
     36          6           0       -8.014425   -2.197239    0.603589
     37          6           0       -9.966192   -5.008689   -0.968195
     38          6           0       -7.119434   -4.279106    0.984271
     39          8           0       -6.914816   -5.475089    1.042207
     40          6           0       -6.164169   -3.182311    1.595840
     41          6           0       -5.820738   -3.574262    2.971736
     42          8           0       -4.730838   -4.038252    3.287106
     43          8           0       -6.903340   -3.364656    3.812888
     44          6           0       -6.640818   -3.780820    5.208920
     45          1           0       -6.173463    3.907390    1.611281
     46          1           0      -11.314201    3.777691   -2.028330
     47          1           0      -11.473747   -2.638593   -1.977351
     48          1           0       -4.750943   -0.808294    3.072961
     49          1           0       -4.258494    1.819548    1.970004
     50          1           0       -4.808267    0.913887    4.603840
     51          1           0       -6.102860    2.115850    4.331366
     52          1           0       -4.454474    2.617048    4.098386
     53          1           0       -3.241450    0.427919    1.117474
     54          1           0       -4.174319   -0.858425    0.256187
     55          1           0       -3.005617   -2.480739    1.141309
     56          1           0       -2.509316   -1.591857    2.628881
     57          1           0       -6.284499    5.864307    1.311534
     58          1           0       -7.922052    6.648701    1.398258
     59          1           0       -7.142529    6.677826   -0.085688
     60          1           0      -11.714295    5.998690   -2.351036
     61          1           0      -10.290018    5.295281   -3.163019
     62          1           0      -10.537535    7.011955   -3.022940
     63          1           0      -11.667948    1.614728   -4.016486
     64          1           0      -13.193979   -0.560075   -2.546821
     65          1           0      -13.737705    2.464084   -3.803090
     66          1           0      -13.594494    2.639781   -2.031615
     67          1           0      -14.287370    1.220405   -2.669250
     68          1           0      -11.220119   -1.843768   -4.040006
     69          1           0      -11.703324   -0.426003   -5.078917
     70          1           0      -12.683640   -2.715744   -5.527209
     71          1           0      -13.663850   -1.262039   -5.674998
     72          1           0      -13.908249   -2.398896   -4.335599
     73          1           0       -9.325905   -5.815012   -0.609499
     74          1           0      -10.013783   -4.921339   -2.053223
     75          1           0      -10.971110   -5.225073   -0.605230
     76          1           0       -5.257427   -3.272822    0.996785
     77          1           0       -6.922336   -4.824596    5.347729
     78          1           0       -7.166037   -3.061217    5.836909
     79          1           0       -5.592506   -3.656291    5.478785
     80         12           0        9.090294    0.169213   -0.022948
     81          6           0        6.322191   -1.997116    0.377766
     82          6           0        7.365893    2.593178    1.727055
     83          6           0       11.629618    2.316809   -0.672014
     84          6           0       10.712984   -2.248069   -1.975646
     85          7           0        7.039960    0.220935    0.811000
     86          6           0        6.165541   -0.834247    1.060045
     87          6           0        4.933866   -0.369242    1.939909
     88          6           0        5.205524    1.151557    2.087853
     89          6           0        6.600729    1.380961    1.464815
     90          6           0        4.154705    2.155630    1.482254
     91          6           0        4.644923   -1.202252    3.255321
     92          6           0        3.294354   -1.849123    3.317661
     93          1           0        2.607667   -1.886391    4.740181
     94          7           0        9.389551    2.129194    0.464815
     95          6           0        8.617518    2.964242    1.246740
     96          6           0        9.244545    4.274646    1.320061
     97          6           0       10.494004    4.248172    0.638191
     98          6           0       10.573220    2.835874    0.112024
     99          6           0        8.703429    5.444046    2.167036
    100          6           0       11.553772    5.334350    0.484537
    101          8           0       12.627952    5.159523   -0.053001
    102          6           0       11.433215    6.789520    1.097668
    103          7           0       10.889230    0.071892   -1.259026
    104          6           0       11.752214    1.075342   -1.349742
    105          6           0       12.991781    0.707721   -2.241057
    106          6           0       12.779019   -0.836855   -2.496490
    107          6           0       11.376289   -1.050962   -1.851672
    108          6           0       13.115169    1.639451   -3.481260
    109          6           0       13.909183   -1.671836   -1.927745
    110          6           0       14.361875   -2.811387   -2.838910
    111          7           0        8.645690   -1.698018   -0.832327
    112          6           0        9.424109   -2.608617   -1.520822
    113          6           0        8.599258   -3.741191   -1.809624
    114          6           0        7.399941   -3.595809   -1.069200
    115          6           0        7.447276   -2.306597   -0.469145
    116          6           0        8.976041   -4.901896   -2.649970
    117          6           0        6.159751   -4.274923   -0.655160
    118          8           0        5.628954   -5.325978   -1.002196
    119          6           0        5.406278   -3.160212    0.407551
    120          6           0        4.094688   -2.851413   -0.070224
    121          8           0        3.786156   -1.815088   -0.617588
    122          8           0        3.198595   -3.831044    0.293522
    123          6           0        1.832804   -3.580523   -0.230458
    124          1           0        6.911446    3.343565    2.377616
    125          1           0       12.450326    2.979495   -0.952548
    126          1           0       11.324311   -2.973630   -2.517494
    127          1           0        4.092898   -0.388751    1.247569
    128          1           0        5.291481    1.426105    3.139245
    129          1           0        4.056874    2.971578    2.199005
    130          1           0        3.215784    1.622949    1.333331
    131          1           0        4.443718    2.584577    0.522583
    132          1           0        4.806734   -0.512606    4.083873
    133          1           0        5.377803   -2.008843    3.281589
    134          1           0        3.369777   -2.888354    2.994957
    135          1           0        2.707283   -1.276550    2.600157
    136          1           0        9.437903    5.579150    2.960217
    137          1           0        7.803129    5.116896    2.687706
    138          1           0        8.586957    6.395215    1.646117
    139          1           0       11.281211    6.687880    2.172763
    140          1           0       10.772908    7.438112    0.521213
    141          1           0       12.365708    7.277995    0.816503
    142          1           0       13.943038    0.782504   -1.714544
    143          1           0       12.658970   -0.944515   -3.574677
    144          1           0       13.223469    1.015124   -4.368614
    145          1           0       13.906319    2.383677   -3.386663
    146          1           0       12.200371    2.218820   -3.594808
    147          1           0       13.662765   -2.086562   -0.950858
    148          1           0       14.804052   -1.101150   -1.674683
    149          1           0       13.678524   -2.947133   -3.677247
    150          1           0       14.332592   -3.715987   -2.230854
    151          1           0       15.403935   -2.712934   -3.143490
    152          1           0        9.964723   -4.889164   -3.108609
    153          1           0        8.112498   -5.107883   -3.283546
    154          1           0        9.177481   -5.676087   -1.909211
    155          1           0        5.340127   -3.607459    1.399775
    156          1           0        1.857142   -3.535638   -1.319486
    157          1           0        1.482734   -2.675143    0.265296
    158          1           0        1.134948   -4.383967    0.002038
 ---------------------------------------------------------------------

 SCF Done:  E(RwB97XD) =  -4070.59448103     A.U. after   20 cycles

 Excitation energies and oscillator strengths:

 Excited State   1:      Singlet-A      1.6641 eV  745.05 nm  f=0.3231  <S**2>=0.000
     309 -> 315        0.17840
     311 -> 313        0.68296
     309 <- 315        0.11340
 This state for optimization and/or second-order correction.
 Total Energy, E(TD-HF/TD-DFT) =  -4070.53332634
 Copying the excited state density for this state as the 1-particle RhoCI density.

 Excited State   2:      Singlet-A      1.7576 eV  705.43 nm  f=0.4075  <S**2>=0.000
     310 -> 316        0.17855
     312 -> 314        0.68190
     310 <- 316        0.10774

 Excited State   3:      Singlet-A      2.1181 eV  585.36 nm  f=0.1657  <S**2>=0.000
     309 -> 313        0.64877
     311 -> 315       -0.25640

 Excited State   4:      Singlet-A      2.2083 eV  561.45 nm  f=0.1142  <S**2>=0.000
     310 -> 314        0.63709
     312 -> 316       -0.28416

 Excited State   5:      Singlet-A      3.2469 eV  381.86 nm  f=0.0000  <S**2>=0.000
     312 -> 313        0.70669

 The electronic state is 1-A.
 Alpha  occ. eigenvalues --  -46.96864 -46.94493 -19.30380 -19.29207 -19.24900
 Alpha  occ. eigenvalues --  -19.24816 -19.24236 -19.24214 -19.23869 -19.23327
 Alpha  occ. eigenvalues --  -14.48204 -14.46812 -14.46595 -14.46257 -14.44935
 Alpha  occ. eigenvalues --  -14.44741 -14.44458 -14.43180 -10.43019 -10.41855
 Alpha  occ. eigenvalues --  -10.40393 -10.39822 -10.39342 -10.38185 -10.37324
 Alpha  occ. eigenvalues --  -10.36572 -10.36260 -10.36083 -10.35786 -10.35742
 Alpha  occ. eigenvalues --  -10.35271 -10.35267 -10.35194 -10.34822 -10.34592
 Alpha  occ. eigenvalues --  -10.34573 -10.34381 -10.34137 -10.34126 -10.34048
 Alpha  occ. eigenvalues --  -10.33667 -10.33610 -10.33071 -10.33000 -10.32865
 Alpha  occ. eigenvalues --  -10.32785 -10.32755 -10.32623 -10.32489 -10.32477
 Alpha  occ. eigenvalues --  -10.32431 -10.32379 -10.32350 -10.32347 -10.32302
 Alpha  occ. eigenvalues --  -10.32017 -10.31968 -10.31963 -10.31833 -10.31748
 Alpha  occ. eigenvalues --  -10.31592 -10.31579 -10.31480 -10.31362 -10.31323
 Alpha  occ. eigenvalues --  -10.31065 -10.30970 -10.30958 -10.30895 -10.30794
 Alpha  occ. eigenvalues --  -10.30609 -10.30559 -10.30510 -10.30290 -10.30221
 Alpha  occ. eigenvalues --  -10.30099 -10.30087 -10.29897 -10.29807 -10.29709
 Alpha  occ. eigenvalues --  -10.29618 -10.29366 -10.29014 -10.28935 -10.28814
 Alpha  occ. eigenvalues --  -10.28740  -3.22558  -3.20458  -1.96168  -1.95650
 Alpha  occ. eigenvalues --   -1.95519  -1.94057  -1.93574  -1.93436  -1.17733
 Alpha  occ. eigenvalues --   -1.17707  -1.13733  -1.12373  -1.11988  -1.11286
 Alpha  occ. eigenvalues --   -1.09723  -1.09313  -1.06839  -1.06097  -1.06000
 Alpha  occ. eigenvalues --   -1.04683  -1.04456  -1.03871  -1.03859  -1.02849
 Alpha  occ. eigenvalues --   -0.94588  -0.93631  -0.91517  -0.91350  -0.90910
 Alpha  occ. eigenvalues --   -0.90190  -0.90067  -0.89927  -0.89691  -0.89183
 Alpha  occ. eigenvalues --   -0.89119  -0.88737  -0.87882  -0.87376  -0.86505
 Alpha  occ. eigenvalues --   -0.86172  -0.85751  -0.85403  -0.84888  -0.84293
 Alpha  occ. eigenvalues --   -0.84222  -0.82918  -0.82870  -0.82780  -0.82517
 Alpha  occ. eigenvalues --   -0.81959  -0.80380  -0.79820  -0.79178  -0.79016
 Alpha  occ. eigenvalues --   -0.78723  -0.78237  -0.78213  -0.77497  -0.77469
 Alpha  occ. eigenvalues --   -0.76595  -0.75540  -0.74332  -0.74121  -0.73187
 Alpha  occ. eigenvalues --   -0.71372  -0.71012  -0.71012  -0.70656  -0.70056
 Alpha  occ. eigenvalues --   -0.69332  -0.69191  -0.69005  -0.67576  -0.67512
 Alpha  occ. eigenvalues --   -0.67448  -0.67326  -0.66846  -0.66631  -0.66515
 Alpha  occ. eigenvalues --   -0.66219  -0.65024  -0.62926  -0.62342  -0.62013
 Alpha  occ. eigenvalues --   -0.61772  -0.61510  -0.61124  -0.61061  -0.60662
 Alpha  occ. eigenvalues --   -0.59832  -0.59809  -0.59594  -0.58947  -0.58903
 Alpha  occ. eigenvalues --   -0.58591  -0.57975  -0.57859  -0.57489  -0.57454
 Alpha  occ. eigenvalues --   -0.56729  -0.56618  -0.55956  -0.55802  -0.55541
 Alpha  occ. eigenvalues --   -0.55481  -0.55250  -0.55168  -0.55085  -0.54852
 Alpha  occ. eigenvalues --   -0.54827  -0.54717  -0.54510  -0.54369  -0.54106
 Alpha  occ. eigenvalues --   -0.53917  -0.53882  -0.53493  -0.53301  -0.53223
 Alpha  occ. eigenvalues --   -0.52980  -0.52868  -0.52664  -0.52398  -0.52381
 Alpha  occ. eigenvalues --   -0.52214  -0.51952  -0.51752  -0.51494  -0.51439
 Alpha  occ. eigenvalues --   -0.51364  -0.51217  -0.51174  -0.50880  -0.50583
 Alpha  occ. eigenvalues --   -0.50534  -0.50486  -0.50280  -0.49876  -0.49845
 Alpha  occ. eigenvalues --   -0.49828  -0.49756  -0.49575  -0.49391  -0.49183
 Alpha  occ. eigenvalues --   -0.48998  -0.48652  -0.48610  -0.48571  -0.48226
 Alpha  occ. eigenvalues --   -0.48155  -0.48023  -0.47969  -0.47843  -0.47815
 Alpha  occ. eigenvalues --   -0.47701  -0.47360  -0.47247  -0.47134  -0.47006
 Alpha  occ. eigenvalues --   -0.46723  -0.46626  -0.46554  -0.46537  -0.46301
 Alpha  occ. eigenvalues --   -0.46103  -0.45836  -0.45771  -0.45711  -0.45612
 Alpha  occ. eigenvalues --   -0.45379  -0.45110  -0.45059  -0.45015  -0.44912
 Alpha  occ. eigenvalues --   -0.44789  -0.44364  -0.44192  -0.44184  -0.44112
 Alpha  occ. eigenvalues --   -0.43792  -0.43628  -0.43496  -0.43273  -0.43152
 Alpha  occ. eigenvalues --   -0.42995  -0.42411  -0.42353  -0.42120  -0.41934
 Alpha  occ. eigenvalues --   -0.41815  -0.41673  -0.41487  -0.41481  -0.41202
 Alpha  occ. eigenvalues --   -0.40519  -0.40288  -0.39995  -0.39543  -0.39453
 Alpha  occ. eigenvalues --   -0.39314  -0.39104  -0.38836  -0.38775  -0.38022
 Alpha  occ. eigenvalues --   -0.37906  -0.37708  -0.36562  -0.36377  -0.35993
 Alpha  occ. eigenvalues --   -0.35654  -0.35511  -0.35234  -0.34045  -0.33833
 Alpha  occ. eigenvalues --   -0.33430  -0.33247  -0.32793  -0.32510  -0.32332
 Alpha  occ. eigenvalues --   -0.32029  -0.31880  -0.30646  -0.26584  -0.25924
 Alpha  occ. eigenvalues --   -0.24015  -0.23058
 Alpha virt. eigenvalues --   -0.08131  -0.06752  -0.00458   0.00237   0.02020
 Alpha virt. eigenvalues --    0.02186   0.04285   0.04328   0.05432   0.06105
 Alpha virt. eigenvalues --    0.06945   0.07094   0.07350   0.07765   0.08128

 Mulliken charges:
               1
     1  Mg   0.930479
     2  C    0.060809
     3  C   -0.053547
     4  C   -0.067539
     5  C   -0.064495
     6  N   -0.367722
     7  C   -0.017582
     8  C   -0.067238
     9  C   -0.122793
    10  C    0.087927
    11  C    0.030235
    12  C    0.037537
    13  C   -0.149735
    14  H    0.022959
    15  N   -0.454653
    16  C    0.135187
    17  C   -0.149704
    18  C   -0.136611
    19  C    0.177479
    20  C    0.084262
    21  C    0.092242
    22  O   -0.239895
    23  C   -0.062719
    24  N   -0.335450
    25  C    0.120435
    26  C   -0.138835
    27  C   -0.048764
    28  C    0.022674
    29  C    0.006313
    30  C   -0.011751
    31  C   -0.052490
    32  N   -0.425394
    33  C    0.118425
    34  C   -0.169145
    35  C   -0.018206
    36  C    0.076855
    37  C    0.078405
    38  C    0.069383
    39  O   -0.201870
    40  C   -0.060694
    41  C    0.246664
    42  O   -0.245886
    43  O   -0.384131
    44  C    0.134954
    45  H   -0.013163
    46  H   -0.019635
    47  H   -0.002324
    48  H    0.035011
    49  H    0.040361
    50  H    0.043236
    51  H    0.048580
    52  H    0.042448
    53  H    0.039837
    54  H    0.043948
    55  H    0.068557
    56  H    0.060221
    57  H    0.056523
    58  H    0.057698
    59  H    0.063776
    60  H    0.068507
    61  H    0.056013
    62  H    0.048689
    63  H    0.055390
    64  H    0.030201
    65  H    0.036316
    66  H    0.039718
    67  H    0.031148
    68  H    0.041536
    69  H    0.029005
    70  H    0.037224
    71  H    0.037613
    72  H    0.038385
    73  H    0.063253
    74  H    0.045815
    75  H    0.047065
    76  H    0.066206
    77  H    0.070039
    78  H    0.052379
    79  H    0.054739
    80  Mg   0.955134
    81  C    0.014076
    82  C   -0.100506
    83  C   -0.065630
    84  C   -0.066976
    85  N   -0.380625
    86  C   -0.011808
    87  C   -0.051813
    88  C   -0.156527
    89  C    0.112798
    90  C    0.022946
    91  C    0.049807
    92  C   -0.134990
    93  H    0.029407
    94  N   -0.509971
    95  C    0.184322
    96  C   -0.168136
    97  C   -0.051569
    98  C    0.184516
    99  C    0.065766
   100  C    0.037361
   101  O   -0.218345
   102  C   -0.019053
   103  N   -0.317805
   104  C    0.037389
   105  C   -0.121107
   106  C   -0.060584
   107  C    0.021371
   108  C    0.018130
   109  C    0.000763
   110  C   -0.057016
   111  N   -0.463912
   112  C    0.166535
   113  C   -0.208606
   114  C   -0.041878
   115  C    0.161103
   116  C    0.091204
   117  C    0.152540
   118  O   -0.197935
   119  C   -0.162571
   120  C    0.269588
   121  O   -0.251266
   122  O   -0.372210
   123  C    0.149608
   124  H   -0.009229
   125  H    0.020185
   126  H   -0.018299
   127  H    0.051858
   128  H    0.032296
   129  H    0.035864
   130  H    0.042966
   131  H    0.050705
   132  H    0.037972
   133  H    0.034545
   134  H    0.067630
   135  H    0.050262
   136  H    0.052356
   137  H    0.033677
   138  H    0.066106
   139  H    0.061470
   140  H    0.055428
   141  H    0.047219
   142  H    0.040185
   143  H    0.034324
   144  H    0.035107
   145  H    0.050426
   146  H    0.041417
   147  H    0.030985
   148  H    0.027828
   149  H    0.041087
   150  H    0.031139
   151  H    0.041094
   152  H    0.018896
   153  H    0.070468
   154  H    0.045055
   155  H    0.080339
   156  H    0.059054
   157  H    0.049217
   158  H    0.056159
 Sum of Mulliken charges =  -0.00000

 Dipole moment (field-independent basis, Debye):
    X=             -2.2793    Y=              6.5020    Z=              2.1667  Tot=              7.2226
 Quadrupole moment (field-independent basis, Debye-Ang):
   XX=           -409.3540   YY=           -569.2263   ZZ=           -476.9840
   XY=             15.0022   XZ=             27.6610   YZ=             19.1740

 Normal termination of Gaussian 16 at Mon Sep 20 07:42:02 2021.
