 Gaussian 16, Revision A.03,
 Gaussian 16:  ES64L-G16RevA.03 25-Dec-2016

 --------------------------------
 #p wB97XD/Def2SVP td=(nstates=5)
 --------------------------------

 --------------------------------
 TDDFT excited states in gaussian
 --------------------------------
 Symbolic Z-matrix:
 Charge =  0 Multiplicity = 1

                         Standard orientation:
 ---------------------------------------------------------------------
 Center     Atomic      Atomic             Coordinates (Angstroms)
 Number     Number       Type             X           Y           Z
 ---------------------------------------------------------------------
      1         12           0       -0.531544   -0.033214   -0.442149
      2          6           0        2.771556   -0.060789    0.368144
      3          6           0       -0.532910   -3.562881   -0.218689
      4          6           0       -3.857646    0.079925   -0.162094
      5          6           0       -0.558791    3.563089   -0.112774
      6          7           0        0.956606   -1.559221   -0.008236
      7          6           0        2.202937   -1.416292    0.299907
      8          6           0        3.006139   -2.765245    0.281822
      9          6           0        1.962562   -3.843226   -0.200957
     10          6           0        0.666783   -2.961097   -0.192711
     11          6           0        2.332539   -4.633243   -1.457072
     12          6           0        3.733838   -3.073122    1.721466
     13          6           0        3.176454   -2.419189    2.975442
     14          1           0        3.502462   -2.984727    4.357743
     15          7           0       -1.983473   -1.545562   -0.211896
     16          6           0       -1.810450   -2.908812   -0.210695
     17          6           0       -3.045828   -3.539904   -0.034758
     18          6           0       -4.060965   -2.508978    0.029568
     19          6           0       -3.314263   -1.227858   -0.077275
     20          6           0       -3.168328   -5.050105   -0.122488
     21          6           0       -5.565941   -2.786535    0.196385
     22          8           0       -5.932032   -3.980131    0.284156
     23          6           0       -6.597987   -1.792666    0.263854
     24          7           0       -2.042765    1.637344   -0.007573
     25          6           0       -3.305185    1.351014   -0.154415
     26          6           0       -4.213714    2.612425   -0.201234
     27          6           0       -3.158792    3.739666   -0.239241
     28          6           0       -1.771177    2.987143   -0.132099
     29          6           0       -5.122547    2.675977   -1.375411
     30          6           0       -3.384099    4.840593    0.901223
     31          6           0       -3.843585    6.273585    0.406744
     32          7           0        0.790081    1.509349   -0.090645
     33          6           0        0.687841    2.904090   -0.015538
     34          6           0        2.054601    3.471138    0.205377
     35          6           0        2.850818    2.333050    0.396942
     36          6           0        2.048775    1.163286    0.244397
     37          6           0        2.470880    4.858515    0.282924
     38          6           0        4.154668    1.981893    0.729994
     39          8           0        5.189529    2.629664    0.945615
     40          6           0        4.195838    0.430064    0.637137
     41          6           0        5.289920    0.038240   -0.384304
     42          8           0        6.228350   -0.720970   -0.212561
     43          8           0        5.109334    0.655979   -1.602945
     44          6           0        6.104477    0.397655   -2.650421
     45          1           0       -0.441692   -4.642138   -0.080763
     46          1           0       -4.942406    0.180491   -0.234412
     47          1           0       -0.553955    4.652482   -0.186491
     48          1           0        3.704056   -2.690064   -0.552487
     49          1           0        1.752885   -4.586051    0.569311
     50          1           0        1.636563   -4.391278   -2.260061
     51          1           0        2.270216   -5.710673   -1.299898
     52          1           0        3.354952   -4.505069   -1.812637
     53          1           0        4.764927   -2.798306    1.497878
     54          1           0        3.707138   -4.114603    2.042663
     55          1           0        2.099838   -2.461307    2.812516
     56          1           0        3.462503   -1.370023    2.898953
     57          1           0       -3.848532   -5.498415   -0.847137
     58          1           0       -3.367446   -5.440272    0.875896
     59          1           0       -2.192769   -5.468760   -0.368948
     60          1           0       -6.737444   -1.143852   -0.600656
     61          1           0       -6.354942   -1.045202    1.018384
     62          1           0       -7.560287   -2.182541    0.594168
     63          1           0       -4.911820    2.784286    0.617937
     64          1           0       -3.081771    4.224540   -1.212488
     65          1           0       -6.168075    2.453925   -1.162288
     66          1           0       -4.906588    1.865684   -2.072669
     67          1           0       -5.055405    3.654669   -1.850266
     68          1           0       -2.422130    5.028599    1.379987
     69          1           0       -4.165952    4.593214    1.618009
     70          1           0       -4.666721    6.627039    1.026456
     71          1           0       -4.283542    6.159016   -0.584002
     72          1           0       -2.979952    6.916684    0.577053
     73          1           0        1.779829    5.383457   -0.377024
     74          1           0        3.489130    4.976036   -0.089558
     75          1           0        2.467003    5.118098    1.341142
     76          1           0        4.671625   -0.039204    1.497941
     77          1           0        6.090676    1.234472   -3.348996
     78          1           0        5.962579   -0.471680   -3.292262
     79          1           0        7.108487    0.211887   -2.267772
 ---------------------------------------------------------------------

 SCF Done:  E(RwB97XD) =  -2035.27220895     A.U. after   19 cycles

 Excitation energies and oscillator strengths:

 Excited State   1:      Singlet-A      1.6548 eV  749.24 nm  f=0.4322  <S**2>=0.000
     155 ->158         0.16638
     156 ->157         0.68663
     155 <-158         0.11154
 This state for optimization and/or second-order correction.
 Total Energy, E(TD-HF/TD-DFT) =  -2035.21139620
 Copying the excited state density for this state as the 1-particle RhoCI density.

 Excited State   2:      Singlet-A      2.1981 eV  564.06 nm  f=0.1158  <S**2>=0.000
     155 ->157         0.64047
     156 ->158        -0.27507

 Excited State   3:      Singlet-A      3.2251 eV  384.44 nm  f=0.0080  <S**2>=0.000
     152 ->157         0.15993
     154 ->157         0.66777
     154 ->159         0.10493

 Excited State   4:      Singlet-A      3.2842 eV  377.52 nm  f=0.0058  <S**2>=0.000
     150 ->157         0.24096
     150 ->159        -0.16202
     151 ->157         0.32219
     151 ->159        -0.21063
     152 ->157         0.40560
     152 ->159        -0.20118
     154 ->157        -0.11477
     156 ->158        -0.12868

 Excited State   5:      Singlet-A      3.4395 eV  360.48 nm  f=0.0472  <S**2>=0.000
     151 ->157         0.44665
     152 ->157        -0.36594
     153 ->157        -0.18777
     156 ->158         0.25834

 The electronic state is 1-A.
 Alpha  occ. eigenvalues --  -46.96682 -19.30182 -19.25109 -19.24133 -19.22402
 Alpha  occ. eigenvalues --  -14.47820 -14.46510 -14.45194 -14.44391 -10.43645
 Alpha  occ. eigenvalues --  -10.38815 -10.38172 -10.37087 -10.35928 -10.35344
 Alpha  occ. eigenvalues --  -10.35293 -10.34761 -10.34708 -10.34628 -10.34493
 Alpha  occ. eigenvalues --  -10.33878 -10.33535 -10.33377 -10.32959 -10.32935
 Alpha  occ. eigenvalues --  -10.32565 -10.32407 -10.32354 -10.31746 -10.31608
 Alpha  occ. eigenvalues --  -10.31156 -10.31138 -10.31084 -10.31072 -10.30855
 Alpha  occ. eigenvalues --  -10.30808 -10.30752 -10.30269 -10.30006 -10.29868
 Alpha  occ. eigenvalues --  -10.29747 -10.29473 -10.28782  -3.22554  -1.96115
 Alpha  occ. eigenvalues --   -1.95705  -1.95485  -1.18366  -1.11379  -1.09772
 Alpha  occ. eigenvalues --   -1.09618  -1.07071  -1.06528  -1.05736  -1.04246
 Alpha  occ. eigenvalues --   -0.95067  -0.91626  -0.91300  -0.90924  -0.90344
 Alpha  occ. eigenvalues --   -0.89700  -0.87205  -0.86574  -0.86078  -0.84840
 Alpha  occ. eigenvalues --   -0.84421  -0.83460  -0.82280  -0.80459  -0.79354
 Alpha  occ. eigenvalues --   -0.78885  -0.78311  -0.77231  -0.75421  -0.73957
 Alpha  occ. eigenvalues --   -0.71631  -0.70854  -0.70358  -0.68836  -0.67959
 Alpha  occ. eigenvalues --   -0.67646  -0.66842  -0.66556  -0.65369  -0.62903
 Alpha  occ. eigenvalues --   -0.62001  -0.60936  -0.60539  -0.60024  -0.59243
 Alpha  occ. eigenvalues --   -0.58306  -0.57619  -0.57607  -0.56755  -0.56498
 Alpha  occ. eigenvalues --   -0.55855  -0.55444  -0.55214  -0.54800  -0.54608
 Alpha  occ. eigenvalues --   -0.54176  -0.53423  -0.53266  -0.52852  -0.52617
 Alpha  occ. eigenvalues --   -0.52265  -0.51909  -0.51487  -0.51173  -0.50934
 Alpha  occ. eigenvalues --   -0.50761  -0.50485  -0.50262  -0.49573  -0.49350
 Alpha  occ. eigenvalues --   -0.49134  -0.48814  -0.48748  -0.48116  -0.47862
 Alpha  occ. eigenvalues --   -0.47670  -0.47196  -0.46979  -0.46840  -0.46548
 Alpha  occ. eigenvalues --   -0.46397  -0.45755  -0.45583  -0.44714  -0.44558
 Alpha  occ. eigenvalues --   -0.44185  -0.44074  -0.43901  -0.43427  -0.42881
 Alpha  occ. eigenvalues --   -0.42764  -0.42622  -0.41984  -0.41769  -0.40986
 Alpha  occ. eigenvalues --   -0.40680  -0.40116  -0.39810  -0.38823  -0.38519
 Alpha  occ. eigenvalues --   -0.38412  -0.36822  -0.36327  -0.36254  -0.33802
 Alpha  occ. eigenvalues --   -0.33204  -0.33148  -0.32027  -0.31142  -0.26877
 Alpha  occ. eigenvalues --   -0.23484
 Alpha virt. eigenvalues --   -0.07890   0.00022   0.01987   0.03802   0.04350
 Alpha virt. eigenvalues --    0.07185   0.07601   0.08019   0.09558   0.10535
 Alpha virt. eigenvalues --    0.11117   0.11759   0.12336   0.12784   0.13221

 Mulliken charges:
               1
     1  Mg   0.957082
     2  C    0.004145
     3  C   -0.071871
     4  C   -0.044073
     5  C   -0.099305
     6  N   -0.349392
     7  C    0.011004
     8  C   -0.050798
     9  C   -0.100586
    10  C    0.039469
    11  C    0.023922
    12  C   -0.030611
    13  C   -0.101561
    14  H    0.062349
    15  N   -0.458948
    16  C    0.154366
    17  C   -0.150740
    18  C   -0.094633
    19  C    0.205592
    20  C    0.091785
    21  C    0.063117
    22  O   -0.267818
    23  C    0.000095
    24  N   -0.297838
    25  C    0.010916
    26  C   -0.080691
    27  C   -0.046073
    28  C    0.048370
    29  C    0.002556
    30  C   -0.042778
    31  C   -0.065006
    32  N   -0.464695
    33  C    0.133644
    34  C   -0.171288
    35  C   -0.013189
    36  C    0.155639
    37  C    0.081418
    38  C    0.117941
    39  O   -0.220276
    40  C   -0.108020
    41  C    0.242663
    42  O   -0.244060
    43  O   -0.368867
    44  C    0.139781
    45  H    0.011730
    46  H   -0.042764
    47  H    0.000704
    48  H    0.052496
    49  H    0.038589
    50  H    0.039476
    51  H    0.034757
    52  H    0.041350
    53  H    0.057310
    54  H    0.041163
    55  H    0.052200
    56  H    0.036556
    57  H    0.060609
    58  H    0.046869
    59  H    0.000138
    60  H    0.063438
    61  H    0.040883
    62  H    0.054664
    63  H    0.045308
    64  H    0.032496
    65  H    0.028513
    66  H    0.031385
    67  H    0.039488
    68  H    0.036137
    69  H    0.041012
    70  H    0.033303
    71  H    0.036182
    72  H    0.047809
    73  H    0.043724
    74  H    0.066869
    75  H    0.074603
    76  H    0.058543
    77  H    0.052709
    78  H    0.037446
    79  H    0.061568
 Sum of Mulliken charges =  -0.00000

 Dipole moment (field-independent basis, Debye):
    X=             -2.3714    Y=              3.1804    Z=             -3.4330  Tot=              5.2464
 Quadrupole moment (field-independent basis, Debye-Ang):
   XX=           -288.5701   YY=           -245.7466   ZZ=           -249.7724
   XY=            -41.2710   XZ=            -12.7313   YZ=             -0.0171

 Normal termination of Gaussian 16 at Sat Sep 18 22:53:23 2021.
