 Gaussian 16, Revision A.03,
 Gaussian 16:  ES64L-G16RevA.03 25-Dec-2016

 --------------------------------
 #p wB97XD/Def2SVP td=(nstates=5)
 --------------------------------

 --------------------------------
 TDDFT excited states in gaussian
 --------------------------------
 Symbolic Z-matrix:
 Charge =  0 Multiplicity = 1

                         Standard orientation:
 ---------------------------------------------------------------------
 Center     Atomic      Atomic             Coordinates (Angstroms)
 Number     Number       Type             X           Y           Z
 ---------------------------------------------------------------------
      1         12           0      -31.929187    0.053518    0.081818
      2          6           0      -28.582610   -0.660001    0.682198
      3          6           0      -30.934284    3.489443   -0.045204
      4          6           0      -34.940439    0.843303   -0.973586
      5          6           0      -32.487773   -3.376294   -0.449309
      6          7           0      -29.963253    1.233155    0.175999
      7          6           0      -28.752211    0.680394    0.527580
      8          6           0      -27.672245    1.764685    0.575061
      9          6           0      -28.528034    3.060968    0.613847
     10          6           0      -29.895401    2.598888    0.183619
     11          6           0      -28.628725    3.857806    1.973511
     12          6           0      -26.704612    1.705106   -0.618316
     13          6           0      -25.539250    2.615989   -0.545025
     14          1           0      -24.281329    2.244808   -1.419642
     15          7           0      -32.844456    1.924510   -0.461091
     16          6           0      -32.282018    3.209782   -0.418195
     17          6           0      -33.288803    4.149550   -0.826020
     18          6           0      -34.437821    3.378378   -1.237316
     19          6           0      -34.104739    1.959908   -0.865325
     20          6           0      -33.022839    5.675949   -0.941197
     21          6           0      -35.697339    4.020443   -1.827537
     22          8           0      -35.856632    5.229695   -1.846135
     23          6           0      -36.755573    3.146147   -2.383626
     24          7           0      -33.549267   -1.135077   -0.398222
     25          6           0      -34.696102   -0.551900   -0.763117
     26          6           0      -35.724760   -1.652952   -1.246129
     27          6           0      -34.961439   -3.029571   -1.148865
     28          6           0      -33.508622   -2.480598   -0.669395
     29          6           0      -37.132112   -1.655252   -0.593436
     30          6           0      -34.890560   -3.700580   -2.537290
     31          6           0      -34.841372   -5.233219   -2.520258
     32          7           0      -30.821055   -1.730131    0.095331
     33          6           0      -31.189375   -3.042202   -0.009257
     34          6           0      -30.031944   -3.877599    0.332708
     35          6           0      -29.050140   -2.992696    0.689618
     36          6           0      -29.520327   -1.716687    0.476616
     37          6           0      -30.015694   -5.407507    0.413148
     38          6           0      -27.685641   -2.895899    1.113182
     39          8           0      -26.866133   -3.733234    1.400683
     40          6           0      -27.329039   -1.372039    1.140217
     41          6           0      -27.032029   -1.006053    2.552409
     42          8           0      -27.695293   -1.253124    3.521164
     43          8           0      -25.893567   -0.181714    2.569624
     44          6           0      -25.516171    0.328339    3.857009
     45          1           0      -30.553154    4.509451    0.031293
     46          1           0      -35.976222    0.951425   -1.303492
     47          1           0      -32.644370   -4.453603   -0.536415
     48          1           0      -27.186264    1.655944    1.543702
     49          1           0      -28.276275    3.820075   -0.125918
     50          1           0      -28.374106    4.880581    1.696478
     51          1           0      -28.235398    3.383116    2.872835
     52          1           0      -29.689572    3.910431    2.217886
     53          1           0      -27.122453    2.006676   -1.579202
     54          1           0      -26.352766    0.682850   -0.757669
     55          1           0      -25.250558    2.667685    0.504777
     56          1           0      -25.864556    3.624069   -0.801443
     57          1           0      -32.963697    5.717862   -2.029252
     58          1           0      -32.039432    6.015754   -0.615688
     59          1           0      -33.707002    6.436441   -0.564351
     60          1           0      -36.224240    2.461109   -3.044303
     61          1           0      -37.415178    3.755953   -3.001218
     62          1           0      -37.185550    2.676989   -1.498348
     63          1           0      -35.920707   -1.423739   -2.293967
     64          1           0      -35.349225   -3.723693   -0.403944
     65          1           0      -37.842051   -1.266832   -1.324345
     66          1           0      -37.079641   -1.103305    0.344434
     67          1           0      -37.459231   -2.681919   -0.429092
     68          1           0      -33.993366   -3.288631   -2.998587
     69          1           0      -35.676044   -3.385328   -3.224410
     70          1           0      -35.706260   -5.509658   -3.124268
     71          1           0      -34.832904   -5.676279   -1.524324
     72          1           0      -33.960760   -5.588859   -3.055321
     73          1           0      -29.155977   -5.906834   -0.032458
     74          1           0      -30.951883   -5.665235   -0.082622
     75          1           0      -30.232319   -5.653765    1.452753
     76          1           0      -26.451024   -1.253439    0.505182
     77          1           0      -24.597078   -0.188300    4.133662
     78          1           0      -26.219181    0.260251    4.687563
     79          1           0      -25.330921    1.395670    3.739299
     80         12           0       31.892927   -0.134970   -0.369484
     81          6           0       29.357384   -1.224735    1.776576
     82          6           0       32.489184    2.455861    1.830243
     83          6           0       33.863229    1.361272   -2.721129
     84          6           0       30.737823   -2.371358   -2.747990
     85          7           0       31.066508    0.427116    1.576773
     86          6           0       30.213630   -0.278032    2.330882
     87          6           0       30.118873    0.181811    3.793057
     88          6           0       30.992567    1.494120    3.762894
     89          6           0       31.677179    1.448619    2.284936
     90          6           0       30.267801    2.831958    4.024810
     91          6           0       30.578532   -0.854715    4.818559
     92          6           0       29.917084   -0.680689    6.197790
     93          1           0       28.927740    0.472746    6.416161
     94          7           0       33.108091    1.585153   -0.421040
     95          6           0       33.277396    2.514422    0.631180
     96          6           0       34.247526    3.505530    0.210970
     97          6           0       34.619208    3.239173   -1.159513
     98          6           0       33.895541    2.011301   -1.485519
     99          6           0       34.771622    4.534089    1.174954
    100          6           0       35.696379    3.948993   -2.096641
    101          8           0       36.014637    3.536762   -3.185617
    102          6           0       36.319430    5.218884   -1.558830
    103          7           0       32.175648   -0.395101   -2.440876
    104          6           0       33.065224    0.307052   -3.200301
    105          6           0       33.136201   -0.223718   -4.679469
    106          6           0       32.195590   -1.425581   -4.609136
    107          6           0       31.673432   -1.384923   -3.185299
    108          6           0       32.906932    0.737358   -5.914774
    109          6           0       32.944310   -2.742170   -4.922702
    110          6           0       33.747516   -3.430526   -3.796899
    111          7           0       30.460025   -1.657846   -0.493898
    112          6           0       30.096824   -2.489656   -1.521198
    113          6           0       29.049154   -3.370668   -1.126818
    114          6           0       28.692284   -2.903051    0.217124
    115          6           0       29.534488   -1.899562    0.500997
    116          6           0       28.386833   -4.472092   -1.828987
    117          6           0       27.736148   -3.021745    1.309231
    118          8           0       26.840387   -3.852629    1.493775
    119          6           0       28.107177   -1.957028    2.383159
    120          6           0       26.989521   -1.059175    2.655793
    121          8           0       26.629940   -0.119888    1.953879
    122          8           0       26.255257   -1.560062    3.701396
    123          6           0       24.870671   -1.094675    3.912146
    124          1           0       32.590476    3.252024    2.571009
    125          1           0       34.623847    1.719577   -3.417886
    126          1           0       30.436068   -3.141925   -3.460414
    127          1           0       29.119519    0.542001    4.036254
    128          1           0       31.881207    1.436749    4.390470
    129          1           0       30.888555    3.234348    4.825143
    130          1           0       29.249252    2.657250    4.370596
    131          1           0       30.246829    3.438938    3.119611
    132          1           0       31.661196   -0.859686    4.938797
    133          1           0       30.336563   -1.859437    4.470992
    134          1           0       30.799744   -0.566479    6.827390
    135          1           0       29.470908   -1.609809    6.555295
    136          1           0       34.135835    4.455277    2.056881
    137          1           0       34.707050    5.519400    0.712843
    138          1           0       35.817806    4.375992    1.441147
    139          1           0       35.704484    6.119314   -1.573864
    140          1           0       37.257859    5.377043   -2.090269
    141          1           0       36.547049    4.935576   -0.531258
    142          1           0       34.183914   -0.517960   -4.736921
    143          1           0       31.410221   -1.242300   -5.341531
    144          1           0       32.210285    0.359699   -6.662281
    145          1           0       33.856546    0.845001   -6.437972
    146          1           0       32.626416    1.715709   -5.523458
    147          1           0       33.597037   -2.506652   -5.762413
    148          1           0       32.171783   -3.414244   -5.297514
    149          1           0       34.664716   -3.762451   -4.282720
    150          1           0       33.259995   -4.321036   -3.400809
    151          1           0       33.916512   -2.807411   -2.919387
    152          1           0       28.250355   -5.283066   -1.114442
    153          1           0       28.907459   -4.851570   -2.708271
    154          1           0       27.355228   -4.201112   -2.054352
    155          1           0       28.391734   -2.549816    3.252359
    156          1           0       24.586016   -0.314922    3.204851
    157          1           0       24.815598   -0.664462    4.912440
    158          1           0       24.319660   -2.023740    3.770419
 ---------------------------------------------------------------------

 SCF Done:  E(RwB97XD) =  -4070.62781597     A.U. after   19 cycles

 Excitation energies and oscillator strengths:

 Excited State   1:      Singlet-A      1.6570 eV  748.25 nm  f=0.4098  <S**2>=0.000
     310 -> 316       -0.18733
     312 -> 314        0.68179
     310 <- 316       -0.11633
 This state for optimization and/or second-order correction.
 Total Energy, E(TD-HF/TD-DFT) =  -4070.56692245
 Copying the excited state density for this state as the 1-particle RhoCI density.

 Excited State   2:      Singlet-A      1.7222 eV  719.92 nm  f=0.3962  <S**2>=0.000
     309 -> 315       -0.17625
     311 -> 313        0.68545
     309 <- 315       -0.11115

 Excited State   3:      Singlet-A      2.0777 eV  596.74 nm  f=0.1517  <S**2>=0.000
     310 -> 314        0.65642
     312 -> 316        0.23988

 Excited State   4:      Singlet-A      2.2425 eV  552.89 nm  f=0.1146  <S**2>=0.000
     309 -> 313        0.63520
     311 -> 315        0.29262

 Excited State   5:      Singlet-A      3.1037 eV  399.48 nm  f=0.0053  <S**2>=0.000
     307 -> 314        0.12858
     308 -> 314        0.67537

 The electronic state is 1-A.
 Alpha  occ. eigenvalues --  -46.96000 -46.94586 -19.30170 -19.29107 -19.25400
 Alpha  occ. eigenvalues --  -19.24953 -19.23917 -19.23758 -19.23755 -19.23524
 Alpha  occ. eigenvalues --  -14.47228 -14.46970 -14.46873 -14.46458 -14.44860
 Alpha  occ. eigenvalues --  -14.44053 -14.43649 -14.42769 -10.43331 -10.42501
 Alpha  occ. eigenvalues --  -10.40157 -10.39101 -10.38857 -10.38111 -10.36448
 Alpha  occ. eigenvalues --  -10.35713 -10.35334 -10.35191 -10.35055 -10.34948
 Alpha  occ. eigenvalues --  -10.34914 -10.34905 -10.34880 -10.34706 -10.34653
 Alpha  occ. eigenvalues --  -10.34544 -10.34374 -10.33892 -10.33790 -10.33159
 Alpha  occ. eigenvalues --  -10.32837 -10.32820 -10.32708 -10.32546 -10.32323
 Alpha  occ. eigenvalues --  -10.32288 -10.32271 -10.32269 -10.32261 -10.32241
 Alpha  occ. eigenvalues --  -10.32237 -10.32143 -10.32012 -10.31944 -10.31901
 Alpha  occ. eigenvalues --  -10.31802 -10.31765 -10.31702 -10.31689 -10.31685
 Alpha  occ. eigenvalues --  -10.31609 -10.31452 -10.31431 -10.31150 -10.30926
 Alpha  occ. eigenvalues --  -10.30917 -10.30888 -10.30872 -10.30706 -10.30635
 Alpha  occ. eigenvalues --  -10.30492 -10.30395 -10.30323 -10.30272 -10.30185
 Alpha  occ. eigenvalues --  -10.30143 -10.29980 -10.29966 -10.29869 -10.29829
 Alpha  occ. eigenvalues --  -10.29690 -10.29655 -10.29428 -10.29288 -10.28791
 Alpha  occ. eigenvalues --  -10.27925  -3.21879  -3.20548  -1.95471  -1.95003
 Alpha  occ. eigenvalues --   -1.94831  -1.94138  -1.93668  -1.93525  -1.18758
 Alpha  occ. eigenvalues --   -1.17246  -1.13796  -1.12524  -1.12376  -1.11096
 Alpha  occ. eigenvalues --   -1.11016  -1.08825  -1.06593  -1.06439  -1.05834
 Alpha  occ. eigenvalues --   -1.05731  -1.05320  -1.04863  -1.04470  -1.03052
 Alpha  occ. eigenvalues --   -0.95215  -0.94046  -0.91282  -0.91178  -0.91026
 Alpha  occ. eigenvalues --   -0.90706  -0.90638  -0.90067  -0.90014  -0.89011
 Alpha  occ. eigenvalues --   -0.88419  -0.88385  -0.88021  -0.87897  -0.87146
 Alpha  occ. eigenvalues --   -0.86116  -0.85914  -0.85319  -0.85083  -0.84521
 Alpha  occ. eigenvalues --   -0.84215  -0.83866  -0.83236  -0.82943  -0.82821
 Alpha  occ. eigenvalues --   -0.82125  -0.80086  -0.79710  -0.79261  -0.79064
 Alpha  occ. eigenvalues --   -0.79037  -0.78742  -0.78126  -0.77817  -0.77490
 Alpha  occ. eigenvalues --   -0.76955  -0.75206  -0.74413  -0.74032  -0.73063
 Alpha  occ. eigenvalues --   -0.71723  -0.71307  -0.70980  -0.70406  -0.69752
 Alpha  occ. eigenvalues --   -0.69644  -0.68757  -0.68059  -0.67988  -0.67552
 Alpha  occ. eigenvalues --   -0.66963  -0.66704  -0.66618  -0.66612  -0.66435
 Alpha  occ. eigenvalues --   -0.65723  -0.64666  -0.63386  -0.62304  -0.61871
 Alpha  occ. eigenvalues --   -0.61770  -0.61290  -0.61068  -0.61026  -0.60785
 Alpha  occ. eigenvalues --   -0.60445  -0.60271  -0.59651  -0.59562  -0.59392
 Alpha  occ. eigenvalues --   -0.58494  -0.57827  -0.57810  -0.57447  -0.57373
 Alpha  occ. eigenvalues --   -0.57108  -0.56828  -0.56602  -0.56314  -0.55943
 Alpha  occ. eigenvalues --   -0.55612  -0.55520  -0.55273  -0.55265  -0.55100
 Alpha  occ. eigenvalues --   -0.54781  -0.54607  -0.54572  -0.54240  -0.54047
 Alpha  occ. eigenvalues --   -0.53885  -0.53845  -0.53655  -0.53610  -0.53538
 Alpha  occ. eigenvalues --   -0.52805  -0.52726  -0.52647  -0.52572  -0.52297
 Alpha  occ. eigenvalues --   -0.52197  -0.52167  -0.51792  -0.51613  -0.51509
 Alpha  occ. eigenvalues --   -0.51302  -0.51240  -0.50963  -0.50961  -0.50902
 Alpha  occ. eigenvalues --   -0.50825  -0.50438  -0.50240  -0.50138  -0.50061
 Alpha  occ. eigenvalues --   -0.50022  -0.49542  -0.49478  -0.49327  -0.49080
 Alpha  occ. eigenvalues --   -0.49040  -0.48985  -0.48666  -0.48412  -0.48330
 Alpha  occ. eigenvalues --   -0.48181  -0.48077  -0.48029  -0.47778  -0.47775
 Alpha  occ. eigenvalues --   -0.47552  -0.47296  -0.47185  -0.47020  -0.46929
 Alpha  occ. eigenvalues --   -0.46636  -0.46557  -0.46230  -0.46076  -0.45874
 Alpha  occ. eigenvalues --   -0.45862  -0.45642  -0.45584  -0.45314  -0.45286
 Alpha  occ. eigenvalues --   -0.45157  -0.45142  -0.44974  -0.44877  -0.44732
 Alpha  occ. eigenvalues --   -0.44651  -0.44633  -0.44330  -0.44263  -0.44235
 Alpha  occ. eigenvalues --   -0.44087  -0.43913  -0.43818  -0.43406  -0.43399
 Alpha  occ. eigenvalues --   -0.43004  -0.42787  -0.42507  -0.42488  -0.42150
 Alpha  occ. eigenvalues --   -0.42146  -0.41810  -0.41790  -0.41597  -0.40729
 Alpha  occ. eigenvalues --   -0.40424  -0.40296  -0.40117  -0.39739  -0.39660
 Alpha  occ. eigenvalues --   -0.39590  -0.38889  -0.38767  -0.38526  -0.38040
 Alpha  occ. eigenvalues --   -0.38021  -0.37681  -0.37194  -0.36304  -0.36269
 Alpha  occ. eigenvalues --   -0.35918  -0.35733  -0.35497  -0.33987  -0.33555
 Alpha  occ. eigenvalues --   -0.33093  -0.33054  -0.32787  -0.32605  -0.32258
 Alpha  occ. eigenvalues --   -0.32121  -0.31783  -0.30829  -0.26607  -0.25414
 Alpha  occ. eigenvalues --   -0.23481  -0.23100
 Alpha virt. eigenvalues --   -0.07370  -0.07265  -0.00022   0.00627   0.02657
 Alpha virt. eigenvalues --    0.02991   0.04602   0.04830   0.05209   0.05691
 Alpha virt. eigenvalues --    0.06958   0.07455   0.07587   0.07785   0.08479

 Mulliken charges:
               1
     1  Mg   0.953582
     2  C   -0.018672
     3  C   -0.078115
     4  C   -0.102281
     5  C   -0.070820
     6  N   -0.331712
     7  C   -0.062217
     8  C    0.031447
     9  C   -0.153757
    10  C    0.038827
    11  C    0.036051
    12  C    0.038196
    13  C   -0.109492
    14  H    0.041431
    15  N   -0.434387
    16  C    0.181862
    17  C   -0.135742
    18  C   -0.120975
    19  C    0.236145
    20  C    0.062997
    21  C    0.024926
    22  O   -0.229591
    23  C    0.001947
    24  N   -0.396435
    25  C    0.068677
    26  C   -0.119375
    27  C   -0.096972
    28  C    0.094205
    29  C    0.022083
    30  C   -0.030772
    31  C   -0.043167
    32  N   -0.424986
    33  C    0.086140
    34  C   -0.233609
    35  C    0.018396
    36  C    0.142592
    37  C    0.107333
    38  C    0.094434
    39  O   -0.186543
    40  C   -0.073776
    41  C    0.260020
    42  O   -0.213123
    43  O   -0.378389
    44  C    0.124709
    45  H   -0.006347
    46  H   -0.019691
    47  H   -0.006017
    48  H    0.020825
    49  H    0.031380
    50  H    0.043438
    51  H    0.049293
    52  H    0.029114
    53  H    0.029825
    54  H    0.035469
    55  H    0.036430
    56  H    0.039788
    57  H    0.058585
    58  H    0.019593
    59  H    0.074499
    60  H    0.052430
    61  H    0.058015
    62  H    0.078994
    63  H    0.040393
    64  H    0.042182
    65  H    0.035895
    66  H    0.050036
    67  H    0.035380
    68  H    0.033119
    69  H    0.030000
    70  H    0.038265
    71  H    0.042322
    72  H    0.038974
    73  H    0.070622
    74  H    0.005427
    75  H    0.058175
    76  H    0.072898
    77  H    0.057147
    78  H    0.062233
    79  H    0.040216
    80  Mg   0.960172
    81  C   -0.000821
    82  C   -0.090024
    83  C   -0.073969
    84  C   -0.087065
    85  N   -0.357218
    86  C   -0.011278
    87  C   -0.047899
    88  C   -0.148892
    89  C    0.067662
    90  C    0.032189
    91  C    0.017171
    92  C   -0.110791
    93  H    0.046862
    94  N   -0.477808
    95  C    0.165512
    96  C   -0.178486
    97  C   -0.089943
    98  C    0.129217
    99  C    0.057228
   100  C    0.082277
   101  O   -0.208424
   102  C   -0.022506
   103  N   -0.338018
   104  C    0.039898
   105  C   -0.081616
   106  C   -0.049215
   107  C    0.051076
   108  C    0.022582
   109  C   -0.042547
   110  C   -0.033352
   111  N   -0.450045
   112  C    0.142258
   113  C   -0.165059
   114  C   -0.034690
   115  C    0.132401
   116  C    0.085495
   117  C    0.094082
   118  O   -0.220672
   119  C   -0.059021
   120  C    0.274375
   121  O   -0.254777
   122  O   -0.379431
   123  C    0.128336
   124  H    0.001330
   125  H    0.020125
   126  H   -0.015910
   127  H    0.038850
   128  H    0.031186
   129  H    0.040096
   130  H    0.043113
   131  H    0.055425
   132  H    0.031057
   133  H    0.031041
   134  H    0.040500
   135  H    0.054372
   136  H    0.029100
   137  H    0.047870
   138  H    0.067758
   139  H    0.082041
   140  H    0.053789
   141  H    0.031776
   142  H    0.039750
   143  H    0.036109
   144  H    0.039818
   145  H    0.035658
   146  H    0.050979
   147  H    0.030130
   148  H    0.031111
   149  H    0.040357
   150  H    0.037221
   151  H    0.046609
   152  H    0.052937
   153  H    0.034594
   154  H    0.057849
   155  H    0.073260
   156  H    0.066909
   157  H    0.054431
   158  H    0.073534
 Sum of Mulliken charges =  -0.00000

 Dipole moment (field-independent basis, Debye):
    X=              0.6975    Y=              2.2100    Z=              0.6706  Tot=              2.4126
 Quadrupole moment (field-independent basis, Debye-Ang):
   XX=           -157.5029   YY=           -515.2847   ZZ=           -483.5190
   XY=             34.9716   XZ=             94.7201   YZ=             38.3479

 Normal termination of Gaussian 16 at Mon Sep 20 17:40:05 2021.
