 Gaussian 16, Revision A.03,
 Gaussian 16:  ES64L-G16RevA.03 25-Dec-2016

 --------------------------------
 #p wB97XD/Def2SVP td=(nstates=5)
 --------------------------------

 --------------------------------
 TDDFT excited states in gaussian
 --------------------------------
 Symbolic Z-matrix:
 Charge =  0 Multiplicity = 1

                         Standard orientation:
 ---------------------------------------------------------------------
 Center     Atomic      Atomic             Coordinates (Angstroms)
 Number     Number       Type             X           Y           Z
 ---------------------------------------------------------------------
      1         12           0      -20.105713   -0.587525    0.001211
      2          6           0      -19.502250    2.471643   -1.469600
      3          6           0      -19.454427    1.023518    3.133025
      4          6           0      -20.315724   -3.480781    1.497249
      5          6           0      -20.378654   -2.081525   -3.106630
      6          7           0      -19.322608    1.526053    0.696918
      7          6           0      -19.390718    2.596610   -0.076496
      8          6           0      -19.437902    3.896830    0.774853
      9          6           0      -18.855999    3.351420    2.125728
     10          6           0      -19.212042    1.858748    2.037513
     11          6           0      -17.309360    3.590860    2.251460
     12          6           0      -20.925300    4.308493    0.845496
     13          6           0      -21.232459    5.655368    1.514084
     14          1           0      -20.151741    6.389077    2.282541
     15          7           0      -20.036996   -1.211450    1.983108
     16          6           0      -19.790260   -0.369179    3.121371
     17          6           0      -20.038550   -1.198251    4.292884
     18          6           0      -20.401244   -2.495904    3.814032
     19          6           0      -20.229921   -2.468356    2.362165
     20          6           0      -19.966733   -0.693301    5.782196
     21          6           0      -20.911023   -3.706288    4.664118
     22          8           0      -21.056416   -4.762102    4.111542
     23          6           0      -21.168594   -3.552554    6.127940
     24          7           0      -20.411987   -2.519595   -0.713028
     25          6           0      -20.470806   -3.594083    0.105672
     26          6           0      -20.609121   -4.917968   -0.645119
     27          6           0      -20.767180   -4.439601   -2.107043
     28          6           0      -20.497023   -2.886297   -1.968150
     29          6           0      -19.425008   -5.935658   -0.455020
     30          6           0      -22.018069   -4.851985   -2.840238
     31          6           0      -23.415185   -4.712769   -2.188890
     32          7           0      -19.968622   -0.019416   -1.930244
     33          6           0      -20.108611   -0.709775   -3.100074
     34          6           0      -20.056500    0.258365   -4.175174
     35          6           0      -19.847634    1.565888   -3.615994
     36          6           0      -19.789296    1.310209   -2.218593
     37          6           0      -20.190685   -0.091538   -5.624379
     38          6           0      -19.621758    2.947961   -3.875910
     39          8           0      -19.533039    3.612395   -4.931365
     40          6           0      -19.115339    3.514102   -2.439557
     41          6           0      -19.692894    4.923736   -2.301877
     42          8           0      -20.822673    5.212012   -2.414848
     43          8           0      -18.655581    5.781794   -2.070921
     44          6           0      -18.964588    7.098204   -1.551676
     45          1           0      -19.189764    1.505935    4.075772
     46          1           0      -20.342953   -4.478574    1.940145
     47          1           0      -20.437138   -2.493283   -4.115584
     48          1           0      -18.762335    4.663411    0.395578
     49          1           0      -19.447668    3.868588    2.881471
     50          1           0      -17.126469    4.413475    2.941707
     51          1           0      -16.924598    3.808454    1.254926
     52          1           0      -16.771869    2.745877    2.681911
     53          1           0      -21.435580    3.569505    1.462700
     54          1           0      -21.424984    4.206584   -0.117360
     55          1           0      -22.203223    5.676648    2.009834
     56          1           0      -21.502557    6.307653    0.683407
     57          1           0      -19.348641   -1.336645    6.409134
     58          1           0      -21.001685   -0.628171    6.117568
     59          1           0      -19.608198    0.336608    5.799465
     60          1           0      -21.942576   -4.301655    6.296448
     61          1           0      -21.640115   -2.601957    6.374571
     62          1           0      -20.340121   -3.480205    6.832514
     63          1           0      -21.529042   -5.360795   -0.264002
     64          1           0      -19.930766   -4.730355   -2.742593
     65          1           0      -19.320345   -6.441878   -1.414280
     66          1           0      -19.817570   -6.604207    0.311448
     67          1           0      -18.546590   -5.428415   -0.056161
     68          1           0      -21.898084   -5.934612   -2.817933
     69          1           0      -22.146455   -4.493776   -3.862211
     70          1           0      -23.999819   -5.616878   -2.024155
     71          1           0      -24.104971   -4.175762   -2.839939
     72          1           0      -23.309003   -4.236508   -1.214100
     73          1           0      -20.046003    0.843785   -6.164311
     74          1           0      -21.208058   -0.423876   -5.835114
     75          1           0      -19.571018   -0.921188   -5.963390
     76          1           0      -18.027311    3.471296   -2.493331
     77          1           0      -18.402906    7.574152   -2.355599
     78          1           0      -18.667275    7.242514   -0.512767
     79          1           0      -20.011812    7.386271   -1.647165
     80         12           0       19.674939   -0.825436    0.041331
     81          6           0       21.512564    2.149995    0.332904
     82          6           0       17.688450    0.071874    2.565257
     83          6           0       18.153700   -3.658023   -0.327314
     84          6           0       22.467817   -2.057128   -1.900691
     85          7           0       19.718563    0.888403    1.346374
     86          6           0       20.395621    2.036310    1.217093
     87          6           0       20.063675    3.013500    2.315157
     88          6           0       19.130533    2.156223    3.261246
     89          6           0       18.806246    0.984347    2.355078
     90          6           0       19.686797    1.712228    4.653005
     91          6           0       19.239620    4.268944    1.725051
     92          6           0       19.787763    5.653248    2.203579
     93          1           0       19.141900    6.877076    1.354171
     94          7           0       18.031779   -1.542043    0.793451
     95          6           0       17.282726   -1.013403    1.830862
     96          6           0       16.040353   -1.731543    1.907306
     97          6           0       16.083508   -2.883567    1.019836
     98          6           0       17.420787   -2.696596    0.337138
     99          6           0       14.993392   -1.310232    2.978151
    100          6           0       15.147875   -4.038574    0.681510
    101          8           0       15.328840   -4.903093   -0.194915
    102          6           0       13.874430   -3.984933    1.448830
    103          7           0       20.367319   -2.601931   -0.851338
    104          6           0       19.463442   -3.635229   -0.828052
    105          6           0       20.063855   -4.901130   -1.440565
    106          6           0       21.278851   -4.319950   -2.210251
    107          6           0       21.441250   -2.930549   -1.590657
    108          6           0       20.323928   -5.976562   -0.312312
    109          6           0       21.139642   -4.259094   -3.790594
    110          6           0       22.446030   -4.246506   -4.600404
    111          7           0       21.596803   -0.127058   -0.699583
    112          6           0       22.556612   -0.741788   -1.445153
    113          6           0       23.609322    0.181131   -1.806152
    114          6           0       23.171805    1.355355   -1.166466
    115          6           0       21.987201    1.110233   -0.457355
    116          6           0       24.891193    0.012148   -2.653761
    117          6           0       23.509152    2.738710   -0.978060
    118          8           0       24.316922    3.470147   -1.488057
    119          6           0       22.497384    3.262890    0.167894
    120          6           0       22.114557    4.565807   -0.382494
    121          8           0       21.239758    4.835264   -1.243986
    122          8           0       22.923729    5.450004    0.226022
    123          6           0       22.812142    6.861226   -0.145534
    124          1           0       16.978521    0.397906    3.328443
    125          1           0       17.609094   -4.585901   -0.515195
    126          1           0       23.235487   -2.451682   -2.569618
    127          1           0       20.923287    3.438305    2.834271
    128          1           0       18.155750    2.587084    3.490626
    129          1           0       19.839432    0.633511    4.619215
    130          1           0       18.896437    1.955591    5.362865
    131          1           0       20.631524    2.132126    4.996592
    132          1           0       18.161220    4.249034    1.886770
    133          1           0       19.258631    4.158946    0.640725
    134          1           0       20.870921    5.695289    2.090988
    135          1           0       19.537460    5.922134    3.229527
    136          1           0       14.334772   -0.568873    2.527805
    137          1           0       15.406119   -0.687924    3.773136
    138          1           0       14.533493   -2.106665    3.562739
    139          1           0       13.274536   -3.092946    1.271811
    140          1           0       14.226936   -4.084486    2.476166
    141          1           0       13.225538   -4.845130    1.281799
    142          1           0       19.294671   -5.286062   -2.110237
    143          1           0       22.149927   -4.950619   -2.032770
    144          1           0       21.392138   -6.064085   -0.114298
    145          1           0       20.001238   -7.003208   -0.483479
    146          1           0       19.953577   -5.739902    0.685370
    147          1           0       20.720436   -3.265829   -3.953467
    148          1           0       20.505735   -5.004750   -4.270932
    149          1           0       22.592905   -3.303507   -5.128578
    150          1           0       22.611104   -5.015488   -5.355346
    151          1           0       23.242619   -4.252571   -3.857745
    152          1           0       25.137830   -1.048497   -2.605728
    153          1           0       25.705830    0.621208   -2.259724
    154          1           0       24.619668    0.282644   -3.674103
    155          1           0       23.049699    3.434609    1.091948
    156          1           0       22.385341    7.406499    0.696079
    157          1           0       22.305335    6.997922   -1.100222
    158          1           0       23.819151    7.267526   -0.239341
 ---------------------------------------------------------------------

 SCF Done:  E(RwB97XD) =  -4070.59750606     A.U. after   19 cycles

 Excitation energies and oscillator strengths:

 Excited State   1:      Singlet-A      1.6707 eV  742.11 nm  f=0.3580  <S**2>=0.000
     309 -> 315       -0.20273
     311 -> 314        0.67787
     309 <- 315       -0.11985
 This state for optimization and/or second-order correction.
 Total Energy, E(TD-HF/TD-DFT) =  -4070.53610944
 Copying the excited state density for this state as the 1-particle RhoCI density.

 Excited State   2:      Singlet-A      1.6763 eV  739.64 nm  f=0.3920  <S**2>=0.000
     310 -> 316       -0.20152
     312 -> 313        0.67782
     310 <- 316       -0.12023

 Excited State   3:      Singlet-A      2.1629 eV  573.23 nm  f=0.0885  <S**2>=0.000
     310 -> 313        0.63315
     312 -> 316        0.30178

 Excited State   4:      Singlet-A      2.1930 eV  565.35 nm  f=0.0612  <S**2>=0.000
     309 -> 314        0.61591
     311 -> 315        0.33609

 Excited State   5:      Singlet-A      3.3461 eV  370.54 nm  f=0.0452  <S**2>=0.000
     302 -> 313       -0.24596
     302 -> 318        0.17825
     304 -> 313        0.41203
     304 -> 318       -0.24546
     304 -> 320        0.11294
     306 -> 313       -0.15543
     308 -> 313       -0.18555
     312 -> 316       -0.18184

 The electronic state is 1-A.
 Alpha  occ. eigenvalues --  -46.94626 -46.93925 -19.30085 -19.29649 -19.25208
 Alpha  occ. eigenvalues --  -19.24736 -19.24146 -19.24083 -19.24071 -19.23405
 Alpha  occ. eigenvalues --  -14.47188 -14.46340 -14.46315 -14.46302 -14.44096
 Alpha  occ. eigenvalues --  -14.43917 -14.43913 -14.43002 -10.42792 -10.42425
 Alpha  occ. eigenvalues --  -10.39993 -10.39213 -10.39158 -10.38664 -10.35763
 Alpha  occ. eigenvalues --  -10.35223 -10.35203 -10.34827 -10.34760 -10.34743
 Alpha  occ. eigenvalues --  -10.34673 -10.34646 -10.34597 -10.34457 -10.34324
 Alpha  occ. eigenvalues --  -10.34259 -10.34254 -10.34155 -10.33695 -10.33463
 Alpha  occ. eigenvalues --  -10.33392 -10.33228 -10.32973 -10.32812 -10.32797
 Alpha  occ. eigenvalues --  -10.32760 -10.32695 -10.32591 -10.32421 -10.32170
 Alpha  occ. eigenvalues --  -10.31995 -10.31887 -10.31863 -10.31818 -10.31798
 Alpha  occ. eigenvalues --  -10.31784 -10.31778 -10.31759 -10.31744 -10.31719
 Alpha  occ. eigenvalues --  -10.31686 -10.31658 -10.31635 -10.31560 -10.31338
 Alpha  occ. eigenvalues --  -10.30768 -10.30720 -10.30599 -10.30535 -10.30522
 Alpha  occ. eigenvalues --  -10.30400 -10.30361 -10.30357 -10.30266 -10.30144
 Alpha  occ. eigenvalues --  -10.30130 -10.30069 -10.29937 -10.29872 -10.29866
 Alpha  occ. eigenvalues --  -10.29732 -10.29719 -10.29189 -10.29084 -10.28943
 Alpha  occ. eigenvalues --  -10.28483  -3.20691  -3.20168  -1.94283  -1.93834
 Alpha  occ. eigenvalues --   -1.93751  -1.93651  -1.93313  -1.93159  -1.19802
 Alpha  occ. eigenvalues --   -1.18119  -1.13714  -1.13006  -1.12034  -1.11633
 Alpha  occ. eigenvalues --   -1.10306  -1.07722  -1.07237  -1.07204  -1.06316
 Alpha  occ. eigenvalues --   -1.06101  -1.05616  -1.05127  -1.04473  -1.04106
 Alpha  occ. eigenvalues --   -0.95056  -0.94696  -0.91225  -0.91061  -0.90609
 Alpha  occ. eigenvalues --   -0.90407  -0.90128  -0.89898  -0.89379  -0.89262
 Alpha  occ. eigenvalues --   -0.88936  -0.88413  -0.88217  -0.87611  -0.86456
 Alpha  occ. eigenvalues --   -0.86001  -0.85735  -0.85626  -0.84394  -0.84333
 Alpha  occ. eigenvalues --   -0.84171  -0.83670  -0.83391  -0.83235  -0.82262
 Alpha  occ. eigenvalues --   -0.82247  -0.80190  -0.79955  -0.79280  -0.79239
 Alpha  occ. eigenvalues --   -0.78830  -0.78750  -0.77853  -0.77840  -0.77454
 Alpha  occ. eigenvalues --   -0.77324  -0.74778  -0.74694  -0.74118  -0.73998
 Alpha  occ. eigenvalues --   -0.72188  -0.71227  -0.70880  -0.70719  -0.70099
 Alpha  occ. eigenvalues --   -0.69853  -0.69202  -0.68199  -0.67993  -0.67466
 Alpha  occ. eigenvalues --   -0.67172  -0.66883  -0.66876  -0.66441  -0.66296
 Alpha  occ. eigenvalues --   -0.66141  -0.64365  -0.63758  -0.62494  -0.62266
 Alpha  occ. eigenvalues --   -0.61797  -0.61643  -0.61160  -0.61148  -0.60838
 Alpha  occ. eigenvalues --   -0.60622  -0.60170  -0.59991  -0.59894  -0.59111
 Alpha  occ. eigenvalues --   -0.58326  -0.58138  -0.58118  -0.57850  -0.57650
 Alpha  occ. eigenvalues --   -0.57445  -0.57296  -0.56289  -0.56209  -0.55845
 Alpha  occ. eigenvalues --   -0.55640  -0.55480  -0.55383  -0.55180  -0.54911
 Alpha  occ. eigenvalues --   -0.54760  -0.54494  -0.54329  -0.54219  -0.54152
 Alpha  occ. eigenvalues --   -0.54016  -0.53726  -0.53526  -0.53341  -0.52981
 Alpha  occ. eigenvalues --   -0.52728  -0.52684  -0.52660  -0.52314  -0.52126
 Alpha  occ. eigenvalues --   -0.52079  -0.51951  -0.51920  -0.51635  -0.51507
 Alpha  occ. eigenvalues --   -0.51362  -0.51266  -0.51226  -0.51020  -0.50843
 Alpha  occ. eigenvalues --   -0.50766  -0.50403  -0.50193  -0.50092  -0.50088
 Alpha  occ. eigenvalues --   -0.49934  -0.49913  -0.49576  -0.49318  -0.49192
 Alpha  occ. eigenvalues --   -0.48836  -0.48815  -0.48561  -0.48481  -0.48414
 Alpha  occ. eigenvalues --   -0.48262  -0.47933  -0.47846  -0.47770  -0.47652
 Alpha  occ. eigenvalues --   -0.47550  -0.47459  -0.47181  -0.47069  -0.46957
 Alpha  occ. eigenvalues --   -0.46854  -0.46632  -0.45964  -0.45811  -0.45691
 Alpha  occ. eigenvalues --   -0.45506  -0.45418  -0.45307  -0.45218  -0.45015
 Alpha  occ. eigenvalues --   -0.44924  -0.44866  -0.44814  -0.44784  -0.44643
 Alpha  occ. eigenvalues --   -0.44596  -0.44281  -0.44164  -0.44067  -0.44029
 Alpha  occ. eigenvalues --   -0.43967  -0.43878  -0.43803  -0.43588  -0.43351
 Alpha  occ. eigenvalues --   -0.43259  -0.43154  -0.42867  -0.42710  -0.42465
 Alpha  occ. eigenvalues --   -0.42204  -0.42132  -0.41510  -0.41505  -0.41337
 Alpha  occ. eigenvalues --   -0.40727  -0.40310  -0.39872  -0.39772  -0.39578
 Alpha  occ. eigenvalues --   -0.39465  -0.39183  -0.38950  -0.38396  -0.37771
 Alpha  occ. eigenvalues --   -0.37516  -0.37223  -0.37193  -0.36157  -0.35977
 Alpha  occ. eigenvalues --   -0.35959  -0.35587  -0.34961  -0.33724  -0.33684
 Alpha  occ. eigenvalues --   -0.33506  -0.33036  -0.32622  -0.32519  -0.32466
 Alpha  occ. eigenvalues --   -0.32036  -0.31776  -0.31525  -0.26121  -0.25746
 Alpha  occ. eigenvalues --   -0.22935  -0.22919
 Alpha virt. eigenvalues --   -0.06805  -0.06790  -0.00399   0.00010   0.01748
 Alpha virt. eigenvalues --    0.02222   0.04558   0.04700   0.06089   0.06215
 Alpha virt. eigenvalues --    0.07368   0.07597   0.07984   0.08206   0.08241

 Mulliken charges:
               1
     1  Mg   0.965946
     2  C   -0.025721
     3  C   -0.077100
     4  C   -0.087966
     5  C   -0.117670
     6  N   -0.288304
     7  C   -0.035913
     8  C   -0.083969
     9  C   -0.089631
    10  C    0.019514
    11  C    0.040481
    12  C    0.000283
    13  C   -0.089340
    14  H    0.044099
    15  N   -0.478879
    16  C    0.175941
    17  C   -0.189400
    18  C   -0.081116
    19  C    0.188721
    20  C    0.062383
    21  C    0.064836
    22  O   -0.213708
    23  C   -0.007227
    24  N   -0.342010
    25  C    0.014400
    26  C   -0.099268
    27  C   -0.054352
    28  C    0.091265
    29  C    0.035506
    30  C   -0.010011
    31  C   -0.072537
    32  N   -0.486585
    33  C    0.144605
    34  C   -0.184378
    35  C   -0.031079
    36  C    0.180539
    37  C    0.067900
    38  C    0.153429
    39  O   -0.233707
    40  C   -0.147677
    41  C    0.242843
    42  O   -0.185807
    43  O   -0.368615
    44  C    0.110526
    45  H    0.003762
    46  H    0.009624
    47  H   -0.005471
    48  H    0.019501
    49  H    0.022928
    50  H    0.039810
    51  H    0.043883
    52  H    0.040325
    53  H    0.025784
    54  H    0.065897
    55  H    0.042739
    56  H    0.038150
    57  H    0.059027
    58  H    0.057781
    59  H    0.030212
    60  H    0.058161
    61  H    0.020553
    62  H    0.069216
    63  H    0.047947
    64  H    0.031242
    65  H    0.046334
    66  H    0.047898
    67  H    0.054210
    68  H    0.029225
    69  H    0.040721
    70  H    0.032788
    71  H    0.032905
    72  H    0.039550
    73  H    0.062287
    74  H    0.042971
    75  H    0.047426
    76  H    0.085718
    77  H    0.070112
    78  H    0.062590
    79  H    0.062941
    80  Mg   0.994250
    81  C    0.048612
    82  C   -0.082747
    83  C   -0.068774
    84  C   -0.108768
    85  N   -0.341391
    86  C    0.045912
    87  C   -0.121705
    88  C   -0.075749
    89  C    0.029249
    90  C    0.026877
    91  C    0.023878
    92  C   -0.140424
    93  H    0.018727
    94  N   -0.559132
    95  C    0.189580
    96  C   -0.126487
    97  C   -0.130468
    98  C    0.181205
    99  C    0.043824
   100  C    0.089138
   101  O   -0.240706
   102  C   -0.020666
   103  N   -0.364075
   104  C    0.073231
   105  C   -0.083728
   106  C   -0.059562
   107  C    0.063111
   108  C    0.017222
   109  C   -0.011415
   110  C   -0.064825
   111  N   -0.360373
   112  C    0.130669
   113  C   -0.202639
   114  C   -0.017996
   115  C    0.092195
   116  C    0.097862
   117  C    0.101683
   118  O   -0.185098
   119  C   -0.133323
   120  C    0.263587
   121  O   -0.285017
   122  O   -0.350131
   123  C    0.138298
   124  H   -0.014462
   125  H    0.026607
   126  H   -0.019302
   127  H    0.037173
   128  H    0.028898
   129  H    0.042198
   130  H    0.037563
   131  H    0.042989
   132  H    0.031557
   133  H    0.058211
   134  H    0.053310
   135  H    0.056582
   136  H    0.054086
   137  H    0.028080
   138  H    0.054133
   139  H    0.074549
   140  H    0.050166
   141  H    0.047476
   142  H    0.043291
   143  H    0.027328
   144  H    0.021179
   145  H    0.043990
   146  H    0.041011
   147  H    0.036414
   148  H    0.043313
   149  H    0.035220
   150  H    0.044645
   151  H    0.027543
   152  H    0.034201
   153  H    0.066263
   154  H    0.064456
   155  H    0.073462
   156  H    0.048545
   157  H    0.075978
   158  H    0.049435
 Sum of Mulliken charges =  -0.00000

 Dipole moment (field-independent basis, Debye):
    X=             -1.3073    Y=             -2.2657    Z=              8.7810  Tot=              9.1623
 Quadrupole moment (field-independent basis, Debye-Ang):
   XX=           -572.9400   YY=           -505.7043   ZZ=           -492.3913
   XY=            -17.0189   XZ=             -6.3842   YZ=             57.5239

 Normal termination of Gaussian 16 at Sun Sep 19 00:18:40 2021.
