 Gaussian 16, Revision A.03,
 Gaussian 16:  ES64L-G16RevA.03 25-Dec-2016

 --------------------------------
 #p wB97XD/Def2SVP td=(nstates=5)
 --------------------------------

 --------------------------------
 TDDFT excited states in gaussian
 --------------------------------
 Symbolic Z-matrix:
 Charge =  0 Multiplicity = 1

                         Standard orientation:
 ---------------------------------------------------------------------
 Center     Atomic      Atomic             Coordinates (Angstroms)
 Number     Number       Type             X           Y           Z
 ---------------------------------------------------------------------
      1         12           0       -0.641139   -0.018099   -0.414255
      2          6           0        2.832037    0.059683    0.206533
      3          6           0       -0.558227   -3.492662   -0.117232
      4          6           0       -4.021768    0.058057    0.009926
      5          6           0       -0.558532    3.553510   -0.156102
      6          7           0        0.942442   -1.489788   -0.044226
      7          6           0        2.245287   -1.236369    0.202136
      8          6           0        3.012268   -2.547245    0.572980
      9          6           0        1.959865   -3.641931    0.076171
     10          6           0        0.637854   -2.824244   -0.087440
     11          6           0        2.177062   -4.405903   -1.249681
     12          6           0        3.280302   -2.558969    2.125477
     13          6           0        4.640309   -3.193391    2.528672
     14          1           0        4.611298   -4.107846    3.820408
     15          7           0       -2.159645   -1.554606   -0.294803
     16          6           0       -1.872570   -2.892681   -0.238660
     17          6           0       -3.112142   -3.572036   -0.226860
     18          6           0       -4.164441   -2.614847   -0.119224
     19          6           0       -3.490214   -1.274917   -0.181994
     20          6           0       -3.276577   -5.073506   -0.226896
     21          6           0       -5.601935   -2.893300    0.160623
     22          8           0       -6.007538   -4.020632    0.393759
     23          6           0       -6.631427   -1.891231    0.254596
     24          7           0       -2.067071    1.632585   -0.002191
     25          6           0       -3.442024    1.357903   -0.043240
     26          6           0       -4.232083    2.628941   -0.066961
     27          6           0       -3.150621    3.771833   -0.053632
     28          6           0       -1.852941    2.982527   -0.069352
     29          6           0       -5.139146    2.629771   -1.304093
     30          6           0       -3.399864    4.868065    1.049634
     31          6           0       -3.527963    6.285350    0.579647
     32          7           0        0.833111    1.566662   -0.082756
     33          6           0        0.690288    2.932421   -0.067144
     34          6           0        2.015112    3.589373   -0.022523
     35          6           0        2.850658    2.454348    0.151944
     36          6           0        2.110536    1.294216    0.021445
     37          6           0        2.360558    5.068751    0.044467
     38          6           0        4.200898    2.080064    0.478952
     39          8           0        5.186386    2.791940    0.727759
     40          6           0        4.297377    0.555125    0.516632
     41          6           0        5.335518    0.061805   -0.407493
     42          8           0        6.254689   -0.578165   -0.043972
     43          8           0        5.027771    0.244457   -1.724653
     44          6           0        5.969885   -0.497764   -2.590124
     45          1           0       -0.558436   -4.585035   -0.107423
     46          1           0       -5.110949    0.007240    0.050812
     47          1           0       -0.340012    4.615477   -0.021700
     48          1           0        3.948846   -2.559628    0.015241
     49          1           0        1.579582   -4.306960    0.851384
     50          1           0        2.789800   -3.815448   -1.931822
     51          1           0        1.278806   -4.727281   -1.776990
     52          1           0        2.756614   -5.290034   -0.986245
     53          1           0        2.459479   -3.041999    2.656364
     54          1           0        3.269008   -1.507026    2.410929
     55          1           0        5.281703   -2.326964    2.690931
     56          1           0        4.951917   -3.691201    1.610154
     57          1           0       -4.235099   -5.455006   -0.578971
     58          1           0       -3.121310   -5.343594    0.817285
     59          1           0       -2.453553   -5.654550   -0.643020
     60          1           0       -6.677867   -1.397208   -0.716757
     61          1           0       -6.434620   -1.199168    1.073889
     62          1           0       -7.578168   -2.388937    0.464730
     63          1           0       -4.766379    2.765857    0.872885
     64          1           0       -2.941755    4.280805   -0.994859
     65          1           0       -5.237722    1.647511   -1.766844
     66          1           0       -4.753523    3.282848   -2.086964
     67          1           0       -6.173084    2.781873   -0.995781
     68          1           0       -2.553877    4.765772    1.729308
     69          1           0       -4.355111    4.768725    1.563836
     70          1           0       -2.795374    6.872792    1.132460
     71          1           0       -4.504592    6.706102    0.819667
     72          1           0       -3.474688    6.385153   -0.504510
     73          1           0        2.297697    5.470434    1.056007
     74          1           0        1.785080    5.677211   -0.654308
     75          1           0        3.425114    5.039741   -0.187537
     76          1           0        4.677520    0.236491    1.486381
     77          1           0        5.678894   -0.317956   -3.625389
     78          1           0        5.945550   -1.563189   -2.361681
     79          1           0        6.990528   -0.117092   -2.573217
 ---------------------------------------------------------------------

 SCF Done:  E(RwB97XD) =  -2035.27884423     A.U. after   20 cycles

 Excitation energies and oscillator strengths:

 Excited State   1:      Singlet-A      1.6193 eV  765.68 nm  f=0.4068  <S**2>=0.000
     155 ->158        -0.17897
     156 ->157         0.68464
     155 <-158        -0.11649
 This state for optimization and/or second-order correction.
 Total Energy, E(TD-HF/TD-DFT) =  -2035.21933735
 Copying the excited state density for this state as the 1-particle RhoCI density.

 Excited State   2:      Singlet-A      2.1452 eV  577.95 nm  f=0.1100  <S**2>=0.000
     155 ->157         0.63980
     156 ->158         0.28469

 Excited State   3:      Singlet-A      3.2206 eV  384.97 nm  f=0.0034  <S**2>=0.000
     152 ->157        -0.13559
     153 ->157         0.11645
     154 ->157         0.65579
     154 ->159         0.10339

 Excited State   4:      Singlet-A      3.3806 eV  366.75 nm  f=0.0078  <S**2>=0.000
     150 ->157        -0.10933
     151 ->157         0.55681
     151 ->159        -0.33947
     151 ->161         0.11993

 Excited State   5:      Singlet-A      3.4206 eV  362.46 nm  f=0.0467  <S**2>=0.000
     152 ->157         0.57618
     153 ->157        -0.16032
     154 ->157         0.10818
     156 ->158        -0.29875

 The electronic state is 1-A.
 Alpha  occ. eigenvalues --  -46.97174 -19.30357 -19.24864 -19.23961 -19.22320
 Alpha  occ. eigenvalues --  -14.47617 -14.47289 -14.44493 -14.43910 -10.42581
 Alpha  occ. eigenvalues --  -10.38839 -10.37418 -10.36317 -10.36024 -10.35894
 Alpha  occ. eigenvalues --  -10.35589 -10.35107 -10.35015 -10.34255 -10.33877
 Alpha  occ. eigenvalues --  -10.33535 -10.33126 -10.33122 -10.33085 -10.32771
 Alpha  occ. eigenvalues --  -10.32592 -10.32509 -10.32503 -10.32291 -10.32208
 Alpha  occ. eigenvalues --  -10.31855 -10.31585 -10.31566 -10.30986 -10.30916
 Alpha  occ. eigenvalues --  -10.30768 -10.30748 -10.30399 -10.30264 -10.29575
 Alpha  occ. eigenvalues --  -10.29546 -10.29176 -10.29142  -3.22818  -1.96411
 Alpha  occ. eigenvalues --   -1.95910  -1.95770  -1.20157  -1.11737  -1.11276
 Alpha  occ. eigenvalues --   -1.11235  -1.07189  -1.05763  -1.05454  -1.04574
 Alpha  occ. eigenvalues --   -0.94649  -0.91301  -0.90969  -0.90136  -0.89972
 Alpha  occ. eigenvalues --   -0.89008  -0.87768  -0.86797  -0.86612  -0.84646
 Alpha  occ. eigenvalues --   -0.84414  -0.82906  -0.82538  -0.80626  -0.79569
 Alpha  occ. eigenvalues --   -0.78818  -0.78427  -0.77377  -0.75171  -0.74513
 Alpha  occ. eigenvalues --   -0.71376  -0.71214  -0.69943  -0.68863  -0.68307
 Alpha  occ. eigenvalues --   -0.67667  -0.67025  -0.66667  -0.65330  -0.62106
 Alpha  occ. eigenvalues --   -0.62043  -0.61004  -0.60886  -0.60296  -0.59068
 Alpha  occ. eigenvalues --   -0.58468  -0.58042  -0.57556  -0.57094  -0.56526
 Alpha  occ. eigenvalues --   -0.55510  -0.55332  -0.55109  -0.54787  -0.54585
 Alpha  occ. eigenvalues --   -0.54225  -0.53689  -0.53451  -0.53296  -0.52839
 Alpha  occ. eigenvalues --   -0.51984  -0.51801  -0.51554  -0.51253  -0.51046
 Alpha  occ. eigenvalues --   -0.50580  -0.50338  -0.50119  -0.49475  -0.49271
 Alpha  occ. eigenvalues --   -0.48956  -0.48725  -0.48637  -0.48283  -0.48264
 Alpha  occ. eigenvalues --   -0.47695  -0.47110  -0.47051  -0.46814  -0.46651
 Alpha  occ. eigenvalues --   -0.46313  -0.46007  -0.45543  -0.45317  -0.44940
 Alpha  occ. eigenvalues --   -0.44830  -0.44564  -0.44355  -0.43712  -0.43315
 Alpha  occ. eigenvalues --   -0.42915  -0.42659  -0.42075  -0.41554  -0.41143
 Alpha  occ. eigenvalues --   -0.40600  -0.39937  -0.39673  -0.39256  -0.38951
 Alpha  occ. eigenvalues --   -0.38347  -0.36921  -0.36146  -0.35767  -0.33727
 Alpha  occ. eigenvalues --   -0.32992  -0.32621  -0.31924  -0.31343  -0.26441
 Alpha  occ. eigenvalues --   -0.23380
 Alpha virt. eigenvalues --   -0.07769  -0.00355   0.02318   0.04400   0.04536
 Alpha virt. eigenvalues --    0.07263   0.07991   0.08196   0.09104   0.10348
 Alpha virt. eigenvalues --    0.11072   0.11880   0.12447   0.12962   0.13159

 Mulliken charges:
               1
     1  Mg   0.930566
     2  C   -0.012505
     3  C   -0.078795
     4  C   -0.029751
     5  C   -0.055288
     6  N   -0.359419
     7  C   -0.011247
     8  C   -0.090383
     9  C   -0.100392
    10  C    0.079396
    11  C    0.033012
    12  C    0.011754
    13  C   -0.106973
    14  H    0.041691
    15  N   -0.446504
    16  C    0.131771
    17  C   -0.166310
    18  C   -0.071283
    19  C    0.121471
    20  C    0.092394
    21  C   -0.000477
    22  O   -0.245887
    23  C    0.011397
    24  N   -0.354270
    25  C    0.049302
    26  C   -0.068695
    27  C   -0.054131
    28  C    0.053309
    29  C    0.028783
    30  C   -0.008424
    31  C   -0.059107
    32  N   -0.368068
    33  C    0.038969
    34  C   -0.158766
    35  C   -0.038379
    36  C    0.117448
    37  C    0.062062
    38  C    0.094508
    39  O   -0.225715
    40  C   -0.017570
    41  C    0.221574
    42  O   -0.212628
    43  O   -0.366513
    44  C    0.140033
    45  H    0.006067
    46  H   -0.031082
    47  H   -0.001342
    48  H    0.037995
    49  H    0.035485
    50  H    0.032288
    51  H    0.046120
    52  H    0.040147
    53  H    0.042479
    54  H    0.036089
    55  H    0.066000
    56  H    0.053253
    57  H    0.070783
    58  H    0.039798
    59  H    0.017317
    60  H    0.051104
    61  H    0.064301
    62  H    0.052285
    63  H    0.047993
    64  H    0.037676
    65  H    0.035136
    66  H    0.041428
    67  H    0.037079
    68  H    0.041964
    69  H    0.039585
    70  H    0.042343
    71  H    0.030779
    72  H    0.032997
    73  H    0.064844
    74  H    0.051576
    75  H    0.065771
    76  H    0.062037
    77  H    0.046745
    78  H    0.053337
    79  H    0.057665
 Sum of Mulliken charges =  -0.00000

 Dipole moment (field-independent basis, Debye):
    X=             -3.1937    Y=              2.4391    Z=             -2.9445  Tot=              4.9819
 Quadrupole moment (field-independent basis, Debye-Ang):
   XX=           -288.3454   YY=           -248.3333   ZZ=           -250.2904
   XY=            -42.6350   XZ=            -11.5010   YZ=              3.9509

 Normal termination of Gaussian 16 at Sat Sep 18 22:51:04 2021.
