 Gaussian 16, Revision A.03,
 Gaussian 16:  ES64L-G16RevA.03 25-Dec-2016

 --------------------------------
 #p wB97XD/Def2SVP td=(nstates=5)
 --------------------------------

 --------------------------------
 TDDFT excited states in gaussian
 --------------------------------
 Symbolic Z-matrix:
 Charge =  0 Multiplicity = 1

                         Standard orientation:
 ---------------------------------------------------------------------
 Center     Atomic      Atomic             Coordinates (Angstroms)
 Number     Number       Type             X           Y           Z
 ---------------------------------------------------------------------
      1         12           0      -23.661304    0.610695    0.125448
      2          6           0      -21.148814   -1.508846    1.124825
      3          6           0      -25.809196   -2.216475   -0.105397
      4          6           0      -26.064105    2.458144   -1.372268
      5          6           0      -21.547184    3.212796    0.024429
      6          7           0      -23.483680   -1.617593    0.470888
      7          6           0      -22.322668   -2.224299    0.868780
      8          6           0      -22.542468   -3.716554    1.127243
      9          6           0      -24.008108   -3.910326    0.520025
     10          6           0      -24.472743   -2.504746    0.273814
     11          6           0      -24.067663   -4.866724   -0.727154
     12          6           0      -22.465232   -4.118193    2.670778
     13          6           0      -21.737821   -5.348769    3.156521
     14          1           0      -21.972028   -6.635332    2.447675
     15          7           0      -25.707878    0.217645   -0.604636
     16          6           0      -26.431537   -0.912074   -0.444175
     17          6           0      -27.794273   -0.714361   -0.809295
     18          6           0      -27.913798    0.667669   -1.159076
     19          6           0      -26.499167    1.144397   -1.115599
     20          6           0      -28.717671   -1.889558   -0.792961
     21          6           0      -29.125695    1.412802   -1.692005
     22          8           0      -29.038340    2.525549   -2.220439
     23          6           0      -30.506927    0.787450   -1.606206
     24          7           0      -23.754140    2.557330   -0.733611
     25          6           0      -24.906480    3.127242   -1.174444
     26          6           0      -24.706425    4.619670   -1.432642
     27          6           0      -23.284746    4.877332   -0.803186
     28          6           0      -22.825773    3.470847   -0.472576
     29          6           0      -24.908054    5.228203   -2.851877
     30          6           0      -23.213477    5.905075    0.402249
     31          6           0      -23.311713    5.417820    1.832381
     32          7           0      -21.741719    0.829712    0.389594
     33          6           0      -20.971253    1.961864    0.470171
     34          6           0      -19.611052    1.697765    0.769053
     35          6           0      -19.632349    0.343388    1.086980
     36          6           0      -20.950918   -0.129603    0.862829
     37          6           0      -18.377610    2.583744    0.885684
     38          6           0      -18.872383   -0.756179    1.493846
     39          8           0      -17.676696   -0.803532    1.717092
     40          6           0      -19.807760   -2.091181    1.533493
     41          6           0      -19.247414   -3.056942    0.596387
     42          8           0      -19.178643   -2.920507   -0.641207
     43          8           0      -18.729893   -4.159288    1.200420
     44          6           0      -17.862186   -5.051519    0.423399
     45          1           0      -26.392626   -3.137776   -0.055122
     46          1           0      -26.891262    3.138783   -1.583411
     47          1           0      -20.946883    4.062572    0.353838
     48          1           0      -21.737763   -4.270847    0.642535
     49          1           0      -24.672146   -4.399492    1.232875
     50          1           0      -24.733024   -5.692638   -0.477985
     51          1           0      -23.026370   -5.120361   -0.926602
     52          1           0      -24.552571   -4.450907   -1.610886
     53          1           0      -23.523385   -4.214637    2.914538
     54          1           0      -22.211841   -3.255603    3.286178
     55          1           0      -21.870209   -5.458946    4.232804
     56          1           0      -20.684968   -5.161250    2.948832
     57          1           0      -29.621502   -1.524907   -0.306248
     58          1           0      -28.324507   -2.682107   -0.155776
     59          1           0      -28.962539   -2.325150   -1.762272
     60          1           0      -30.712000    0.292390   -0.656556
     61          1           0      -30.709103    0.220061   -2.515699
     62          1           0      -31.185004    1.641083   -1.629424
     63          1           0      -25.532486    5.074025   -0.885152
     64          1           0      -22.608822    5.392174   -1.484916
     65          1           0      -23.948452    5.524358   -3.275373
     66          1           0      -25.522755    6.117841   -2.715834
     67          1           0      -25.406058    4.454568   -3.435293
     68          1           0      -24.020027    6.619707    0.244038
     69          1           0      -22.272698    6.454539    0.361774
     70          1           0      -24.077217    5.955361    2.392479
     71          1           0      -22.373846    5.491953    2.384448
     72          1           0      -23.578902    4.364435    1.747977
     73          1           0      -18.668487    3.621974    0.721248
     74          1           0      -17.634988    2.260348    0.155844
     75          1           0      -17.962500    2.466866    1.886350
     76          1           0      -19.615082   -2.427410    2.552693
     77          1           0      -17.179791   -5.646919    1.030134
     78          1           0      -17.347097   -4.590493   -0.418824
     79          1           0      -18.527464   -5.830957    0.051616
     80         12           0       23.502193    0.684591    0.053847
     81          6           0       22.823835   -2.385312   -1.539181
     82          6           0       23.372202   -1.037623    3.047458
     83          6           0       24.034590    3.604321    1.740950
     84          6           0       23.262658    2.283733   -2.888029
     85          7           0       23.169009   -1.501875    0.684096
     86          6           0       23.045784   -2.618040   -0.134557
     87          6           0       23.179252   -3.889036    0.680011
     88          6           0       22.987420   -3.399289    2.161395
     89          6           0       23.203290   -1.917700    1.949190
     90          6           0       21.622540   -3.802399    2.845398
     91          6           0       24.550625   -4.564010    0.528669
     92          6           0       24.533173   -6.096349    0.528402
     93          1           0       24.186090   -6.833836    1.851549
     94          7           0       23.768182    1.205408    2.085507
     95          6           0       23.626283    0.328081    3.105632
     96          6           0       23.727253    1.042361    4.336692
     97          6           0       24.070263    2.408922    4.050527
     98          6           0       23.913992    2.457289    2.607503
     99          6           0       23.548339    0.369321    5.669205
    100          6           0       24.359142    3.601043    4.963004
    101          8           0       24.805469    4.679880    4.514169
    102          6           0       24.051769    3.585441    6.456103
    103          7           0       23.717611    2.622958   -0.502338
    104          6           0       23.863202    3.706013    0.359286
    105          6           0       23.849942    4.968521   -0.439915
    106          6           0       23.673892    4.620612   -1.961830
    107          6           0       23.585744    3.091701   -1.828223
    108          6           0       22.898833    6.075394    0.106651
    109          6           0       24.831746    5.059656   -2.884200
    110          6           0       24.578586    6.405442   -3.590758
    111          7           0       23.089157    0.150126   -1.804835
    112          6           0       23.075721    0.885095   -2.989469
    113          6           0       22.842269    0.022444   -4.206480
    114          6           0       22.712639   -1.244232   -3.614142
    115          6           0       22.918447   -1.136003   -2.201212
    116          6           0       22.775438    0.483321   -5.651098
    117          6           0       22.470966   -2.636666   -3.960684
    118          8           0       22.236447   -3.170354   -5.045686
    119          6           0       22.663297   -3.433963   -2.601372
    120          6           0       21.400284   -4.306425   -2.462112
    121          8           0       20.262768   -3.976837   -2.727840
    122          8           0       21.791506   -5.604019   -2.137725
    123          6           0       20.661138   -6.520649   -1.987717
    124          1           0       23.403848   -1.624643    3.967502
    125          1           0       24.211830    4.590380    2.174859
    126          1           0       23.078959    2.890155   -3.776999
    127          1           0       22.414833   -4.639321    0.479428
    128          1           0       23.723985   -3.783980    2.866843
    129          1           0       20.986741   -4.473277    2.266942
    130          1           0       20.938010   -2.988998    3.084827
    131          1           0       21.802446   -4.358064    3.765724
    132          1           0       25.237081   -4.247424    1.313603
    133          1           0       25.001713   -4.309339   -0.430582
    134          1           0       25.460967   -6.513619    0.137260
    135          1           0       23.823476   -6.483027   -0.202681
    136          1           0       22.619147   -0.179730    5.516004
    137          1           0       23.386414    1.003623    6.540603
    138          1           0       24.327460   -0.347218    5.928283
    139          1           0       23.032541    3.244825    6.639219
    140          1           0       24.206121    4.629646    6.727581
    141          1           0       24.715360    2.902694    6.986753
    142          1           0       24.792319    5.476099   -0.231793
    143          1           0       22.733497    4.948598   -2.406628
    144          1           0       22.366153    5.660494    0.962620
    145          1           0       22.171082    6.324922   -0.665035
    146          1           0       23.574044    6.880737    0.397742
    147          1           0       25.056573    4.220343   -3.541936
    148          1           0       25.724981    5.289009   -2.302729
    149          1           0       23.861199    6.993394   -3.017910
    150          1           0       24.113345    6.360304   -4.575623
    151          1           0       25.517006    6.960667   -3.599385
    152          1           0       23.791375    0.736734   -5.954517
    153          1           0       22.170810    1.371143   -5.835233
    154          1           0       22.403589   -0.372193   -6.214724
    155          1           0       23.542524   -4.075959   -2.550897
    156          1           0       20.249955   -6.579121   -0.979492
    157          1           0       21.061135   -7.478954   -2.318714
    158          1           0       19.753048   -6.344102   -2.564153
 ---------------------------------------------------------------------

 SCF Done:  E(RwB97XD) =  -4070.66097832     A.U. after   19 cycles

 Excitation energies and oscillator strengths:

 Excited State   1:      Singlet-A      1.6477 eV  752.48 nm  f=0.3730  <S**2>=0.000
     309 -> 315       -0.19180
     312 -> 314        0.68144
     309 <- 315       -0.11859
 This state for optimization and/or second-order correction.
 Total Energy, E(TD-HF/TD-DFT) =  -4070.60042709
 Copying the excited state density for this state as the 1-particle RhoCI density.

 Excited State   2:      Singlet-A      1.6606 eV  746.64 nm  f=0.4163  <S**2>=0.000
     310 -> 316       -0.18409
     311 -> 313        0.68432
     310 <- 316       -0.11635

 Excited State   3:      Singlet-A      2.1344 eV  580.89 nm  f=0.1698  <S**2>=0.000
     310 -> 313        0.66025
     311 -> 316        0.24165

 Excited State   4:      Singlet-A      2.1798 eV  568.78 nm  f=0.0975  <S**2>=0.000
     309 -> 314        0.63418
     312 -> 315        0.30016

 Excited State   5:      Singlet-A      3.4329 eV  361.17 nm  f=0.1148  <S**2>=0.000
     305 -> 314        0.16719
     308 -> 314        0.56601
     309 -> 314        0.11112
     312 -> 315       -0.34294

 The electronic state is 1-A.
 Alpha  occ. eigenvalues --  -46.95442 -46.93969 -19.30958 -19.30275 -19.25313
 Alpha  occ. eigenvalues --  -19.24248 -19.24112 -19.23926 -19.23647 -19.23473
 Alpha  occ. eigenvalues --  -14.47265 -14.46708 -14.46116 -14.45859 -14.44469
 Alpha  occ. eigenvalues --  -14.44159 -14.44087 -14.44077 -10.43513 -10.42773
 Alpha  occ. eigenvalues --  -10.39840 -10.39356 -10.39073 -10.38531 -10.35431
 Alpha  occ. eigenvalues --  -10.35355 -10.35200 -10.35079 -10.34895 -10.34882
 Alpha  occ. eigenvalues --  -10.34810 -10.34774 -10.34401 -10.34294 -10.34260
 Alpha  occ. eigenvalues --  -10.34146 -10.34124 -10.34117 -10.33885 -10.33634
 Alpha  occ. eigenvalues --  -10.33171 -10.33061 -10.32991 -10.32899 -10.32865
 Alpha  occ. eigenvalues --  -10.32815 -10.32676 -10.32566 -10.32529 -10.32524
 Alpha  occ. eigenvalues --  -10.32523 -10.32415 -10.32314 -10.32113 -10.32088
 Alpha  occ. eigenvalues --  -10.32044 -10.31876 -10.31778 -10.31667 -10.31597
 Alpha  occ. eigenvalues --  -10.31544 -10.31353 -10.31283 -10.31205 -10.31143
 Alpha  occ. eigenvalues --  -10.31001 -10.30858 -10.30809 -10.30646 -10.30456
 Alpha  occ. eigenvalues --  -10.30296 -10.30286 -10.30237 -10.30225 -10.30150
 Alpha  occ. eigenvalues --  -10.30060 -10.30013 -10.29953 -10.29924 -10.29697
 Alpha  occ. eigenvalues --  -10.29563 -10.29505 -10.29351 -10.29239 -10.28838
 Alpha  occ. eigenvalues --  -10.28637  -3.21494  -3.20162  -1.95067  -1.94580
 Alpha  occ. eigenvalues --   -1.94509  -1.93757  -1.93267  -1.93180  -1.18437
 Alpha  occ. eigenvalues --   -1.18023  -1.12121  -1.11691  -1.11425  -1.11145
 Alpha  occ. eigenvalues --   -1.10353  -1.08018  -1.07397  -1.06703  -1.06693
 Alpha  occ. eigenvalues --   -1.06159  -1.05722  -1.05505  -1.05054  -1.03426
 Alpha  occ. eigenvalues --   -0.94584  -0.94518  -0.91274  -0.90948  -0.90896
 Alpha  occ. eigenvalues --   -0.90191  -0.90105  -0.90057  -0.89722  -0.89378
 Alpha  occ. eigenvalues --   -0.89366  -0.88968  -0.88367  -0.88063  -0.86304
 Alpha  occ. eigenvalues --   -0.86214  -0.85654  -0.85415  -0.84564  -0.84194
 Alpha  occ. eigenvalues --   -0.83771  -0.83648  -0.83108  -0.82896  -0.82276
 Alpha  occ. eigenvalues --   -0.82024  -0.80412  -0.80353  -0.79402  -0.79363
 Alpha  occ. eigenvalues --   -0.79176  -0.79030  -0.78159  -0.78066  -0.77427
 Alpha  occ. eigenvalues --   -0.76981  -0.75531  -0.74653  -0.73612  -0.73521
 Alpha  occ. eigenvalues --   -0.71545  -0.71330  -0.71209  -0.70716  -0.70140
 Alpha  occ. eigenvalues --   -0.70091  -0.69306  -0.69122  -0.67701  -0.67554
 Alpha  occ. eigenvalues --   -0.67424  -0.67104  -0.66723  -0.66467  -0.66202
 Alpha  occ. eigenvalues --   -0.66141  -0.64532  -0.64231  -0.62342  -0.62200
 Alpha  occ. eigenvalues --   -0.62130  -0.61802  -0.61059  -0.60919  -0.60455
 Alpha  occ. eigenvalues --   -0.60269  -0.59875  -0.59681  -0.59476  -0.59274
 Alpha  occ. eigenvalues --   -0.58234  -0.58015  -0.57439  -0.57327  -0.57063
 Alpha  occ. eigenvalues --   -0.56995  -0.56773  -0.56515  -0.55985  -0.55734
 Alpha  occ. eigenvalues --   -0.55407  -0.55223  -0.55088  -0.55066  -0.54801
 Alpha  occ. eigenvalues --   -0.54741  -0.54490  -0.54480  -0.54166  -0.54097
 Alpha  occ. eigenvalues --   -0.54013  -0.53758  -0.53677  -0.53395  -0.53144
 Alpha  occ. eigenvalues --   -0.52681  -0.52522  -0.52372  -0.52189  -0.52176
 Alpha  occ. eigenvalues --   -0.51978  -0.51796  -0.51704  -0.51458  -0.51247
 Alpha  occ. eigenvalues --   -0.51159  -0.51004  -0.50992  -0.50828  -0.50726
 Alpha  occ. eigenvalues --   -0.50667  -0.50498  -0.50382  -0.50170  -0.50164
 Alpha  occ. eigenvalues --   -0.49985  -0.49772  -0.49561  -0.49497  -0.49306
 Alpha  occ. eigenvalues --   -0.49091  -0.48794  -0.48754  -0.48573  -0.48433
 Alpha  occ. eigenvalues --   -0.48421  -0.48193  -0.48090  -0.47881  -0.47812
 Alpha  occ. eigenvalues --   -0.47798  -0.47432  -0.47229  -0.46951  -0.46817
 Alpha  occ. eigenvalues --   -0.46567  -0.46451  -0.46441  -0.46275  -0.46240
 Alpha  occ. eigenvalues --   -0.45855  -0.45826  -0.45550  -0.45499  -0.45351
 Alpha  occ. eigenvalues --   -0.45286  -0.45163  -0.45119  -0.44939  -0.44922
 Alpha  occ. eigenvalues --   -0.44614  -0.44280  -0.44181  -0.43903  -0.43837
 Alpha  occ. eigenvalues --   -0.43787  -0.43712  -0.43504  -0.43450  -0.43225
 Alpha  occ. eigenvalues --   -0.43093  -0.43028  -0.42955  -0.42489  -0.42380
 Alpha  occ. eigenvalues --   -0.42142  -0.41919  -0.41751  -0.41581  -0.41450
 Alpha  occ. eigenvalues --   -0.40582  -0.40406  -0.40219  -0.40144  -0.39841
 Alpha  occ. eigenvalues --   -0.39274  -0.39271  -0.38830  -0.38698  -0.38655
 Alpha  occ. eigenvalues --   -0.38038  -0.37671  -0.37132  -0.36934  -0.36543
 Alpha  occ. eigenvalues --   -0.35414  -0.35076  -0.35075  -0.33532  -0.33486
 Alpha  occ. eigenvalues --   -0.33243  -0.33136  -0.33026  -0.32919  -0.32662
 Alpha  occ. eigenvalues --   -0.32444  -0.32251  -0.32186  -0.25854  -0.25741
 Alpha  occ. eigenvalues --   -0.23269  -0.22868
 Alpha virt. eigenvalues --   -0.07455  -0.06897   0.00156   0.00732   0.02063
 Alpha virt. eigenvalues --    0.02317   0.03868   0.04563   0.04945   0.06798
 Alpha virt. eigenvalues --    0.06878   0.07133   0.07441   0.08346   0.08560

 Mulliken charges:
               1
     1  Mg   0.974784
     2  C   -0.004426
     3  C   -0.064963
     4  C   -0.065453
     5  C   -0.074825
     6  N   -0.330705
     7  C    0.000619
     8  C   -0.084366
     9  C   -0.117812
    10  C    0.051633
    11  C    0.025241
    12  C    0.010909
    13  C   -0.102349
    14  H    0.032754
    15  N   -0.356621
    16  C    0.129102
    17  C   -0.163768
    18  C   -0.075568
    19  C    0.100001
    20  C    0.082224
    21  C    0.043352
    22  O   -0.246921
    23  C   -0.017151
    24  N   -0.351546
    25  C    0.050183
    26  C   -0.080533
    27  C   -0.041486
    28  C    0.061431
    29  C    0.035299
    30  C   -0.058001
    31  C   -0.043060
    32  N   -0.478723
    33  C    0.099442
    34  C   -0.189117
    35  C    0.040984
    36  C    0.138154
    37  C    0.096938
    38  C    0.037782
    39  O   -0.207902
    40  C   -0.055902
    41  C    0.260083
    42  O   -0.281247
    43  O   -0.359737
    44  C    0.146639
    45  H   -0.010903
    46  H    0.017298
    47  H   -0.000440
    48  H    0.049043
    49  H    0.042610
    50  H    0.031649
    51  H    0.050439
    52  H    0.040586
    53  H    0.012369
    54  H    0.032257
    55  H    0.055988
    56  H    0.054338
    57  H    0.030602
    58  H    0.036822
    59  H    0.063570
    60  H    0.053831
    61  H    0.071519
    62  H    0.050419
    63  H    0.036328
    64  H    0.036895
    65  H    0.036536
    66  H    0.040346
    67  H    0.051429
    68  H    0.029682
    69  H    0.029351
    70  H    0.038437
    71  H    0.037285
    72  H    0.035902
    73  H    0.026404
    74  H    0.066853
    75  H    0.060952
    76  H    0.060669
    77  H    0.053408
    78  H    0.075515
    79  H    0.036635
    80  Mg   1.001575
    81  C   -0.065005
    82  C   -0.110771
    83  C   -0.083547
    84  C   -0.100714
    85  N   -0.307754
    86  C    0.022404
    87  C   -0.031722
    88  C   -0.097771
    89  C    0.019068
    90  C    0.007946
    91  C    0.023205
    92  C   -0.123377
    93  H    0.016989
    94  N   -0.427933
    95  C    0.224096
    96  C   -0.180411
    97  C   -0.042843
    98  C    0.127627
    99  C    0.061801
   100  C    0.049246
   101  O   -0.257586
   102  C   -0.023885
   103  N   -0.456844
   104  C    0.108975
   105  C   -0.100340
   106  C   -0.055424
   107  C    0.059375
   108  C    0.015912
   109  C    0.000262
   110  C   -0.055618
   111  N   -0.483491
   112  C    0.140221
   113  C   -0.167121
   114  C   -0.071835
   115  C    0.183027
   116  C    0.080904
   117  C    0.161361
   118  O   -0.208551
   119  C   -0.105884
   120  C    0.266281
   121  O   -0.223737
   122  O   -0.369660
   123  C    0.126343
   124  H   -0.009042
   125  H    0.016356
   126  H   -0.010452
   127  H    0.030648
   128  H    0.039899
   129  H    0.034313
   130  H    0.041884
   131  H    0.034268
   132  H    0.040658
   133  H    0.036915
   134  H    0.048512
   135  H    0.050350
   136  H    0.046156
   137  H    0.026881
   138  H    0.058694
   139  H    0.061423
   140  H    0.063748
   141  H    0.063647
   142  H    0.042753
   143  H    0.042953
   144  H    0.043695
   145  H    0.034137
   146  H    0.043568
   147  H    0.037023
   148  H    0.028004
   149  H    0.024579
   150  H    0.041189
   151  H    0.040892
   152  H    0.050525
   153  H    0.047781
   154  H    0.066182
   155  H    0.072877
   156  H    0.043216
   157  H    0.055684
   158  H    0.065289
 Sum of Mulliken charges =  -0.00000

 Dipole moment (field-independent basis, Debye):
    X=             -2.6086    Y=             -1.6028    Z=              6.8015  Tot=              7.4588
 Quadrupole moment (field-independent basis, Debye-Ang):
   XX=           -325.1647   YY=           -462.5410   ZZ=           -515.6070
   XY=             24.3205   XZ=             10.8375   YZ=            -32.3972

 Normal termination of Gaussian 16 at Mon Sep 20 21:27:30 2021.
