 Gaussian 16, Revision A.03,
 Gaussian 16:  ES64L-G16RevA.03 25-Dec-2016

 --------------------------------
 #p wB97XD/Def2SVP td=(nstates=5)
 --------------------------------

 --------------------------------
 TDDFT excited states in gaussian
 --------------------------------
 Symbolic Z-matrix:
 Charge =  0 Multiplicity = 1

                         Standard orientation:
 ---------------------------------------------------------------------
 Center     Atomic      Atomic             Coordinates (Angstroms)
 Number     Number       Type             X           Y           Z
 ---------------------------------------------------------------------
      1         12           0      -28.731015    0.370957    0.419940
      2          6           0      -26.870840   -2.122211   -1.066609
      3          6           0      -27.909302    2.391155   -2.421095
      4          6           0      -30.170302    2.923095    1.858066
      5          6           0      -29.163648   -1.572559    3.248505
      6          7           0      -27.312201    0.174545   -1.454324
      7          6           0      -26.887863   -0.995162   -1.902232
      8          6           0      -26.553031   -0.922772   -3.418886
      9          6           0      -26.378790    0.628017   -3.579010
     10          6           0      -27.247215    1.159039   -2.427286
     11          6           0      -24.879760    1.078125   -3.454318
     12          6           0      -27.780611   -1.502358   -4.156408
     13          6           0      -27.646436   -1.680765   -5.674827
     14          1           0      -26.471075   -1.072180   -6.413038
     15          7           0      -29.133951    2.328901   -0.151043
     16          6           0      -28.731331    2.944021   -1.386141
     17          6           0      -29.405640    4.234373   -1.427993
     18          6           0      -30.161712    4.347265   -0.219540
     19          6           0      -29.820687    3.183139    0.596879
     20          6           0      -29.330531    5.248538   -2.629663
     21          6           0      -31.179460    5.475114    0.154220
     22          8           0      -31.637217    5.476567    1.264030
     23          6           0      -31.534524    6.537274   -0.834972
     24          7           0      -29.641118    0.607487    2.278057
     25          6           0      -30.189301    1.778814    2.672702
     26          6           0      -30.715831    1.745770    4.106984
     27          6           0      -30.510891    0.260962    4.486966
     28          6           0      -29.705299   -0.282480    3.237678
     29          6           0      -30.022473    2.739266    5.110066
     30          6           0      -31.728755   -0.521855    4.906920
     31          6           0      -33.042809   -0.464265    4.091128
     32          7           0      -28.164972   -1.457482    1.059052
     33          6           0      -28.409384   -2.139245    2.216702
     34          6           0      -27.876081   -3.474254    2.045849
     35          6           0      -27.267732   -3.571080    0.747212
     36          6           0      -27.474744   -2.275254    0.199959
     37          6           0      -27.956251   -4.547502    3.086207
     38          6           0      -26.518631   -4.376416   -0.157765
     39          8           0      -26.065980   -5.539831   -0.087757
     40          6           0      -26.014029   -3.305967   -1.271139
     41          6           0      -26.042704   -4.034152   -2.615951
     42          8           0      -26.964292   -4.600726   -3.065324
     43          8           0      -24.797449   -3.942600   -3.169647
     44          6           0      -24.658429   -4.230704   -4.582340
     45          1           0      -27.599641    3.020892   -3.257209
     46          1           0      -30.616305    3.756218    2.405311
     47          1           0      -29.249300   -2.229404    4.115783
     48          1           0      -25.602290   -1.400474   -3.655061
     49          1           0      -26.823382    0.831778   -4.553434
     50          1           0      -24.489880    1.312707   -4.444040
     51          1           0      -24.326109    0.264037   -2.986128
     52          1           0      -24.747352    1.996188   -2.881772
     53          1           0      -28.597154   -0.791655   -4.031556
     54          1           0      -28.164120   -2.399599   -3.671596
     55          1           0      -28.592465   -1.569124   -6.205079
     56          1           0      -27.555792   -2.759008   -5.807596
     57          1           0      -29.072834    6.257335   -2.305777
     58          1           0      -30.300446    5.187464   -3.122995
     59          1           0      -28.622100    4.879615   -3.372346
     60          1           0      -32.544427    6.802909   -0.521717
     61          1           0      -31.647804    6.149136   -1.846561
     62          1           0      -30.828085    7.332513   -1.072806
     63          1           0      -31.772579    1.998359    4.022822
     64          1           0      -29.771476    0.121799    5.275604
     65          1           0      -29.998512    2.216999    6.066128
     66          1           0      -30.722296    3.575043    5.126145
     67          1           0      -29.073121    3.089424    4.704946
     68          1           0      -32.020262    0.047191    5.789067
     69          1           0      -31.593202   -1.576466    5.149092
     70          1           0      -33.934918   -0.071728    4.577341
     71          1           0      -33.402954   -1.463767    3.847535
     72          1           0      -32.885321    0.147801    3.202935
     73          1           0      -27.413472   -5.396324    2.671258
     74          1           0      -28.991563   -4.866421    3.213971
     75          1           0      -27.650783   -4.249317    4.088708
     76          1           0      -25.020495   -3.006600   -0.936777
     77          1           0      -23.869316   -4.955601   -4.382012
     78          1           0      -24.454875   -3.350843   -5.193048
     79          1           0      -25.506078   -4.758158   -5.020589
     80         12           0       28.774114    0.616578   -0.466280
     81          6           0       27.515314   -2.530101    0.711873
     82          6           0       25.771439    2.003977    0.882400
     83          6           0       30.091106    3.707305   -0.508699
     84          6           0       31.808005   -0.873385   -0.987651
     85          7           0       26.933157   -0.198435    0.676133
     86          6           0       26.632257   -1.486326    1.011210
     87          6           0       25.246896   -1.592211    1.739287
     88          6           0       24.603474   -0.168545    1.378766
     89          6           0       25.861553    0.611543    1.031924
     90          6           0       23.650395   -0.184000    0.205710
     91          6           0       25.360907   -1.990131    3.201576
     92          6           0       24.369482   -3.057812    3.732761
     93          1           0       23.078774   -2.633185    4.576338
     94          7           0       27.995429    2.665988    0.023126
     95          6           0       26.696362    2.980471    0.473762
     96          6           0       26.569747    4.440373    0.561862
     97          6           0       27.845844    4.952868    0.100689
     98          6           0       28.718579    3.810227   -0.063112
     99          6           0       25.404006    5.209212    1.059211
    100          6           0       28.154595    6.407204   -0.152397
    101          8           0       27.240231    7.199549   -0.115565
    102          6           0       29.531726    6.946426   -0.463527
    103          7           0       30.655876    1.237396   -0.592189
    104          6           0       30.912752    2.596542   -0.748787
    105          6           0       32.416206    2.752328   -0.988896
    106          6           0       32.897328    1.299125   -1.348982
    107          6           0       31.689780    0.498808   -0.994307
    108          6           0       32.899191    3.873724   -1.980355
    109          6           0       34.226904    0.787058   -0.714729
    110          6           0       35.293018    0.284174   -1.632595
    111          7           0       29.524461   -1.285920   -0.331644
    112          6           0       30.776531   -1.781031   -0.651931
    113          6           0       30.769821   -3.256692   -0.658023
    114          6           0       29.489251   -3.559938   -0.051948
    115          6           0       28.825980   -2.340956    0.118960
    116          6           0       31.836354   -4.233430   -1.078307
    117          6           0       28.623986   -4.696588    0.380896
    118          8           0       28.851715   -5.871344    0.438681
    119          6           0       27.390261   -4.032046    0.983131
    120          6           0       26.183996   -4.598106    0.295215
    121          8           0       26.021206   -4.367349   -0.883720
    122          8           0       25.257408   -5.294803    1.127734
    123          6           0       23.957710   -5.682509    0.500235
    124          1           0       24.844712    2.461662    1.235213
    125          1           0       30.664132    4.632576   -0.588731
    126          1           0       32.733955   -1.322741   -1.351735
    127          1           0       24.575073   -2.284511    1.232680
    128          1           0       24.173517    0.308549    2.259379
    129          1           0       24.236600   -0.164618   -0.712744
    130          1           0       22.984819    0.670986    0.323677
    131          1           0       22.999951   -1.048280    0.067402
    132          1           0       25.156624   -1.085960    3.774194
    133          1           0       26.410940   -2.196156    3.408977
    134          1           0       25.004118   -3.691846    4.352371
    135          1           0       23.962120   -3.697107    2.949429
    136          1           0       24.850152    5.524780    0.175555
    137          1           0       25.754693    6.139037    1.507138
    138          1           0       24.710111    4.758971    1.770077
    139          1           0       29.608346    8.032652   -0.507800
    140          1           0       29.779741    6.554595   -1.450040
    141          1           0       30.378239    6.633526    0.146587
    142          1           0       32.750423    3.126252   -0.020691
    143          1           0       32.902127    1.205205   -2.434508
    144          1           0       32.088226    4.175739   -2.643637
    145          1           0       33.783395    3.545120   -2.526225
    146          1           0       33.246389    4.743344   -1.422827
    147          1           0       33.992280   -0.002255   -0.000635
    148          1           0       34.599732    1.584166   -0.071655
    149          1           0       35.343987   -0.801844   -1.557567
    150          1           0       36.258789    0.684017   -1.323841
    151          1           0       35.191026    0.506438   -2.694588
    152          1           0       31.406038   -5.207939   -1.308179
    153          1           0       32.541128   -4.294520   -0.248579
    154          1           0       32.397323   -3.780755   -1.896129
    155          1           0       27.441053   -4.170336    2.063235
    156          1           0       24.106931   -6.576489   -0.105508
    157          1           0       23.610446   -4.909127   -0.184556
    158          1           0       23.192556   -5.839283    1.260295
 ---------------------------------------------------------------------

 SCF Done:  E(RwB97XD) =  -4070.60491300     A.U. after   19 cycles

 Excitation energies and oscillator strengths:

 Excited State   1:      Singlet-A      1.6114 eV  769.43 nm  f=0.3976  <S**2>=0.000
     309 -> 316        0.17520
     311 -> 313        0.68623
     309 <- 316        0.11590
 This state for optimization and/or second-order correction.
 Total Energy, E(TD-HF/TD-DFT) =  -4070.54569592
 Copying the excited state density for this state as the 1-particle RhoCI density.

 Excited State   2:      Singlet-A      1.6762 eV  739.67 nm  f=0.3736  <S**2>=0.000
     310 -> 315       -0.20179
     312 -> 314        0.67875
     310 <- 315       -0.12040

 Excited State   3:      Singlet-A      2.1629 eV  573.24 nm  f=0.0894  <S**2>=0.000
     310 -> 314        0.63323
     312 -> 315        0.30173

 Excited State   4:      Singlet-A      2.1827 eV  568.04 nm  f=0.1247  <S**2>=0.000
     309 -> 313        0.63924
     311 -> 316       -0.28433

 Excited State   5:      Singlet-A      3.1515 eV  393.41 nm  f=0.0019  <S**2>=0.000
     306 -> 313       -0.12246
     308 -> 313        0.66849
     311 -> 316        0.10228

 The electronic state is 1-A.
 Alpha  occ. eigenvalues --  -46.95670 -46.94610 -19.30514 -19.29638 -19.25681
 Alpha  occ. eigenvalues --  -19.25198 -19.24795 -19.24135 -19.24070 -19.22974
 Alpha  occ. eigenvalues --  -14.47404 -14.46329 -14.46293 -14.46271 -14.43947
 Alpha  occ. eigenvalues --  -14.43904 -14.43900 -14.43749 -10.44117 -10.42781
 Alpha  occ. eigenvalues --  -10.39446 -10.39201 -10.39147 -10.38453 -10.36039
 Alpha  occ. eigenvalues --  -10.35426 -10.35337 -10.35213 -10.34747 -10.34706
 Alpha  occ. eigenvalues --  -10.34634 -10.34586 -10.34486 -10.34445 -10.34312
 Alpha  occ. eigenvalues --  -10.34307 -10.34289 -10.33683 -10.33509 -10.33379
 Alpha  occ. eigenvalues --  -10.33230 -10.33120 -10.32962 -10.32905 -10.32855
 Alpha  occ. eigenvalues --  -10.32800 -10.32792 -10.32748 -10.32701 -10.32579
 Alpha  occ. eigenvalues --  -10.32158 -10.32096 -10.32066 -10.31850 -10.31832
 Alpha  occ. eigenvalues --  -10.31807 -10.31772 -10.31732 -10.31706 -10.31633
 Alpha  occ. eigenvalues --  -10.31624 -10.31545 -10.31299 -10.31047 -10.30856
 Alpha  occ. eigenvalues --  -10.30707 -10.30607 -10.30587 -10.30523 -10.30496
 Alpha  occ. eigenvalues --  -10.30396 -10.30391 -10.30365 -10.30295 -10.30132
 Alpha  occ. eigenvalues --  -10.30115 -10.30055 -10.29909 -10.29854 -10.29745
 Alpha  occ. eigenvalues --  -10.29710 -10.29630 -10.29543 -10.29281 -10.29075
 Alpha  occ. eigenvalues --  -10.28931  -3.21703  -3.20676  -1.95235  -1.94826
 Alpha  occ. eigenvalues --   -1.94674  -1.94268  -1.93818  -1.93636  -1.19792
 Alpha  occ. eigenvalues --   -1.17532  -1.13997  -1.13701  -1.12404  -1.12024
 Alpha  occ. eigenvalues --   -1.10295  -1.10102  -1.07225  -1.06583  -1.06090
 Alpha  occ. eigenvalues --   -1.05596  -1.05114  -1.04806  -1.04094  -1.03541
 Alpha  occ. eigenvalues --   -0.95045  -0.94759  -0.91269  -0.91214  -0.90765
 Alpha  occ. eigenvalues --   -0.90597  -0.90395  -0.90351  -0.89535  -0.89250
 Alpha  occ. eigenvalues --   -0.88402  -0.88177  -0.87598  -0.87591  -0.86404
 Alpha  occ. eigenvalues --   -0.85989  -0.85856  -0.85614  -0.84410  -0.84322
 Alpha  occ. eigenvalues --   -0.83742  -0.83657  -0.83380  -0.82498  -0.82250
 Alpha  occ. eigenvalues --   -0.82178  -0.80089  -0.79942  -0.79439  -0.79269
 Alpha  occ. eigenvalues --   -0.78748  -0.78738  -0.78260  -0.77828  -0.77443
 Alpha  occ. eigenvalues --   -0.77169  -0.74683  -0.74649  -0.73986  -0.73756
 Alpha  occ. eigenvalues --   -0.72177  -0.71447  -0.70900  -0.70868  -0.70086
 Alpha  occ. eigenvalues --   -0.69920  -0.68689  -0.68187  -0.67860  -0.67160
 Alpha  occ. eigenvalues --   -0.67066  -0.66865  -0.66556  -0.66324  -0.66285
 Alpha  occ. eigenvalues --   -0.66129  -0.64354  -0.64347  -0.62482  -0.61806
 Alpha  occ. eigenvalues --   -0.61631  -0.61507  -0.61196  -0.61148  -0.61046
 Alpha  occ. eigenvalues --   -0.60826  -0.60331  -0.60159  -0.59882  -0.59636
 Alpha  occ. eigenvalues --   -0.58500  -0.58126  -0.58106  -0.57638  -0.57605
 Alpha  occ. eigenvalues --   -0.57425  -0.57285  -0.56236  -0.56198  -0.55834
 Alpha  occ. eigenvalues --   -0.55629  -0.55467  -0.55313  -0.55059  -0.54899
 Alpha  occ. eigenvalues --   -0.54845  -0.54316  -0.54206  -0.54170  -0.54005
 Alpha  occ. eigenvalues --   -0.53770  -0.53715  -0.53674  -0.53240  -0.53031
 Alpha  occ. eigenvalues --   -0.52840  -0.52717  -0.52649  -0.52344  -0.52067
 Alpha  occ. eigenvalues --   -0.51908  -0.51869  -0.51812  -0.51678  -0.51622
 Alpha  occ. eigenvalues --   -0.51496  -0.51254  -0.51244  -0.51214  -0.51017
 Alpha  occ. eigenvalues --   -0.50755  -0.50649  -0.50530  -0.50181  -0.50095
 Alpha  occ. eigenvalues --   -0.50080  -0.49901  -0.49605  -0.49564  -0.49011
 Alpha  occ. eigenvalues --   -0.48935  -0.48824  -0.48549  -0.48469  -0.48373
 Alpha  occ. eigenvalues --   -0.48342  -0.48133  -0.47986  -0.47922  -0.47904
 Alpha  occ. eigenvalues --   -0.47758  -0.47753  -0.47540  -0.47201  -0.47170
 Alpha  occ. eigenvalues --   -0.46945  -0.46905  -0.46621  -0.46599  -0.45798
 Alpha  occ. eigenvalues --   -0.45721  -0.45568  -0.45403  -0.45293  -0.45246
 Alpha  occ. eigenvalues --   -0.45206  -0.44913  -0.44855  -0.44818  -0.44631
 Alpha  occ. eigenvalues --   -0.44553  -0.44487  -0.44395  -0.44270  -0.44055
 Alpha  occ. eigenvalues --   -0.43954  -0.43836  -0.43792  -0.43577  -0.43554
 Alpha  occ. eigenvalues --   -0.43339  -0.43022  -0.42855  -0.42731  -0.42472
 Alpha  occ. eigenvalues --   -0.42155  -0.42119  -0.41498  -0.41327  -0.41186
 Alpha  occ. eigenvalues --   -0.40417  -0.40300  -0.39859  -0.39653  -0.39566
 Alpha  occ. eigenvalues --   -0.39354  -0.39171  -0.39159  -0.38612  -0.38385
 Alpha  occ. eigenvalues --   -0.37766  -0.37760  -0.37182  -0.36997  -0.36392
 Alpha  occ. eigenvalues --   -0.35948  -0.35575  -0.35459  -0.33672  -0.33634
 Alpha  occ. eigenvalues --   -0.33322  -0.33024  -0.32508  -0.32401  -0.32025
 Alpha  occ. eigenvalues --   -0.31863  -0.31512  -0.30916  -0.26227  -0.25734
 Alpha  occ. eigenvalues --   -0.22921  -0.22907
 Alpha virt. eigenvalues --   -0.07343  -0.06793   0.00022   0.00433   0.02234
 Alpha virt. eigenvalues --    0.02718   0.04233   0.04712   0.04820   0.06100
 Alpha virt. eigenvalues --    0.06513   0.06919   0.07977   0.07996   0.08219

 Mulliken charges:
               1
     1  Mg   0.965958
     2  C   -0.025563
     3  C   -0.077092
     4  C   -0.088083
     5  C   -0.117685
     6  N   -0.288258
     7  C   -0.036002
     8  C   -0.084375
     9  C   -0.089529
    10  C    0.019534
    11  C    0.040456
    12  C    0.000414
    13  C   -0.089321
    14  H    0.044108
    15  N   -0.478790
    16  C    0.175976
    17  C   -0.189407
    18  C   -0.081165
    19  C    0.188865
    20  C    0.062555
    21  C    0.064864
    22  O   -0.213697
    23  C   -0.007206
    24  N   -0.342170
    25  C    0.014420
    26  C   -0.099293
    27  C   -0.054340
    28  C    0.091266
    29  C    0.035520
    30  C   -0.009984
    31  C   -0.072549
    32  N   -0.486438
    33  C    0.144397
    34  C   -0.184368
    35  C   -0.031088
    36  C    0.180411
    37  C    0.067873
    38  C    0.153413
    39  O   -0.233754
    40  C   -0.147653
    41  C    0.242992
    42  O   -0.185812
    43  O   -0.368667
    44  C    0.110511
    45  H    0.003783
    46  H    0.009634
    47  H   -0.005492
    48  H    0.019596
    49  H    0.022939
    50  H    0.039838
    51  H    0.043874
    52  H    0.040362
    53  H    0.025766
    54  H    0.065904
    55  H    0.042723
    56  H    0.038130
    57  H    0.059036
    58  H    0.057741
    59  H    0.030192
    60  H    0.058161
    61  H    0.020544
    62  H    0.069234
    63  H    0.047953
    64  H    0.031233
    65  H    0.046319
    66  H    0.047906
    67  H    0.054223
    68  H    0.029215
    69  H    0.040700
    70  H    0.032781
    71  H    0.032893
    72  H    0.039564
    73  H    0.062278
    74  H    0.042954
    75  H    0.047407
    76  H    0.085724
    77  H    0.070102
    78  H    0.062614
    79  H    0.062924
    80  Mg   0.981337
    81  C   -0.076456
    82  C   -0.054082
    83  C   -0.080000
    84  C   -0.124250
    85  N   -0.312939
    86  C   -0.015810
    87  C   -0.066142
    88  C   -0.119747
    89  C    0.049031
    90  C    0.041514
    91  C    0.037410
    92  C   -0.107635
    93  H    0.023543
    94  N   -0.419555
    95  C    0.112369
    96  C   -0.143884
    97  C   -0.073607
    98  C    0.168577
    99  C    0.081242
   100  C    0.035402
   101  O   -0.234909
   102  C   -0.011969
   103  N   -0.451628
   104  C    0.092046
   105  C   -0.128642
   106  C   -0.033748
   107  C    0.088954
   108  C    0.013868
   109  C    0.001050
   110  C   -0.047273
   111  N   -0.442182
   112  C    0.135278
   113  C   -0.189478
   114  C   -0.106329
   115  C    0.178284
   116  C    0.090757
   117  C    0.132714
   118  O   -0.174060
   119  C   -0.015150
   120  C    0.278363
   121  O   -0.234434
   122  O   -0.404984
   123  C    0.133355
   124  H   -0.006117
   125  H   -0.037502
   126  H   -0.011872
   127  H    0.025644
   128  H    0.028725
   129  H    0.043266
   130  H    0.042623
   131  H    0.036720
   132  H    0.037360
   133  H    0.040603
   134  H    0.055486
   135  H    0.048135
   136  H    0.055499
   137  H    0.053836
   138  H    0.036855
   139  H    0.051226
   140  H    0.050073
   141  H    0.057912
   142  H    0.051510
   143  H    0.033587
   144  H    0.044821
   145  H    0.038337
   146  H    0.031044
   147  H    0.038636
   148  H    0.025379
   149  H    0.036253
   150  H    0.036907
   151  H    0.035848
   152  H    0.071585
   153  H    0.053874
   154  H    0.034431
   155  H    0.072718
   156  H    0.063801
   157  H    0.051494
   158  H    0.065100
 Sum of Mulliken charges =  -0.00000

 Dipole moment (field-independent basis, Debye):
    X=              0.8859    Y=              4.7640    Z=             -2.1292  Tot=              5.2928
 Quadrupole moment (field-independent basis, Debye-Ang):
   XX=           -338.3648   YY=           -581.6003   ZZ=           -474.5846
   XY=            -58.1698   XZ=              4.9072   YZ=            -19.6089

 Normal termination of Gaussian 16 at Sun Sep 19 00:20:40 2021.
