 Gaussian 16, Revision A.03,
 Gaussian 16:  ES64L-G16RevA.03 25-Dec-2016

 --------------------------------
 #p wB97XD/Def2SVP td=(nstates=5)
 --------------------------------

 --------------------------------
 TDDFT excited states in gaussian
 --------------------------------
 Symbolic Z-matrix:
 Charge =  0 Multiplicity = 1

                         Standard orientation:
 ---------------------------------------------------------------------
 Center     Atomic      Atomic             Coordinates (Angstroms)
 Number     Number       Type             X           Y           Z
 ---------------------------------------------------------------------
      1         12           0      -27.059674    0.159841   -0.251163
      2          6           0      -23.651949   -0.056153    0.701457
      3          6           0      -26.261144   -1.581641   -3.054235
      4          6           0      -30.390925   -0.334009   -0.718351
      5          6           0      -27.748297    1.454084    2.889454
      6          7           0      -25.129458   -0.815428   -0.906665
      7          6           0      -23.840568   -0.712590   -0.454703
      8          6           0      -22.873318   -1.353467   -1.379177
      9          6           0      -23.720144   -1.528448   -2.726378
     10          6           0      -25.106664   -1.317811   -2.221399
     11          6           0      -23.291342   -0.539235   -3.798092
     12          6           0      -22.364241   -2.631002   -0.693343
     13          6           0      -20.794624   -2.807579   -0.541564
     14          1           0      -20.066055   -4.075062   -1.081360
     15          7           0      -28.225991   -0.765186   -1.677551
     16          6           0      -27.678326   -1.359845   -2.822742
     17          6           0      -28.759840   -1.681528   -3.704670
     18          6           0      -30.000913   -1.365779   -3.055313
     19          6           0      -29.563492   -0.724163   -1.786640
     20          6           0      -28.492429   -2.250014   -5.092369
     21          6           0      -31.414194   -1.582315   -3.548270
     22          8           0      -31.472895   -2.002647   -4.740056
     23          6           0      -32.749102   -1.459763   -2.760353
     24          7           0      -28.866223    0.515826    0.918315
     25          6           0      -30.118986    0.253245    0.485250
     26          6           0      -31.212014    0.597435    1.531453
     27          6           0      -30.353634    1.280070    2.651662
     28          6           0      -28.862640    1.015618    2.132145
     29          6           0      -32.253105    1.505874    0.902318
     30          6           0      -30.541365    0.727503    4.031588
     31          6           0      -31.209474    1.682014    4.983672
     32          7           0      -26.013754    0.776667    1.372865
     33          6           0      -26.374569    1.346299    2.600504
     34          6           0      -25.283316    1.805804    3.296273
     35          6           0      -24.180646    1.310680    2.570607
     36          6           0      -24.680485    0.631148    1.462084
     37          6           0      -25.376297    2.747050    4.478542
     38          6           0      -22.694937    1.325389    2.507421
     39          8           0      -21.913829    1.857225    3.233714
     40          6           0      -22.381813    0.346681    1.313118
     41          6           0      -21.231566    0.951215    0.537804
     42          8           0      -20.067156    0.555240    0.590699
     43          8           0      -21.695586    1.999399   -0.293608
     44          6           0      -20.643096    2.533491   -1.157462
     45          1           0      -25.992161   -1.939048   -4.050663
     46          1           0      -31.471799   -0.381441   -0.870370
     47          1           0      -27.895850    1.647863    3.953340
     48          1           0      -22.028873   -0.683538   -1.541565
     49          1           0      -23.546675   -2.534657   -3.106958
     50          1           0      -23.033439    0.441129   -3.399859
     51          1           0      -24.144653   -0.352093   -4.450819
     52          1           0      -22.495172   -0.908627   -4.444398
     53          1           0      -22.754298   -3.474749   -1.262410
     54          1           0      -22.814370   -2.817008    0.281793
     55          1           0      -20.712077   -2.802023    0.545601
     56          1           0      -20.275779   -1.887943   -0.809489
     57          1           0      -27.814845   -3.102408   -5.043088
     58          1           0      -27.995138   -1.457513   -5.651475
     59          1           0      -29.338534   -2.673621   -5.635188
     60          1           0      -32.838224   -0.387121   -2.591293
     61          1           0      -32.646350   -1.999154   -1.818687
     62          1           0      -33.596057   -1.880498   -3.302992
     63          1           0      -31.750643   -0.269378    1.913520
     64          1           0      -30.463667    2.362721    2.595085
     65          1           0      -32.577838    1.040549   -0.028492
     66          1           0      -31.781608    2.466389    0.692005
     67          1           0      -33.112476    1.823539    1.491589
     68          1           0      -29.606897    0.472616    4.531497
     69          1           0      -31.100704   -0.204092    4.115167
     70          1           0      -32.073301    1.175650    5.412602
     71          1           0      -31.624657    2.556791    4.483183
     72          1           0      -30.548947    2.081330    5.754054
     73          1           0      -24.383828    3.184480    4.591672
     74          1           0      -25.653729    2.231223    5.397502
     75          1           0      -26.140693    3.470292    4.195303
     76          1           0      -21.918330   -0.493961    1.830749
     77          1           0      -21.072497    2.956258   -2.065848
     78          1           0      -20.014323    1.738527   -1.555918
     79          1           0      -19.998528    3.252854   -0.651590
     80         12           0       26.216769   -0.768444    0.079173
     81          6           0       26.890247    2.380727   -1.224299
     82          6           0       23.386329    0.647787    1.497825
     83          6           0       25.805554   -3.685962    1.777771
     84          6           0       29.175557   -1.930887   -1.281046
     85          7           0       25.284858    1.298534    0.170615
     86          6           0       25.711998    2.449634   -0.473693
     87          6           0       24.837568    3.723926   -0.149004
     88          6           0       23.922276    3.136730    0.994289
     89          6           0       24.225955    1.594476    0.930417
     90          6           0       24.063324    3.613458    2.442854
     91          6           0       24.114916    4.230282   -1.410752
     92          6           0       24.622283    5.507823   -2.026076
     93          1           0       23.567553    6.458099   -2.620287
     94          7           0       24.720064   -1.533360    1.293013
     95          6           0       23.638913   -0.796548    1.664357
     96          6           0       22.840318   -1.682080    2.534111
     97          6           0       23.540772   -2.884172    2.719928
     98          6           0       24.711218   -2.778966    1.938374
     99          6           0       21.482232   -1.299490    2.963776
    100          6           0       23.213375   -4.072266    3.576189
    101          8           0       23.882002   -5.142984    3.565564
    102          6           0       22.135829   -4.106459    4.514373
    103          7           0       27.256769   -2.536504    0.164124
    104          6           0       26.885869   -3.613506    0.909138
    105          6           0       27.821982   -4.753020    0.809870
    106          6           0       28.887843   -4.233790   -0.220745
    107          6           0       28.451020   -2.828576   -0.400679
    108          6           0       28.510135   -5.402797    2.046303
    109          6           0       29.047319   -5.118716   -1.554128
    110          6           0       28.129912   -4.949932   -2.801532
    111          7           0       27.769496   -0.000273   -0.988178
    112          6           0       28.885387   -0.592253   -1.505947
    113          6           0       29.539747    0.287937   -2.372140
    114          6           0       28.799714    1.520752   -2.200978
    115          6           0       27.723949    1.270359   -1.372592
    116          6           0       30.735892    0.001036   -3.277877
    117          6           0       28.718809    2.856154   -2.719287
    118          8           0       29.311662    3.474326   -3.579945
    119          6           0       27.573003    3.543507   -1.896911
    120          6           0       28.151597    4.500989   -0.933524
    121          8           0       28.141472    4.399116    0.312981
    122          8           0       28.763688    5.564065   -1.499456
    123          6           0       29.181625    6.725049   -0.641702
    124          1           0       22.533043    1.114172    1.993375
    125          1           0       25.749990   -4.630892    2.322609
    126          1           0       30.025185   -2.266495   -1.880173
    127          1           0       25.388301    4.461776    0.435349
    128          1           0       22.898500    3.301599    0.658572
    129          1           0       24.484793    2.819943    3.060399
    130          1           0       23.049542    3.698367    2.831399
    131          1           0       24.634971    4.531592    2.582651
    132          1           0       23.095702    4.441865   -1.085311
    133          1           0       24.061853    3.407623   -2.123855
    134          1           0       25.304846    5.232735   -2.830581
    135          1           0       25.237429    6.131145   -1.376951
    136          1           0       20.829874   -2.052422    2.523367
    137          1           0       21.094989   -0.310902    2.713765
    138          1           0       21.408650   -1.375570    4.048595
    139          1           0       22.183898   -3.152248    5.038380
    140          1           0       22.142449   -5.038338    5.078282
    141          1           0       21.172430   -4.041578    4.008588
    142          1           0       27.153788   -5.483612    0.354897
    143          1           0       29.861111   -4.179597    0.265595
    144          1           0       28.177079   -6.427950    2.208522
    145          1           0       28.262254   -4.865904    2.962572
    146          1           0       29.598758   -5.373157    2.001664
    147          1           0       28.850859   -6.123929   -1.180625
    148          1           0       30.109942   -4.981480   -1.754941
    149          1           0       27.467644   -4.084820   -2.781151
    150          1           0       27.604453   -5.845430   -3.134526
    151          1           0       28.838443   -4.817441   -3.618116
    152          1           0       31.568755    0.676274   -3.078902
    153          1           0       30.426025    0.205288   -4.302621
    154          1           0       31.067566   -1.037608   -3.275885
    155          1           0       27.027286    4.191645   -2.582845
    156          1           0       29.341168    7.434362   -1.453933
    157          1           0       30.071696    6.555954   -0.036556
    158          1           0       28.363784    7.003236    0.023738
 ---------------------------------------------------------------------

 SCF Done:  E(RwB97XD) =  -4070.61214689     A.U. after   20 cycles

 Excitation energies and oscillator strengths:

 Excited State   1:      Singlet-A      1.6249 eV  763.05 nm  f=0.3604  <S**2>=0.000
     309 -> 315        0.17974
     311 -> 313        0.68476
     309 <- 315        0.11750
 This state for optimization and/or second-order correction.
 Total Energy, E(TD-HF/TD-DFT) =  -4070.55243465
 Copying the excited state density for this state as the 1-particle RhoCI density.

 Excited State   2:      Singlet-A      1.6445 eV  753.94 nm  f=0.3865  <S**2>=0.000
     310 -> 316        0.18303
     312 -> 314        0.68254
     310 <- 316        0.11718

 Excited State   3:      Singlet-A      2.1515 eV  576.26 nm  f=0.1384  <S**2>=0.000
     310 -> 314        0.64864
     312 -> 316       -0.26453

 Excited State   4:      Singlet-A      2.1635 eV  573.08 nm  f=0.1550  <S**2>=0.000
     309 -> 313        0.64645
     311 -> 315       -0.27025

 Excited State   5:      Singlet-A      3.2313 eV  383.70 nm  f=0.0021  <S**2>=0.000
     304 -> 313        0.25081
     304 -> 317       -0.10061
     306 -> 313        0.63470

 The electronic state is 1-A.
 Alpha  occ. eigenvalues --  -46.95390 -46.93863 -19.30890 -19.29250 -19.25997
 Alpha  occ. eigenvalues --  -19.24911 -19.23392 -19.23258 -19.23180 -19.22984
 Alpha  occ. eigenvalues --  -14.47018 -14.46851 -14.46594 -14.46434 -14.44727
 Alpha  occ. eigenvalues --  -14.44140 -14.43644 -14.42937 -10.44280 -10.42344
 Alpha  occ. eigenvalues --  -10.39705 -10.39521 -10.38454 -10.38171 -10.36090
 Alpha  occ. eigenvalues --  -10.35738 -10.35434 -10.35150 -10.34988 -10.34915
 Alpha  occ. eigenvalues --  -10.34780 -10.34766 -10.34741 -10.34656 -10.34583
 Alpha  occ. eigenvalues --  -10.34473 -10.34119 -10.34069 -10.33093 -10.32897
 Alpha  occ. eigenvalues --  -10.32863 -10.32738 -10.32618 -10.32610 -10.32523
 Alpha  occ. eigenvalues --  -10.32497 -10.32471 -10.32458 -10.32397 -10.32300
 Alpha  occ. eigenvalues --  -10.32256 -10.32205 -10.32063 -10.31889 -10.31868
 Alpha  occ. eigenvalues --  -10.31849 -10.31696 -10.31595 -10.31424 -10.31405
 Alpha  occ. eigenvalues --  -10.31339 -10.31313 -10.31283 -10.31116 -10.31108
 Alpha  occ. eigenvalues --  -10.31075 -10.30959 -10.30841 -10.30821 -10.30798
 Alpha  occ. eigenvalues --  -10.30783 -10.30760 -10.30490 -10.30402 -10.30207
 Alpha  occ. eigenvalues --  -10.30181 -10.29942 -10.29901 -10.29835 -10.29767
 Alpha  occ. eigenvalues --  -10.29521 -10.29498 -10.29345 -10.29162 -10.29032
 Alpha  occ. eigenvalues --  -10.28641  -3.21396  -3.19991  -1.94965  -1.94524
 Alpha  occ. eigenvalues --   -1.94370  -1.93596  -1.93124  -1.92969  -1.17785
 Alpha  occ. eigenvalues --   -1.17274  -1.14311  -1.11746  -1.10202  -1.10133
 Alpha  occ. eigenvalues --   -1.09883  -1.07288  -1.07243  -1.06867  -1.06326
 Alpha  occ. eigenvalues --   -1.06101  -1.05426  -1.05236  -1.04837  -1.04268
 Alpha  occ. eigenvalues --   -0.95320  -0.95054  -0.91809  -0.91290  -0.90982
 Alpha  occ. eigenvalues --   -0.90871  -0.90318  -0.90188  -0.89828  -0.89521
 Alpha  occ. eigenvalues --   -0.88998  -0.88915  -0.88031  -0.87940  -0.86806
 Alpha  occ. eigenvalues --   -0.86265  -0.86235  -0.85548  -0.84715  -0.84598
 Alpha  occ. eigenvalues --   -0.84328  -0.83897  -0.82911  -0.82694  -0.82484
 Alpha  occ. eigenvalues --   -0.82481  -0.80507  -0.79804  -0.79409  -0.79408
 Alpha  occ. eigenvalues --   -0.78858  -0.78760  -0.78456  -0.78117  -0.77495
 Alpha  occ. eigenvalues --   -0.77217  -0.75555  -0.75074  -0.74245  -0.73300
 Alpha  occ. eigenvalues --   -0.72008  -0.71409  -0.70951  -0.70708  -0.69951
 Alpha  occ. eigenvalues --   -0.69697  -0.69286  -0.69089  -0.68274  -0.67706
 Alpha  occ. eigenvalues --   -0.67412  -0.67119  -0.67004  -0.66978  -0.66608
 Alpha  occ. eigenvalues --   -0.66353  -0.65146  -0.63460  -0.62560  -0.62100
 Alpha  occ. eigenvalues --   -0.61941  -0.61639  -0.61591  -0.61128  -0.61001
 Alpha  occ. eigenvalues --   -0.60573  -0.60118  -0.59709  -0.59274  -0.58856
 Alpha  occ. eigenvalues --   -0.58262  -0.58135  -0.57821  -0.57663  -0.57541
 Alpha  occ. eigenvalues --   -0.56888  -0.56857  -0.56350  -0.56329  -0.55868
 Alpha  occ. eigenvalues --   -0.55756  -0.55555  -0.55201  -0.55173  -0.54824
 Alpha  occ. eigenvalues --   -0.54666  -0.54436  -0.54362  -0.54274  -0.54040
 Alpha  occ. eigenvalues --   -0.53947  -0.53793  -0.53706  -0.53081  -0.52989
 Alpha  occ. eigenvalues --   -0.52852  -0.52779  -0.52502  -0.52280  -0.52277
 Alpha  occ. eigenvalues --   -0.52076  -0.52030  -0.51862  -0.51699  -0.51636
 Alpha  occ. eigenvalues --   -0.51552  -0.51351  -0.50894  -0.50886  -0.50701
 Alpha  occ. eigenvalues --   -0.50598  -0.50344  -0.50299  -0.50078  -0.49967
 Alpha  occ. eigenvalues --   -0.49817  -0.49704  -0.49689  -0.49194  -0.49157
 Alpha  occ. eigenvalues --   -0.48877  -0.48680  -0.48585  -0.48458  -0.48444
 Alpha  occ. eigenvalues --   -0.48146  -0.47988  -0.47905  -0.47867  -0.47723
 Alpha  occ. eigenvalues --   -0.47593  -0.47471  -0.47290  -0.47286  -0.47168
 Alpha  occ. eigenvalues --   -0.47162  -0.47073  -0.46850  -0.46686  -0.46159
 Alpha  occ. eigenvalues --   -0.46020  -0.45921  -0.45882  -0.45804  -0.45687
 Alpha  occ. eigenvalues --   -0.45683  -0.45335  -0.45235  -0.44822  -0.44675
 Alpha  occ. eigenvalues --   -0.44661  -0.44456  -0.44406  -0.44381  -0.44354
 Alpha  occ. eigenvalues --   -0.44015  -0.43688  -0.43507  -0.43505  -0.43443
 Alpha  occ. eigenvalues --   -0.43396  -0.43070  -0.43018  -0.42674  -0.42220
 Alpha  occ. eigenvalues --   -0.42071  -0.41993  -0.41578  -0.40997  -0.40812
 Alpha  occ. eigenvalues --   -0.40713  -0.40187  -0.40119  -0.39794  -0.39781
 Alpha  occ. eigenvalues --   -0.39531  -0.39304  -0.38833  -0.38525  -0.38408
 Alpha  occ. eigenvalues --   -0.38373  -0.37593  -0.37413  -0.36715  -0.36290
 Alpha  occ. eigenvalues --   -0.35511  -0.35434  -0.34743  -0.34014  -0.33199
 Alpha  occ. eigenvalues --   -0.33151  -0.32583  -0.32531  -0.32198  -0.32143
 Alpha  occ. eigenvalues --   -0.31988  -0.31913  -0.31473  -0.26356  -0.25539
 Alpha  occ. eigenvalues --   -0.23494  -0.22901
 Alpha virt. eigenvalues --   -0.07726  -0.07031   0.00047   0.00625   0.02285
 Alpha virt. eigenvalues --    0.02766   0.04404   0.04475   0.04969   0.06243
 Alpha virt. eigenvalues --    0.06647   0.07409   0.07506   0.08101   0.08124

 Mulliken charges:
               1
     1  Mg   0.972108
     2  C    0.037885
     3  C   -0.077635
     4  C   -0.047497
     5  C   -0.092912
     6  N   -0.359293
     7  C   -0.051981
     8  C   -0.053851
     9  C   -0.081889
    10  C    0.068562
    11  C    0.030572
    12  C    0.005081
    13  C   -0.116260
    14  H    0.047939
    15  N   -0.473376
    16  C    0.150802
    17  C   -0.148748
    18  C   -0.063315
    19  C    0.180260
    20  C    0.070580
    21  C    0.021676
    22  O   -0.276249
    23  C    0.023553
    24  N   -0.303560
    25  C    0.005237
    26  C   -0.045772
    27  C   -0.064856
    28  C    0.055337
    29  C    0.009318
    30  C   -0.003046
    31  C   -0.061491
    32  N   -0.466571
    33  C    0.108621
    34  C   -0.190728
    35  C   -0.079758
    36  C    0.147731
    37  C    0.086701
    38  C    0.122365
    39  O   -0.159464
    40  C   -0.057642
    41  C    0.245640
    42  O   -0.241475
    43  O   -0.390707
    44  C    0.140076
    45  H    0.005743
    46  H   -0.060372
    47  H    0.006922
    48  H    0.035235
    49  H    0.038498
    50  H    0.038024
    51  H    0.024531
    52  H    0.047534
    53  H    0.031365
    54  H    0.047674
    55  H    0.050615
    56  H    0.054810
    57  H    0.034250
    58  H    0.046779
    59  H    0.065081
    60  H    0.062899
    61  H    0.064267
    62  H    0.063566
    63  H    0.043498
    64  H    0.043087
    65  H    0.033498
    66  H    0.024400
    67  H    0.040211
    68  H    0.031013
    69  H    0.026678
    70  H    0.031358
    71  H    0.020876
    72  H    0.039952
    73  H    0.062286
    74  H    0.052058
    75  H    0.046493
    76  H    0.069843
    77  H    0.047275
    78  H    0.043955
    79  H    0.064128
    80  Mg   0.984081
    81  C   -0.026494
    82  C   -0.065144
    83  C   -0.072385
    84  C   -0.099293
    85  N   -0.335733
    86  C   -0.019304
    87  C   -0.045999
    88  C   -0.130644
    89  C    0.025692
    90  C    0.037430
    91  C    0.055300
    92  C   -0.144157
    93  H    0.038416
    94  N   -0.481705
    95  C    0.183417
    96  C   -0.191546
    97  C   -0.022568
    98  C    0.131859
    99  C    0.056619
   100  C    0.038466
   101  O   -0.281140
   102  C    0.024637
   103  N   -0.375269
   104  C    0.076318
   105  C   -0.094260
   106  C   -0.054979
   107  C    0.063687
   108  C    0.027615
   109  C   -0.032314
   110  C   -0.043679
   111  N   -0.453023
   112  C    0.130675
   113  C   -0.169563
   114  C   -0.056292
   115  C    0.216144
   116  C    0.092240
   117  C    0.091538
   118  O   -0.190097
   119  C   -0.123860
   120  C    0.263197
   121  O   -0.290794
   122  O   -0.356969
   123  C    0.146670
   124  H   -0.009008
   125  H    0.021593
   126  H   -0.013553
   127  H    0.038415
   128  H    0.026785
   129  H    0.047599
   130  H    0.032144
   131  H    0.052284
   132  H    0.035811
   133  H    0.047021
   134  H    0.065132
   135  H    0.052649
   136  H    0.057364
   137  H    0.043353
   138  H    0.035752
   139  H    0.042624
   140  H    0.066639
   141  H    0.043731
   142  H    0.047295
   143  H    0.036181
   144  H    0.044663
   145  H    0.039211
   146  H    0.036224
   147  H    0.035237
   148  H    0.040147
   149  H    0.056352
   150  H    0.040414
   151  H    0.028962
   152  H    0.060700
   153  H    0.053768
   154  H    0.024481
   155  H    0.056512
   156  H    0.066028
   157  H    0.067017
   158  H    0.053681
 Sum of Mulliken charges =  -0.00000

 Dipole moment (field-independent basis, Debye):
    X=             -6.3994    Y=              1.0813    Z=              0.8225  Tot=              6.5420
 Quadrupole moment (field-independent basis, Debye-Ang):
   XX=           -445.3964   YY=           -499.6937   ZZ=           -526.4544
   XY=            -71.7384   XZ=             -8.6131   YZ=             12.9186

 Normal termination of Gaussian 16 at Sun Sep 19 18:17:55 2021.
