 Gaussian 16, Revision A.03,
 Gaussian 16:  ES64L-G16RevA.03 25-Dec-2016

 --------------------------------
 #p wB97XD/Def2SVP td=(nstates=5)
 --------------------------------

 --------------------------------
 TDDFT excited states in gaussian
 --------------------------------
 Symbolic Z-matrix:
 Charge =  0 Multiplicity = 1

                         Standard orientation:
 ---------------------------------------------------------------------
 Center     Atomic      Atomic             Coordinates (Angstroms)
 Number     Number       Type             X           Y           Z
 ---------------------------------------------------------------------
      1         12           0       16.529157   -0.568476    0.266566
      2          6           0       15.531345    2.408601   -1.140200
      3          6           0       18.010185    1.267722    2.853750
      4          6           0       17.627583   -3.437270    1.665805
      5          6           0       15.401800   -2.256653   -2.453062
      6          7           0       16.959326    1.641492    0.633923
      7          6           0       16.220521    2.658323    0.016281
      8          6           0       16.291612    3.983719    0.800171
      9          6           0       17.198435    3.555631    2.012220
     10          6           0       17.391625    2.058793    1.897592
     11          6           0       18.522564    4.307342    2.062797
     12          6           0       14.964521    4.678785    1.268971
     13          6           0       14.590150    6.100709    0.579289
     14          1           0       14.480447    7.213397    1.626374
     15          7           0       17.723318   -1.024669    1.920291
     16          6           0       18.119282   -0.131783    2.929206
     17          6           0       18.644438   -0.845489    4.097888
     18          6           0       18.630465   -2.305242    3.761183
     19          6           0       17.916534   -2.345784    2.422862
     20          6           0       19.132278   -0.143192    5.345828
     21          6           0       19.104775   -3.469296    4.495419
     22          8           0       19.072791   -4.588049    3.961900
     23          6           0       19.713299   -3.381876    5.884077
     24          7           0       16.572975   -2.472284   -0.362464
     25          6           0       16.960602   -3.563597    0.436894
     26          6           0       16.640525   -4.987359   -0.174255
     27          6           0       15.934300   -4.519402   -1.549315
     28          6           0       15.957898   -2.978403   -1.434356
     29          6           0       17.928846   -5.922305   -0.400856
     30          6           0       14.488494   -5.108584   -1.688508
     31          6           0       14.033328   -5.537477   -3.048227
     32          7           0       15.722272    0.001245   -1.525835
     33          6           0       15.247977   -0.828193   -2.546132
     34          6           0       14.542254   -0.075979   -3.526511
     35          6           0       14.547518    1.245182   -2.943844
     36          6           0       15.340680    1.208246   -1.790027
     37          6           0       13.844035   -0.491180   -4.752933
     38          6           0       14.190654    2.605452   -3.199980
     39          8           0       13.542066    3.189726   -4.074943
     40          6           0       14.962123    3.443202   -2.081951
     41          6           0       15.956332    4.326166   -2.747416
     42          8           0       17.105271    4.161645   -2.877711
     43          8           0       15.355718    5.523167   -3.130418
     44          6           0       16.254909    6.653169   -3.238529
     45          1           0       18.391449    1.841711    3.700916
     46          1           0       17.867197   -4.433522    2.043153
     47          1           0       14.906323   -2.808361   -3.254622
     48          1           0       16.848487    4.707646    0.206233
     49          1           0       16.745406    3.819392    2.968289
     50          1           0       19.332753    3.599880    1.888215
     51          1           0       18.552507    4.665663    3.091073
     52          1           0       18.596319    5.183931    1.419519
     53          1           0       15.029853    4.827431    2.347100
     54          1           0       14.095663    4.055202    1.057958
     55          1           0       13.588292    5.908668    0.194823
     56          1           0       15.325394    6.359456   -0.182335
     57          1           0       20.087329    0.317077    5.089579
     58          1           0       19.279034   -0.896183    6.118618
     59          1           0       18.502482    0.693888    5.647857
     60          1           0       20.253325   -4.318639    6.023245
     61          1           0       18.981987   -3.217608    6.676158
     62          1           0       20.536150   -2.681628    6.026484
     63          1           0       15.865343   -5.475769    0.415320
     64          1           0       16.428621   -4.860577   -2.459187
     65          1           0       17.800931   -6.460230   -1.340437
     66          1           0       18.063752   -6.748283    0.296411
     67          1           0       18.864263   -5.362663   -0.417960
     68          1           0       13.709213   -4.471358   -1.270778
     69          1           0       14.367708   -6.047894   -1.149211
     70          1           0       13.244357   -4.831362   -3.306631
     71          1           0       13.478741   -6.466752   -3.178573
     72          1           0       14.860959   -5.462938   -3.754372
     73          1           0       13.514288   -1.522796   -4.626864
     74          1           0       14.617710   -0.457378   -5.519900
     75          1           0       13.110505    0.272773   -5.011330
     76          1           0       14.258100    4.064808   -1.529292
     77          1           0       16.771289    6.484529   -4.182909
     78          1           0       16.949201    6.554700   -2.404198
     79          1           0       15.710529    7.597031   -3.279695
     80         12           0      -16.076589   -0.783654    0.062198
     81          6           0      -17.925608    1.952131    1.142245
     82          6           0      -13.435067    1.424614   -0.356840
     83          6           0      -14.410187   -3.320820   -1.471469
     84          6           0      -18.885611   -2.773124    0.389763
     85          7           0      -15.746803    1.447722    0.310028
     86          6           0      -16.638961    2.385944    0.806424
     87          6           0      -16.080169    3.862963    0.800167
     88          6           0      -14.740913    3.639485   -0.003653
     89          6           0      -14.627140    2.071769   -0.068227
     90          6           0      -14.560091    4.211333   -1.412836
     91          6           0      -15.934234    4.401147    2.235330
     92          6           0      -16.924787    5.444341    2.681098
     93          1           0      -16.391800    6.560227    3.597224
     94          7           0      -14.136458   -1.027580   -0.627019
     95          6           0      -13.231113   -0.012691   -0.621777
     96          6           0      -12.001690   -0.580305   -1.208911
     97          6           0      -12.266460   -1.892857   -1.629972
     98          6           0      -13.601703   -2.160105   -1.259102
     99          6           0      -10.730838    0.167584   -1.177516
    100          6           0      -11.391808   -2.869818   -2.359678
    101          8           0      -11.721718   -4.067882   -2.581964
    102          6           0      -10.113281   -2.541162   -2.907235
    103          7           0      -16.531772   -2.735744   -0.381654
    104          6           0      -15.680464   -3.606214   -0.990014
    105          6           0      -16.263638   -4.945670   -1.214554
    106          6           0      -17.688620   -4.813430   -0.566663
    107          6           0      -17.717539   -3.369670   -0.231194
    108          6           0      -16.347406   -5.616116   -2.617415
    109          6           0      -18.001006   -5.841171    0.630250
    110          6           0      -17.582498   -5.578716    2.107446
    111          7           0      -18.024679   -0.535536    0.594804
    112          6           0      -19.044597   -1.434327    0.720016
    113          6           0      -20.139488   -0.835866    1.349513
    114          6           0      -19.738984    0.552368    1.445316
    115          6           0      -18.437591    0.661077    0.997267
    116          6           0      -21.431217   -1.499944    1.822663
    117          6           0      -20.177184    1.806518    1.987146
    118          8           0      -21.144271    2.168243    2.626084
    119          6           0      -19.063409    2.835580    1.584452
    120          6           0      -19.557611    3.713278    0.505068
    121          8           0      -19.145156    3.744357   -0.675258
    122          8           0      -20.571970    4.528952    0.866753
    123          6           0      -21.005207    5.631705   -0.057660
    124          1           0      -12.628769    2.135240   -0.546776
    125          1           0      -13.943125   -4.162277   -1.987833
    126          1           0      -19.754660   -3.367355    0.681475
    127          1           0      -16.604676    4.497353    0.084878
    128          1           0      -13.948960    4.017148    0.643020
    129          1           0      -14.548128    3.405329   -2.146921
    130          1           0      -13.537487    4.583118   -1.457406
    131          1           0      -15.285901    4.969085   -1.710000
    132          1           0      -14.959455    4.889928    2.254658
    133          1           0      -15.881534    3.548989    2.912934
    134          1           0      -17.718990    4.928820    3.221721
    135          1           0      -17.458195    5.959039    1.881811
    136          1           0      -10.065861   -0.441598   -0.566665
    137          1           0      -10.715247    1.190486   -0.799103
    138          1           0      -10.315946    0.222754   -2.183923
    139          1           0      -10.253514   -1.580228   -3.401554
    140          1           0       -9.700868   -3.383466   -3.461199
    141          1           0       -9.401254   -2.292062   -2.120386
    142          1           0      -15.594511   -5.530893   -0.584450
    143          1           0      -18.447283   -4.952201   -1.336006
    144          1           0      -15.720372   -6.505231   -2.684366
    145          1           0      -15.987171   -4.944329   -3.397275
    146          1           0      -17.365302   -5.861037   -2.920520
    147          1           0      -17.440589   -6.723333    0.319966
    148          1           0      -19.070891   -5.991864    0.485453
    149          1           0      -17.200669   -4.579362    2.314648
    150          1           0      -16.963284   -6.345710    2.573496
    151          1           0      -18.512740   -5.709116    2.658829
    152          1           0      -22.313558   -1.034776    1.381878
    153          1           0      -21.511135   -1.330762    2.896361
    154          1           0      -21.457421   -2.582574    1.696097
    155          1           0      -18.943521    3.525232    2.420156
    156          1           0      -21.585322    6.193231    0.674770
    157          1           0      -21.592361    5.310396   -0.917329
    158          1           0      -20.129949    6.169492   -0.423403
 ---------------------------------------------------------------------

 SCF Done:  E(RwB97XD) =  -4070.60020255     A.U. after   19 cycles

 Excitation energies and oscillator strengths:

 Excited State   1:      Singlet-A      1.6222 eV  764.29 nm  f=0.4175  <S**2>=0.000
     309 -> 315        0.16204
     311 -> 313        0.68491
     309 <- 315        0.10550
 This state for optimization and/or second-order correction.
 Total Energy, E(TD-HF/TD-DFT) =  -4070.54058727
 Copying the excited state density for this state as the 1-particle RhoCI density.

 Excited State   2:      Singlet-A      1.6446 eV  753.89 nm  f=0.3776  <S**2>=0.000
     310 -> 316       -0.18273
     312 -> 314        0.68136
     310 <- 316       -0.11698

 Excited State   3:      Singlet-A      2.1351 eV  580.70 nm  f=0.1179  <S**2>=0.000
     309 -> 313        0.64269
     311 -> 315       -0.25992

 Excited State   4:      Singlet-A      2.1516 eV  576.25 nm  f=0.1414  <S**2>=0.000
     310 -> 314        0.64854
     312 -> 316        0.26452

 Excited State   5:      Singlet-A      3.2508 eV  381.40 nm  f=0.0040  <S**2>=0.000
     303 -> 313        0.47420
     306 -> 313        0.38333
     308 -> 313       -0.30294
     311 -> 315        0.12206

 The electronic state is 1-A.
 Alpha  occ. eigenvalues --  -46.94348 -46.93874 -19.29255 -19.27421 -19.24486
 Alpha  occ. eigenvalues --  -19.23990 -19.23267 -19.23188 -19.23009 -19.22990
 Alpha  occ. eigenvalues --  -14.47230 -14.46658 -14.46604 -14.46443 -14.44996
 Alpha  occ. eigenvalues --  -14.44144 -14.43186 -14.42947 -10.42351 -10.41937
 Alpha  occ. eigenvalues --  -10.39389 -10.38460 -10.38232 -10.38179 -10.35970
 Alpha  occ. eigenvalues --  -10.35743 -10.35402 -10.35216 -10.35205 -10.34996
 Alpha  occ. eigenvalues --  -10.34793 -10.34789 -10.34784 -10.34664 -10.34481
 Alpha  occ. eigenvalues --  -10.34380 -10.34266 -10.34128 -10.34077 -10.33569
 Alpha  occ. eigenvalues --  -10.33365 -10.33290 -10.32872 -10.32794 -10.32531
 Alpha  occ. eigenvalues --  -10.32505 -10.32357 -10.32350 -10.32264 -10.32212
 Alpha  occ. eigenvalues --  -10.31897 -10.31875 -10.31857 -10.31851 -10.31703
 Alpha  occ. eigenvalues --  -10.31697 -10.31659 -10.31476 -10.31418 -10.31415
 Alpha  occ. eigenvalues --  -10.31347 -10.31321 -10.31220 -10.31118 -10.31087
 Alpha  occ. eigenvalues --  -10.30830 -10.30805 -10.30792 -10.30768 -10.30634
 Alpha  occ. eigenvalues --  -10.30545 -10.30406 -10.30404 -10.30189 -10.30148
 Alpha  occ. eigenvalues --  -10.29952 -10.29920 -10.29849 -10.29839 -10.29787
 Alpha  occ. eigenvalues --  -10.29776 -10.29533 -10.29503 -10.29182 -10.28649
 Alpha  occ. eigenvalues --  -10.28525  -3.20517  -3.20002  -1.94081  -1.93655
 Alpha  occ. eigenvalues --   -1.93607  -1.93509  -1.93137  -1.92979  -1.18923
 Alpha  occ. eigenvalues --   -1.17280  -1.11866  -1.11754  -1.10345  -1.10139
 Alpha  occ. eigenvalues --   -1.09945  -1.07250  -1.06875  -1.06667  -1.06110
 Alpha  occ. eigenvalues --   -1.05491  -1.05244  -1.04276  -1.04111  -1.02752
 Alpha  occ. eigenvalues --   -0.95062  -0.94582  -0.91154  -0.90878  -0.90540
 Alpha  occ. eigenvalues --   -0.90433  -0.90327  -0.90198  -0.89529  -0.89323
 Alpha  occ. eigenvalues --   -0.89177  -0.88923  -0.88704  -0.88039  -0.86272
 Alpha  occ. eigenvalues --   -0.86193  -0.85556  -0.85398  -0.84721  -0.84383
 Alpha  occ. eigenvalues --   -0.84337  -0.83881  -0.82919  -0.82838  -0.82488
 Alpha  occ. eigenvalues --   -0.82230  -0.80814  -0.80515  -0.79416  -0.79368
 Alpha  occ. eigenvalues --   -0.78767  -0.78645  -0.78124  -0.77255  -0.77225
 Alpha  occ. eigenvalues --   -0.77197  -0.75103  -0.75083  -0.73720  -0.73308
 Alpha  occ. eigenvalues --   -0.72019  -0.71394  -0.70716  -0.70641  -0.69959
 Alpha  occ. eigenvalues --   -0.69936  -0.69591  -0.69096  -0.67637  -0.67288
 Alpha  occ. eigenvalues --   -0.67128  -0.67049  -0.67012  -0.66616  -0.66361
 Alpha  occ. eigenvalues --   -0.65940  -0.63467  -0.62882  -0.62262  -0.61948
 Alpha  occ. eigenvalues --   -0.61599  -0.61388  -0.61136  -0.61045  -0.60581
 Alpha  occ. eigenvalues --   -0.60474  -0.60294  -0.59716  -0.59696  -0.59282
 Alpha  occ. eigenvalues --   -0.58556  -0.58144  -0.57549  -0.57538  -0.57291
 Alpha  occ. eigenvalues --   -0.56864  -0.56338  -0.55894  -0.55763  -0.55616
 Alpha  occ. eigenvalues --   -0.55291  -0.55181  -0.54970  -0.54830  -0.54636
 Alpha  occ. eigenvalues --   -0.54444  -0.54370  -0.54292  -0.54125  -0.53957
 Alpha  occ. eigenvalues --   -0.53801  -0.53553  -0.53311  -0.53133  -0.52997
 Alpha  occ. eigenvalues --   -0.52786  -0.52714  -0.52542  -0.52284  -0.52173
 Alpha  occ. eigenvalues --   -0.52084  -0.51999  -0.51727  -0.51706  -0.51616
 Alpha  occ. eigenvalues --   -0.51560  -0.51358  -0.50973  -0.50902  -0.50710
 Alpha  occ. eigenvalues --   -0.50607  -0.50505  -0.50351  -0.50086  -0.50044
 Alpha  occ. eigenvalues --   -0.49977  -0.49824  -0.49697  -0.49265  -0.49165
 Alpha  occ. eigenvalues --   -0.48994  -0.48807  -0.48688  -0.48452  -0.48443
 Alpha  occ. eigenvalues --   -0.48154  -0.48101  -0.47955  -0.47913  -0.47602
 Alpha  occ. eigenvalues --   -0.47373  -0.47298  -0.47253  -0.47175  -0.47082
 Alpha  occ. eigenvalues --   -0.46929  -0.46694  -0.46663  -0.46167  -0.46124
 Alpha  occ. eigenvalues --   -0.45890  -0.45812  -0.45691  -0.45660  -0.45513
 Alpha  occ. eigenvalues --   -0.45342  -0.45325  -0.45041  -0.44900  -0.44830
 Alpha  occ. eigenvalues --   -0.44684  -0.44585  -0.44391  -0.44019  -0.43662
 Alpha  occ. eigenvalues --   -0.43513  -0.43404  -0.43354  -0.43110  -0.43027
 Alpha  occ. eigenvalues --   -0.42953  -0.42682  -0.42629  -0.42228  -0.42090
 Alpha  occ. eigenvalues --   -0.42000  -0.41870  -0.41587  -0.41055  -0.40819
 Alpha  occ. eigenvalues --   -0.40665  -0.40128  -0.39838  -0.39803  -0.39655
 Alpha  occ. eigenvalues --   -0.39286  -0.38841  -0.38533  -0.38382  -0.38068
 Alpha  occ. eigenvalues --   -0.37600  -0.36914  -0.36480  -0.36298  -0.36097
 Alpha  occ. eigenvalues --   -0.35442  -0.35438  -0.34750  -0.33713  -0.33551
 Alpha  occ. eigenvalues --   -0.33208  -0.32538  -0.32246  -0.32150  -0.31921
 Alpha  occ. eigenvalues --   -0.31880  -0.31481  -0.31419  -0.26352  -0.25547
 Alpha  occ. eigenvalues --   -0.23316  -0.22910
 Alpha virt. eigenvalues --   -0.07683  -0.07039  -0.00276   0.00617   0.01747
 Alpha virt. eigenvalues --    0.02758   0.04265   0.04467   0.05204   0.06636
 Alpha virt. eigenvalues --    0.07498   0.07504   0.07859   0.08093   0.08426

 Mulliken charges:
               1
     1  Mg   0.967385
     2  C    0.011675
     3  C   -0.103316
     4  C   -0.069858
     5  C   -0.098354
     6  N   -0.364215
     7  C   -0.034054
     8  C   -0.002743
     9  C   -0.138156
    10  C    0.093051
    11  C    0.019367
    12  C   -0.009094
    13  C   -0.148471
    14  H    0.036367
    15  N   -0.481898
    16  C    0.200883
    17  C   -0.180218
    18  C   -0.027748
    19  C    0.193829
    20  C    0.079968
    21  C    0.021696
    22  O   -0.252839
    23  C   -0.034219
    24  N   -0.410805
    25  C    0.038864
    26  C   -0.045345
    27  C   -0.088402
    28  C    0.133966
    29  C   -0.000915
    30  C   -0.040876
    31  C   -0.058090
    32  N   -0.418790
    33  C    0.119600
    34  C   -0.179172
    35  C   -0.042555
    36  C    0.138695
    37  C    0.103176
    38  C    0.092963
    39  O   -0.217752
    40  C   -0.114435
    41  C    0.257095
    42  O   -0.187426
    43  O   -0.389660
    44  C    0.148314
    45  H   -0.010785
    46  H    0.025979
    47  H   -0.021900
    48  H    0.032298
    49  H    0.032473
    50  H    0.050158
    51  H    0.027208
    52  H    0.046217
    53  H    0.042837
    54  H    0.040577
    55  H    0.074166
    56  H    0.060435
    57  H    0.058530
    58  H    0.036791
    59  H    0.054040
    60  H    0.050824
    61  H    0.073242
    62  H    0.053573
    63  H    0.052009
    64  H    0.039649
    65  H    0.034014
    66  H    0.046091
    67  H    0.057367
    68  H    0.033632
    69  H    0.029718
    70  H    0.026166
    71  H    0.038855
    72  H    0.035153
    73  H    0.041466
    74  H    0.054419
    75  H    0.067088
    76  H    0.052193
    77  H    0.050871
    78  H    0.037033
    79  H    0.060128
    80  Mg   0.984085
    81  C   -0.026471
    82  C   -0.064941
    83  C   -0.072242
    84  C   -0.099218
    85  N   -0.335714
    86  C   -0.019322
    87  C   -0.045942
    88  C   -0.130730
    89  C    0.025614
    90  C    0.037419
    91  C    0.055381
    92  C   -0.144171
    93  H    0.038384
    94  N   -0.481582
    95  C    0.183256
    96  C   -0.191557
    97  C   -0.022522
    98  C    0.131521
    99  C    0.056736
   100  C    0.038501
   101  O   -0.281169
   102  C    0.024597
   103  N   -0.375328
   104  C    0.076455
   105  C   -0.094217
   106  C   -0.054988
   107  C    0.063519
   108  C    0.027622
   109  C   -0.032309
   110  C   -0.043675
   111  N   -0.453011
   112  C    0.130628
   113  C   -0.169516
   114  C   -0.056341
   115  C    0.216036
   116  C    0.092255
   117  C    0.091528
   118  O   -0.190103
   119  C   -0.123741
   120  C    0.263148
   121  O   -0.290753
   122  O   -0.356978
   123  C    0.146661
   124  H   -0.008966
   125  H    0.021558
   126  H   -0.013571
   127  H    0.038430
   128  H    0.026771
   129  H    0.047630
   130  H    0.032188
   131  H    0.052315
   132  H    0.035806
   133  H    0.046963
   134  H    0.065128
   135  H    0.052679
   136  H    0.057274
   137  H    0.043370
   138  H    0.035794
   139  H    0.042726
   140  H    0.066647
   141  H    0.043696
   142  H    0.047254
   143  H    0.036187
   144  H    0.044638
   145  H    0.039251
   146  H    0.036232
   147  H    0.035216
   148  H    0.040157
   149  H    0.056356
   150  H    0.040364
   151  H    0.028956
   152  H    0.060708
   153  H    0.053738
   154  H    0.024457
   155  H    0.056495
   156  H    0.066019
   157  H    0.067036
   158  H    0.053694
 Sum of Mulliken charges =  -0.00000

 Dipole moment (field-independent basis, Debye):
    X=              3.2609    Y=             -0.6833    Z=              5.2668  Tot=              6.2321
 Quadrupole moment (field-independent basis, Debye-Ang):
   XX=           -591.9009   YY=           -472.2383   ZZ=           -512.1034
   XY=             13.8794   XZ=            106.6790   YZ=             20.5472

 Normal termination of Gaussian 16 at Mon Sep 20 12:37:17 2021.
