 Gaussian 16, Revision A.03,
 Gaussian 16:  ES64L-G16RevA.03 25-Dec-2016

 --------------------------------
 #p wB97XD/Def2SVP td=(nstates=5)
 --------------------------------

 --------------------------------
 TDDFT excited states in gaussian
 --------------------------------
 Symbolic Z-matrix:
 Charge =  0 Multiplicity = 1

                         Standard orientation:
 ---------------------------------------------------------------------
 Center     Atomic      Atomic             Coordinates (Angstroms)
 Number     Number       Type             X           Y           Z
 ---------------------------------------------------------------------
      1         12           0       25.134626    0.556076   -0.355994
      2          6           0       26.115703   -1.916388    1.758222
      3          6           0       23.764521   -1.640140   -2.636899
      4          6           0       24.423966    3.197225   -2.415766
      5          6           0       26.916134    2.915714    1.729484
      6          7           0       25.158032   -1.531896   -0.507905
      7          6           0       25.393198   -2.386439    0.620961
      8          6           0       24.854482   -3.739757    0.380015
      9          6           0       24.502414   -3.664685   -1.173245
     10          6           0       24.462811   -2.191055   -1.511530
     11          6           0       25.567541   -4.435673   -2.102369
     12          6           0       23.742248   -4.187576    1.377496
     13          6           0       23.882125   -5.578696    1.906354
     14          1           0       24.362420   -6.670588    0.870994
     15          7           0       24.153141    0.757087   -2.234518
     16          6           0       23.699778   -0.298695   -2.968107
     17          6           0       23.096455    0.225924   -4.144973
     18          6           0       23.179585    1.672296   -4.096838
     19          6           0       23.895407    1.983347   -2.814377
     20          6           0       22.565556   -0.685333   -5.273145
     21          6           0       22.679870    2.756877   -4.999232
     22          8           0       22.890971    3.972866   -4.929463
     23          6           0       21.722096    2.277176   -6.154646
     24          7           0       25.698260    2.790236   -0.412584
     25          6           0       25.194462    3.619083   -1.292760
     26          6           0       25.405116    5.080949   -0.903905
     27          6           0       26.204427    4.968834    0.425729
     28          6           0       26.304339    3.454661    0.599819
     29          6           0       26.182718    5.942841   -2.023437
     30          6           0       25.366059    5.664170    1.587137
     31          6           0       24.021667    5.065823    2.069948
     32          7           0       26.425145    0.509259    1.306404
     33          6           0       26.998142    1.532450    2.037821
     34          6           0       27.576124    0.907278    3.244836
     35          6           0       27.280209   -0.422748    3.242300
     36          6           0       26.562162   -0.613214    2.006265
     37          6           0       28.473812    1.612921    4.201919
     38          6           0       27.400040   -1.702234    3.940914
     39          8           0       27.947763   -1.996613    4.990092
     40          6           0       26.642610   -2.711232    2.970565
     41          6           0       27.639103   -3.696876    2.504552
     42          8           0       28.717595   -3.479880    1.925124
     43          8           0       27.102059   -4.914537    2.870255
     44          6           0       27.827858   -6.079771    2.348056
     45          1           0       23.273623   -2.297267   -3.357566
     46          1           0       24.062671    4.001944   -3.060481
     47          1           0       27.391774    3.622789    2.411403
     48          1           0       25.705290   -4.401267    0.548067
     49          1           0       23.509122   -4.090760   -1.311122
     50          1           0       26.227100   -5.104021   -1.548842
     51          1           0       26.250078   -3.671170   -2.473291
     52          1           0       24.948860   -4.868640   -2.887323
     53          1           0       22.768121   -4.126573    0.892175
     54          1           0       23.852406   -3.472041    2.192221
     55          1           0       22.938176   -6.002157    2.247231
     56          1           0       24.491455   -5.797731    2.783297
     57          1           0       21.608421   -1.170156   -5.081301
     58          1           0       23.392860   -1.380209   -5.416465
     59          1           0       22.312493   -0.136232   -6.179836
     60          1           0       22.313069    1.761292   -6.911467
     61          1           0       21.098388    3.122196   -6.445672
     62          1           0       20.934143    1.603515   -5.817255
     63          1           0       24.432037    5.527241   -0.700250
     64          1           0       27.181359    5.451046    0.390242
     65          1           0       25.427868    6.581322   -2.483796
     66          1           0       26.597389    5.281924   -2.785269
     67          1           0       26.973133    6.629810   -1.723783
     68          1           0       25.162719    6.724442    1.437761
     69          1           0       26.044686    5.539264    2.431546
     70          1           0       24.247191    4.782609    3.098161
     71          1           0       23.685263    4.233975    1.452379
     72          1           0       23.193918    5.774912    2.061588
     73          1           0       28.241755    1.123868    5.147504
     74          1           0       28.293429    2.687383    4.239895
     75          1           0       29.486407    1.257510    4.015565
     76          1           0       25.979558   -3.183317    3.695065
     77          1           0       27.316493   -6.905623    2.843450
     78          1           0       28.835857   -6.009280    2.756808
     79          1           0       27.933892   -6.126047    1.264017
     80         12           0      -25.032500    0.620429    0.566797
     81          6           0      -24.953881   -1.887097   -2.018726
     82          6           0      -24.744077   -1.788213    2.862675
     83          6           0      -25.994088    2.883493    2.843777
     84          6           0      -25.798879    2.935180   -1.954878
     85          7           0      -24.926229   -1.547255    0.419614
     86          6           0      -24.714178   -2.356754   -0.709383
     87          6           0      -24.318237   -3.825616   -0.296790
     88          6           0      -24.330908   -3.751500    1.260102
     89          6           0      -24.631884   -2.256273    1.546642
     90          6           0      -25.280506   -4.667950    1.989062
     91          6           0      -22.921907   -4.310199   -0.963628
     92          6           0      -22.985916   -5.643906   -1.718133
     93          1           0      -21.992387   -6.735798   -1.172211
     94          7           0      -25.193999    0.586244    2.606072
     95          6           0      -25.048820   -0.486020    3.391159
     96          6           0      -25.276634   -0.157681    4.799488
     97          6           0      -25.737762    1.203522    4.761683
     98          6           0      -25.675420    1.627562    3.359046
     99          6           0      -25.087001   -1.116738    5.895152
    100          6           0      -26.285793    1.968487    6.007199
    101          8           0      -26.608440    3.143456    5.953474
    102          6           0      -26.429957    1.328974    7.351302
    103          7           0      -25.759106    2.557693    0.442296
    104          6           0      -25.971324    3.347493    1.567180
    105          6           0      -26.342839    4.811774    1.162161
    106          6           0      -25.926127    4.868869   -0.354882
    107          6           0      -25.760255    3.378513   -0.651006
    108          6           0      -27.772956    5.329149    1.524787
    109          6           0      -24.610910    5.650014   -0.624505
    110          6           0      -24.526842    6.525672   -1.849198
    111          7           0      -25.374855    0.565465   -1.548539
    112          6           0      -25.672714    1.580968   -2.412250
    113          6           0      -25.617521    1.037806   -3.839400
    114          6           0      -25.291338   -0.292415   -3.730560
    115          6           0      -25.223447   -0.551226   -2.318585
    116          6           0      -25.785825    1.919069   -5.056155
    117          6           0      -25.046190   -1.543615   -4.425471
    118          8           0      -25.065855   -1.669391   -5.667765
    119          6           0      -24.897952   -2.722100   -3.290076
    120          6           0      -26.013664   -3.746176   -3.288541
    121          8           0      -27.206385   -3.391461   -3.208244
    122          8           0      -25.556680   -5.035707   -3.563654
    123          6           0      -26.633752   -5.927880   -3.976574
    124          1           0      -24.545172   -2.505363    3.661530
    125          1           0      -26.232402    3.572349    3.656469
    126          1           0      -25.922170    3.734724   -2.688988
    127          1           0      -25.133798   -4.413491   -0.717477
    128          1           0      -23.369142   -4.169147    1.561050
    129          1           0      -25.901676   -5.263390    1.319824
    130          1           0      -25.960503   -3.923119    2.401109
    131          1           0      -24.778471   -5.359868    2.665981
    132          1           0      -22.251075   -4.353369   -0.106046
    133          1           0      -22.526471   -3.503962   -1.580885
    134          1           0      -22.838323   -5.411091   -2.772699
    135          1           0      -23.985649   -6.066898   -1.611601
    136          1           0      -25.904062   -1.329993    6.583670
    137          1           0      -24.434088   -0.597762    6.595989
    138          1           0      -24.504829   -2.004422    5.646812
    139          1           0      -25.418457    1.033209    7.632250
    140          1           0      -27.000450    0.412436    7.198392
    141          1           0      -26.911123    2.075856    7.981524
    142          1           0      -25.640454    5.419862    1.732287
    143          1           0      -26.733756    5.205515   -1.004459
    144          1           0      -28.193986    4.534787    2.140668
    145          1           0      -28.385033    5.595630    0.663605
    146          1           0      -27.742475    6.156038    2.235392
    147          1           0      -23.947713    4.789057   -0.706080
    148          1           0      -24.252159    6.246178    0.214782
    149          1           0      -24.033326    7.440152   -1.519949
    150          1           0      -25.504046    6.813427   -2.238315
    151          1           0      -23.805192    6.044180   -2.509574
    152          1           0      -25.981366    2.928787   -4.695595
    153          1           0      -26.690864    1.606835   -5.576747
    154          1           0      -24.918685    1.812315   -5.707588
    155          1           0      -23.916293   -3.182347   -3.402447
    156          1           0      -26.609746   -6.235055   -5.021200
    157          1           0      -27.633456   -5.543387   -3.773938
    158          1           0      -26.530473   -6.826066   -3.368269
 ---------------------------------------------------------------------

 SCF Done:  E(RwB97XD) =  -4070.59391632     A.U. after   19 cycles

 Excitation energies and oscillator strengths:

 Excited State   1:      Singlet-A      1.6412 eV  755.45 nm  f=0.3766  <S**2>=0.000
     310 -> 316        0.17836
     312 -> 314        0.68478
     310 <- 316        0.11654
 This state for optimization and/or second-order correction.
 Total Energy, E(TD-HF/TD-DFT) =  -4070.53360347
 Copying the excited state density for this state as the 1-particle RhoCI density.

 Excited State   2:      Singlet-A      1.6460 eV  753.23 nm  f=0.4169  <S**2>=0.000
     309 -> 315        0.19152
     311 -> 313        0.68061
     309 <- 315        0.11803

 Excited State   3:      Singlet-A      2.2139 eV  560.03 nm  f=0.0442  <S**2>=0.000
     309 -> 313        0.60814
     311 -> 315       -0.34947

 Excited State   4:      Singlet-A      2.2310 eV  555.74 nm  f=0.0895  <S**2>=0.000
     310 -> 314        0.62832
     312 -> 316       -0.31485

 Excited State   5:      Singlet-A      3.3630 eV  368.67 nm  f=0.3730  <S**2>=0.000
     306 -> 313        0.18512
     307 -> 313        0.37695
     309 -> 313        0.24777
     311 -> 315        0.50112

 The electronic state is 1-A.
 Alpha  occ. eigenvalues --  -46.95623 -46.94763 -19.31960 -19.30892 -19.25844
 Alpha  occ. eigenvalues --  -19.25228 -19.25091 -19.24613 -19.24605 -19.23550
 Alpha  occ. eigenvalues --  -14.47209 -14.46929 -14.46813 -14.46274 -14.44330
 Alpha  occ. eigenvalues --  -14.44141 -14.44091 -14.43957 -10.44744 -10.43396
 Alpha  occ. eigenvalues --  -10.40635 -10.39762 -10.39450 -10.38880 -10.36095
 Alpha  occ. eigenvalues --  -10.35843 -10.35693 -10.35601 -10.35509 -10.34984
 Alpha  occ. eigenvalues --  -10.34919 -10.34761 -10.34455 -10.34382 -10.34170
 Alpha  occ. eigenvalues --  -10.34139 -10.34064 -10.33994 -10.33791 -10.33590
 Alpha  occ. eigenvalues --  -10.33504 -10.33476 -10.33209 -10.33084 -10.33082
 Alpha  occ. eigenvalues --  -10.33042 -10.32808 -10.32670 -10.32477 -10.32421
 Alpha  occ. eigenvalues --  -10.32362 -10.32203 -10.32200 -10.32036 -10.31975
 Alpha  occ. eigenvalues --  -10.31833 -10.31764 -10.31680 -10.31561 -10.31525
 Alpha  occ. eigenvalues --  -10.31520 -10.31454 -10.31439 -10.31431 -10.31426
 Alpha  occ. eigenvalues --  -10.31316 -10.31291 -10.31034 -10.31019 -10.30573
 Alpha  occ. eigenvalues --  -10.30493 -10.30463 -10.30370 -10.30074 -10.30017
 Alpha  occ. eigenvalues --  -10.29862 -10.29845 -10.29782 -10.29746 -10.29447
 Alpha  occ. eigenvalues --  -10.29385 -10.29364 -10.29333 -10.29262 -10.29227
 Alpha  occ. eigenvalues --  -10.28765  -3.21481  -3.20838  -1.95071  -1.94591
 Alpha  occ. eigenvalues --   -1.94450  -1.94410  -1.93947  -1.93838  -1.18555
 Alpha  occ. eigenvalues --   -1.18151  -1.12448  -1.12308  -1.11892  -1.11368
 Alpha  occ. eigenvalues --   -1.10196  -1.09677  -1.07157  -1.05950  -1.05807
 Alpha  occ. eigenvalues --   -1.05354  -1.04981  -1.04659  -1.03935  -1.03759
 Alpha  occ. eigenvalues --   -0.94662  -0.94358  -0.91062  -0.91019  -0.90693
 Alpha  occ. eigenvalues --   -0.90630  -0.89945  -0.89928  -0.89311  -0.89228
 Alpha  occ. eigenvalues --   -0.89160  -0.88872  -0.88257  -0.88102  -0.86607
 Alpha  occ. eigenvalues --   -0.86218  -0.85580  -0.85304  -0.84643  -0.84320
 Alpha  occ. eigenvalues --   -0.83857  -0.83499  -0.83207  -0.83189  -0.82219
 Alpha  occ. eigenvalues --   -0.81956  -0.80406  -0.80075  -0.79561  -0.79309
 Alpha  occ. eigenvalues --   -0.79160  -0.78901  -0.78168  -0.77754  -0.76943
 Alpha  occ. eigenvalues --   -0.76675  -0.74482  -0.74470  -0.74196  -0.72974
 Alpha  occ. eigenvalues --   -0.71818  -0.71247  -0.71037  -0.70358  -0.70349
 Alpha  occ. eigenvalues --   -0.69863  -0.69474  -0.68703  -0.67288  -0.67283
 Alpha  occ. eigenvalues --   -0.66975  -0.66966  -0.66924  -0.66701  -0.66395
 Alpha  occ. eigenvalues --   -0.66385  -0.64620  -0.64535  -0.62351  -0.62276
 Alpha  occ. eigenvalues --   -0.61776  -0.61411  -0.60936  -0.60913  -0.60797
 Alpha  occ. eigenvalues --   -0.60527  -0.60368  -0.59960  -0.59511  -0.59343
 Alpha  occ. eigenvalues --   -0.58275  -0.57933  -0.57503  -0.57432  -0.57079
 Alpha  occ. eigenvalues --   -0.56971  -0.56933  -0.56878  -0.56394  -0.55730
 Alpha  occ. eigenvalues --   -0.55486  -0.55470  -0.55179  -0.55148  -0.55139
 Alpha  occ. eigenvalues --   -0.54564  -0.54381  -0.54334  -0.54226  -0.54112
 Alpha  occ. eigenvalues --   -0.53935  -0.53785  -0.53571  -0.53480  -0.53472
 Alpha  occ. eigenvalues --   -0.53207  -0.53088  -0.53014  -0.52866  -0.52800
 Alpha  occ. eigenvalues --   -0.52207  -0.51852  -0.51599  -0.51585  -0.51364
 Alpha  occ. eigenvalues --   -0.51252  -0.51093  -0.50919  -0.50751  -0.50594
 Alpha  occ. eigenvalues --   -0.50519  -0.50494  -0.50425  -0.50285  -0.50111
 Alpha  occ. eigenvalues --   -0.50103  -0.49892  -0.49645  -0.49338  -0.49208
 Alpha  occ. eigenvalues --   -0.49203  -0.48951  -0.48830  -0.48730  -0.48709
 Alpha  occ. eigenvalues --   -0.48451  -0.48153  -0.47981  -0.47915  -0.47799
 Alpha  occ. eigenvalues --   -0.47624  -0.47538  -0.47346  -0.47142  -0.46728
 Alpha  occ. eigenvalues --   -0.46528  -0.46515  -0.46344  -0.46098  -0.45972
 Alpha  occ. eigenvalues --   -0.45881  -0.45743  -0.45579  -0.45446  -0.45195
 Alpha  occ. eigenvalues --   -0.45175  -0.44979  -0.44968  -0.44902  -0.44841
 Alpha  occ. eigenvalues --   -0.44757  -0.44623  -0.44329  -0.44092  -0.44038
 Alpha  occ. eigenvalues --   -0.43899  -0.43748  -0.43658  -0.43636  -0.43470
 Alpha  occ. eigenvalues --   -0.43058  -0.42718  -0.42709  -0.42480  -0.42432
 Alpha  occ. eigenvalues --   -0.42117  -0.41714  -0.41451  -0.41429  -0.41052
 Alpha  occ. eigenvalues --   -0.40230  -0.39874  -0.39770  -0.39551  -0.39512
 Alpha  occ. eigenvalues --   -0.39455  -0.39125  -0.38741  -0.38525  -0.38381
 Alpha  occ. eigenvalues --   -0.38298  -0.38060  -0.37108  -0.36651  -0.36458
 Alpha  occ. eigenvalues --   -0.36228  -0.35743  -0.35184  -0.33732  -0.33534
 Alpha  occ. eigenvalues --   -0.33450  -0.33151  -0.32993  -0.32632  -0.32598
 Alpha  occ. eigenvalues --   -0.32550  -0.32114  -0.31961  -0.26377  -0.26121
 Alpha  occ. eigenvalues --   -0.22789  -0.22602
 Alpha virt. eigenvalues --   -0.06859  -0.06789  -0.00491   0.00570   0.01778
 Alpha virt. eigenvalues --    0.01952   0.04200   0.04263   0.04861   0.05030
 Alpha virt. eigenvalues --    0.05091   0.06912   0.06974   0.07419   0.07778

 Mulliken charges:
               1
     1  Mg   0.932664
     2  C   -0.005088
     3  C   -0.106040
     4  C   -0.037067
     5  C   -0.077836
     6  N   -0.442485
     7  C   -0.001018
     8  C   -0.039803
     9  C   -0.135932
    10  C    0.130678
    11  C    0.033357
    12  C    0.069944
    13  C   -0.138344
    14  H    0.000489
    15  N   -0.460820
    16  C    0.169001
    17  C   -0.150540
    18  C   -0.078104
    19  C    0.134161
    20  C    0.056732
    21  C    0.061897
    22  O   -0.237550
    23  C   -0.054788
    24  N   -0.260631
    25  C    0.017915
    26  C   -0.075287
    27  C   -0.047640
    28  C    0.027375
    29  C   -0.001700
    30  C   -0.063182
    31  C   -0.056320
    32  N   -0.406600
    33  C    0.141327
    34  C   -0.240985
    35  C   -0.006302
    36  C    0.120044
    37  C    0.082693
    38  C    0.139243
    39  O   -0.194716
    40  C   -0.109520
    41  C    0.275712
    42  O   -0.259072
    43  O   -0.369984
    44  C    0.139909
    45  H    0.001525
    46  H    0.024241
    47  H    0.003072
    48  H    0.030707
    49  H    0.027167
    50  H    0.043615
    51  H    0.045673
    52  H    0.050289
    53  H    0.039580
    54  H    0.041760
    55  H    0.043883
    56  H    0.061533
    57  H    0.055337
    58  H    0.062206
    59  H    0.016788
    60  H    0.079302
    61  H    0.051762
    62  H    0.041974
    63  H    0.050150
    64  H    0.039086
    65  H    0.042695
    66  H    0.048646
    67  H    0.040741
    68  H    0.041664
    69  H    0.020581
    70  H    0.044560
    71  H    0.039785
    72  H    0.038683
    73  H    0.047124
    74  H    0.040291
    75  H    0.066257
    76  H    0.068443
    77  H    0.059480
    78  H    0.056232
    79  H    0.059377
    80  Mg   0.975920
    81  C   -0.099714
    82  C   -0.080701
    83  C   -0.088209
    84  C   -0.101421
    85  N   -0.370372
    86  C   -0.011436
    87  C   -0.072313
    88  C   -0.107106
    89  C    0.104461
    90  C    0.024233
    91  C    0.006573
    92  C   -0.108848
    93  H    0.027705
    94  N   -0.454567
    95  C    0.114083
    96  C   -0.149567
    97  C   -0.076260
    98  C    0.118082
    99  C    0.069366
   100  C    0.031478
   101  O   -0.238330
   102  C    0.011995
   103  N   -0.401010
   104  C    0.093401
   105  C   -0.058174
   106  C   -0.103743
   107  C    0.063913
   108  C    0.035204
   109  C   -0.016673
   110  C   -0.026203
   111  N   -0.388608
   112  C    0.149222
   113  C   -0.228853
   114  C    0.015716
   115  C    0.154278
   116  C    0.098513
   117  C    0.146818
   118  O   -0.221206
   119  C   -0.037333
   120  C    0.292877
   121  O   -0.256287
   122  O   -0.367233
   123  C    0.121078
   124  H   -0.014054
   125  H    0.016140
   126  H   -0.003774
   127  H    0.041664
   128  H    0.034163
   129  H    0.028906
   130  H    0.041590
   131  H    0.042983
   132  H    0.031978
   133  H    0.037988
   134  H    0.064364
   135  H    0.054506
   136  H    0.046828
   137  H    0.028291
   138  H    0.042596
   139  H    0.049378
   140  H    0.052005
   141  H    0.067740
   142  H    0.030979
   143  H    0.029198
   144  H    0.038589
   145  H    0.045346
   146  H    0.035519
   147  H    0.029338
   148  H    0.034949
   149  H    0.028933
   150  H    0.041868
   151  H    0.043802
   152  H    0.023028
   153  H    0.059040
   154  H    0.067080
   155  H    0.058121
   156  H    0.063448
   157  H    0.072088
   158  H    0.044631
 Sum of Mulliken charges =  -0.00000

 Dipole moment (field-independent basis, Debye):
    X=             -1.6053    Y=             -2.5061    Z=              0.8377  Tot=              3.0918
 Quadrupole moment (field-independent basis, Debye-Ang):
   XX=           -855.3259   YY=           -456.5791   ZZ=           -536.3578
   XY=             15.1950   XZ=           -104.4930   YZ=              1.3183

 Normal termination of Gaussian 16 at Sat Sep 18 12:31:16 2021.
