 Gaussian 16, Revision A.03,
 Gaussian 16:  ES64L-G16RevA.03 25-Dec-2016

 --------------------------------
 #p wB97XD/Def2SVP td=(nstates=5)
 --------------------------------

 --------------------------------
 TDDFT excited states in gaussian
 --------------------------------
 Symbolic Z-matrix:
 Charge =  0 Multiplicity = 1

                         Standard orientation:
 ---------------------------------------------------------------------
 Center     Atomic      Atomic             Coordinates (Angstroms)
 Number     Number       Type             X           Y           Z
 ---------------------------------------------------------------------
      1         12           0        9.033694    0.323560   -0.138657
      2          6           0        7.137916   -2.344944    1.094536
      3          6           0       10.951167   -1.769138   -1.785975
      4          6           0       11.273001    2.871246   -0.685103
      5          6           0        7.299372    2.506974    2.027064
      6          7           0        8.940150   -1.769103   -0.369612
      7          6           0        8.070951   -2.705451    0.145623
      8          6           0        8.279386   -4.076971   -0.483422
      9          6           0        9.645104   -3.880008   -1.216331
     10          6           0        9.807425   -2.399798   -1.219060
     11          6           0       10.859608   -4.659080   -0.759666
     12          6           0        7.094259   -4.581677   -1.367157
     13          6           0        7.284656   -5.972774   -1.981459
     14          1           0        6.154205   -6.964902   -1.750678
     15          7           0       10.985519    0.510756   -1.101339
     16          6           0       11.519975   -0.475121   -1.851753
     17          6           0       12.680807    0.026347   -2.533633
     18          6           0       12.849139    1.362379   -2.130887
     19          6           0       11.675937    1.624935   -1.253663
     20          6           0       13.551946   -0.812048   -3.445105
     21          6           0       13.874563    2.365068   -2.548118
     22          8           0       14.052500    3.504229   -2.039681
     23          6           0       14.802024    2.068040   -3.720110
     24          7           0        9.258405    2.343907    0.584017
     25          6           0       10.297709    3.146865    0.257292
     26          6           0       10.012783    4.650607    0.796645
     27          6           0        8.511450    4.556040    1.242785
     28          6           0        8.280506    3.078955    1.235159
     29          6           0       11.037970    4.986914    1.949130
     30          6           0        7.563426    5.169761    0.148659
     31          6           0        7.692536    4.706093   -1.293943
     32          7           0        7.438155    0.171916    1.284651
     33          6           0        6.880158    1.159661    2.048898
     34          6           0        5.875448    0.569860    2.805185
     35          6           0        5.889424   -0.828738    2.534554
     36          6           0        6.867451   -1.024350    1.595188
     37          6           0        4.989516    1.186769    3.829333
     38          6           0        5.319185   -2.162477    2.831126
     39          8           0        4.472432   -2.561756    3.622287
     40          6           0        6.059210   -3.191141    1.811943
     41          6           0        6.491378   -4.418641    2.531840
     42          8           0        6.916296   -4.445936    3.725003
     43          8           0        6.182764   -5.449380    1.756515
     44          6           0        6.098692   -6.714685    2.460509
     45          1           0       11.551210   -2.402626   -2.442739
     46          1           0       11.955975    3.701961   -0.878096
     47          1           0        6.702311    3.230676    2.584110
     48          1           0        8.282437   -4.758465    0.367471
     49          1           0        9.598037   -4.129486   -2.276910
     50          1           0       10.675451   -5.554072   -0.165414
     51          1           0       11.530542   -3.988820   -0.221688
     52          1           0       11.483243   -4.816315   -1.639922
     53          1           0        6.885367   -3.852427   -2.150303
     54          1           0        6.186924   -4.601420   -0.764341
     55          1           0        7.997861   -6.565005   -1.408408
     56          1           0        7.567174   -5.906801   -3.032555
     57          1           0       13.311973   -1.875163   -3.457799
     58          1           0       14.596532   -0.905425   -3.149091
     59          1           0       13.546400   -0.474592   -4.481995
     60          1           0       15.484117    1.275917   -3.412504
     61          1           0       15.531087    2.863044   -3.875097
     62          1           0       14.270881    1.895381   -4.656852
     63          1           0       10.194858    5.366294   -0.005082
     64          1           0        8.494454    4.963741    2.253502
     65          1           0       11.873064    4.288509    2.006216
     66          1           0       10.604138    4.976805    2.949157
     67          1           0       11.539503    5.944981    1.820246
     68          1           0        7.839927    6.218565    0.257112
     69          1           0        6.499807    5.090863    0.371547
     70          1           0        8.605639    4.124034   -1.420479
     71          1           0        7.591759    5.473086   -2.061072
     72          1           0        6.785240    4.117299   -1.429209
     73          1           0        4.434921    2.057264    3.478058
     74          1           0        5.664533    1.533437    4.611278
     75          1           0        4.300020    0.469534    4.273425
     76          1           0        5.270139   -3.470697    1.114339
     77          1           0        5.223640   -7.271824    2.123542
     78          1           0        5.989100   -6.658895    3.543287
     79          1           0        6.999594   -7.266136    2.189505
     80         12           0       -8.452919    1.039846   -0.494715
     81          6           0      -11.065448   -1.403541   -0.693148
     82          6           0       -6.212836   -1.685133   -0.504126
     83          6           0       -6.019642    3.037600    0.395404
     84          6           0      -10.810105    3.465197   -0.142846
     85          7           0       -8.655671   -1.260356   -0.640945
     86          6           0       -9.820072   -1.929957   -0.817303
     87          6           0       -9.502530   -3.388694   -1.102065
     88          6           0       -7.956885   -3.555714   -1.086267
     89          6           0       -7.564826   -2.101584   -0.760727
     90          6           0       -7.429692   -4.674759   -0.022385
     91          6           0      -10.080736   -3.882949   -2.496775
     92          6           0      -10.842208   -5.208870   -2.490552
     93          1           0      -10.437426   -6.376587   -1.503927
     94          7           0       -6.388275    0.705861   -0.052645
     95          6           0       -5.714298   -0.420845   -0.145671
     96          6           0       -4.355846   -0.139494    0.224325
     97          6           0       -4.172520    1.259758    0.362545
     98          6           0       -5.535759    1.714011    0.276712
     99          6           0       -3.243030   -1.182500    0.135214
    100          6           0       -2.957192    2.167181    0.471849
    101          8           0       -3.040984    3.367870    0.654449
    102          6           0       -1.619753    1.506968    0.278673
    103          7           0       -8.487074    2.888025    0.388434
    104          6           0       -7.291960    3.604357    0.475995
    105          6           0       -7.508593    5.135930    0.613308
    106          6           0       -9.043868    5.203419    0.267287
    107          6           0       -9.498066    3.748137    0.155107
    108          6           0       -7.113567    5.620959    2.015685
    109          6           0       -9.353495    5.908631   -1.137022
    110          6           0       -9.923350    7.287480   -1.130318
    111          7           0      -10.470188    1.082820   -0.540627
    112          6           0      -11.303009    2.163710   -0.347166
    113          6           0      -12.714063    1.789910   -0.297618
    114          6           0      -12.680583    0.356643   -0.438346
    115          6           0      -11.316620   -0.019163   -0.454339
    116          6           0      -13.837744    2.761697   -0.327766
    117          6           0      -13.486927   -0.841083   -0.616673
    118          8           0      -14.728069   -0.908241   -0.678972
    119          6           0      -12.444506   -2.089560   -0.765224
    120          6           0      -12.738936   -2.956102    0.365069
    121          8           0      -12.711428   -2.589497    1.519534
    122          8           0      -13.028985   -4.200433   -0.033027
    123          6           0      -13.425736   -5.275338    0.929742
    124          1           0       -5.471086   -2.483159   -0.576529
    125          1           0       -5.267370    3.821155    0.277555
    126          1           0      -11.528275    4.286859   -0.110930
    127          1           0       -9.920378   -3.971472   -0.281151
    128          1           0       -7.579334   -3.949034   -2.030271
    129          1           0       -8.217623   -5.391475    0.209301
    130          1           0       -7.116355   -4.101247    0.850356
    131          1           0       -6.560479   -5.189202   -0.431839
    132          1           0       -9.356334   -3.924341   -3.309029
    133          1           0      -10.816486   -3.162309   -2.853577
    134          1           0      -10.870527   -5.660367   -3.482467
    135          1           0      -11.868600   -4.892131   -2.305324
    136          1           0       -2.660272   -1.136249   -0.784912
    137          1           0       -3.612910   -2.184847    0.353158
    138          1           0       -2.574531   -0.979099    0.971472
    139          1           0       -1.578710    0.764432   -0.518801
    140          1           0       -1.227219    1.002530    1.160495
    141          1           0       -0.925108    2.235683   -0.139195
    142          1           0       -6.876100    5.619381   -0.130725
    143          1           0       -9.541274    5.754078    1.065807
    144          1           0       -6.584205    4.881996    2.617033
    145          1           0       -7.986893    5.889964    2.608817
    146          1           0       -6.491202    6.511733    1.924262
    147          1           0      -10.050156    5.367328   -1.777119
    148          1           0       -8.483045    5.938734   -1.791357
    149          1           0       -9.225023    7.985609   -1.590126
    150          1           0      -10.049197    7.493543   -0.067234
    151          1           0      -10.858359    7.316936   -1.689692
    152          1           0      -14.687519    2.368865   -0.885004
    153          1           0      -13.418266    3.700252   -0.689586
    154          1           0      -14.147790    2.909488    0.707609
    155          1           0      -12.605373   -2.642428   -1.689750
    156          1           0      -14.219970   -4.904391    1.577842
    157          1           0      -12.599665   -5.595015    1.565444
    158          1           0      -13.679710   -6.220628    0.450928
 ---------------------------------------------------------------------

 SCF Done:  E(RwB97XD) =  -4070.61568619     A.U. after   19 cycles

 Excitation energies and oscillator strengths:

 Excited State   1:      Singlet-A      1.6206 eV  765.05 nm  f=0.5767  <S**2>=0.000
     310 -> 316       -0.17277
     311 -> 313       -0.16872
     312 -> 314        0.66385
     310 <- 316       -0.11277
 This state for optimization and/or second-order correction.
 Total Energy, E(TD-HF/TD-DFT) =  -4070.55613039
 Copying the excited state density for this state as the 1-particle RhoCI density.

 Excited State   2:      Singlet-A      1.6712 eV  741.87 nm  f=0.2524  <S**2>=0.000
     309 -> 315        0.16656
     311 -> 313        0.66574
     312 -> 314        0.16706
     309 <- 315        0.10836

 Excited State   3:      Singlet-A      2.0914 eV  592.82 nm  f=0.1492  <S**2>=0.000
     309 -> 313        0.66053
     311 -> 315       -0.23077

 Excited State   4:      Singlet-A      2.1431 eV  578.51 nm  f=0.1346  <S**2>=0.000
     310 -> 314        0.64732
     312 -> 316        0.26684

 Excited State   5:      Singlet-A      3.2225 eV  384.75 nm  f=0.0000  <S**2>=0.000
     312 -> 313        0.70664

 The electronic state is 1-A.
 Alpha  occ. eigenvalues --  -46.95846 -46.94862 -19.32018 -19.30374 -19.24409
 Alpha  occ. eigenvalues --  -19.24334 -19.24176 -19.24008 -19.23623 -19.23355
 Alpha  occ. eigenvalues --  -14.47646 -14.46544 -14.46387 -14.46202 -14.44491
 Alpha  occ. eigenvalues --  -14.43891 -14.43543 -14.42723 -10.43228 -10.42216
 Alpha  occ. eigenvalues --  -10.39913 -10.39602 -10.39434 -10.38991 -10.36342
 Alpha  occ. eigenvalues --  -10.36197 -10.35904 -10.35289 -10.35275 -10.35145
 Alpha  occ. eigenvalues --  -10.35004 -10.34878 -10.34698 -10.34394 -10.34167
 Alpha  occ. eigenvalues --  -10.34159 -10.34127 -10.33573 -10.33491 -10.33400
 Alpha  occ. eigenvalues --  -10.33091 -10.32913 -10.32747 -10.32674 -10.32533
 Alpha  occ. eigenvalues --  -10.32498 -10.32492 -10.32479 -10.32476 -10.32261
 Alpha  occ. eigenvalues --  -10.32213 -10.32165 -10.32059 -10.32042 -10.31956
 Alpha  occ. eigenvalues --  -10.31934 -10.31912 -10.31906 -10.31888 -10.31751
 Alpha  occ. eigenvalues --  -10.31750 -10.31582 -10.31205 -10.31044 -10.30889
 Alpha  occ. eigenvalues --  -10.30629 -10.30561 -10.30529 -10.30512 -10.30494
 Alpha  occ. eigenvalues --  -10.30407 -10.30343 -10.30196 -10.30147 -10.30144
 Alpha  occ. eigenvalues --  -10.29854 -10.29725 -10.29670 -10.29613 -10.29534
 Alpha  occ. eigenvalues --  -10.29516 -10.29338 -10.29216 -10.28815 -10.28752
 Alpha  occ. eigenvalues --  -10.28399  -3.21692  -3.20927  -1.95287  -1.94783
 Alpha  occ. eigenvalues --   -1.94672  -1.94482  -1.94058  -1.93905  -1.20449
 Alpha  occ. eigenvalues --   -1.18634  -1.12915  -1.11157  -1.10753  -1.10597
 Alpha  occ. eigenvalues --   -1.09464  -1.08253  -1.07633  -1.06574  -1.06519
 Alpha  occ. eigenvalues --   -1.05446  -1.05414  -1.05041  -1.04588  -1.03819
 Alpha  occ. eigenvalues --   -0.94036  -0.93931  -0.91632  -0.91310  -0.90459
 Alpha  occ. eigenvalues --   -0.90416  -0.90104  -0.90061  -0.89875  -0.89175
 Alpha  occ. eigenvalues --   -0.88945  -0.88816  -0.88254  -0.87718  -0.86855
 Alpha  occ. eigenvalues --   -0.86051  -0.85924  -0.85807  -0.84877  -0.84469
 Alpha  occ. eigenvalues --   -0.83938  -0.83590  -0.83428  -0.83125  -0.82756
 Alpha  occ. eigenvalues --   -0.82544  -0.80997  -0.80087  -0.79617  -0.79510
 Alpha  occ. eigenvalues --   -0.79402  -0.78691  -0.78193  -0.78087  -0.77300
 Alpha  occ. eigenvalues --   -0.76677  -0.74841  -0.74373  -0.73843  -0.73294
 Alpha  occ. eigenvalues --   -0.72006  -0.71190  -0.70633  -0.70499  -0.69819
 Alpha  occ. eigenvalues --   -0.69660  -0.69512  -0.68829  -0.67611  -0.67383
 Alpha  occ. eigenvalues --   -0.67338  -0.66999  -0.66809  -0.66616  -0.66528
 Alpha  occ. eigenvalues --   -0.66389  -0.64840  -0.64316  -0.63193  -0.62359
 Alpha  occ. eigenvalues --   -0.61881  -0.61346  -0.61075  -0.60715  -0.60662
 Alpha  occ. eigenvalues --   -0.60368  -0.59932  -0.59668  -0.59372  -0.59357
 Alpha  occ. eigenvalues --   -0.58340  -0.58104  -0.57961  -0.57880  -0.57573
 Alpha  occ. eigenvalues --   -0.57481  -0.57421  -0.57030  -0.56483  -0.56193
 Alpha  occ. eigenvalues --   -0.55371  -0.55353  -0.55221  -0.55153  -0.55027
 Alpha  occ. eigenvalues --   -0.54817  -0.54725  -0.54584  -0.54407  -0.54169
 Alpha  occ. eigenvalues --   -0.53916  -0.53773  -0.53635  -0.53114  -0.53055
 Alpha  occ. eigenvalues --   -0.53021  -0.52641  -0.52543  -0.52410  -0.52341
 Alpha  occ. eigenvalues --   -0.52170  -0.51896  -0.51784  -0.51652  -0.51206
 Alpha  occ. eigenvalues --   -0.51076  -0.50952  -0.50902  -0.50614  -0.50579
 Alpha  occ. eigenvalues --   -0.50561  -0.50408  -0.50388  -0.50227  -0.50125
 Alpha  occ. eigenvalues --   -0.49926  -0.49561  -0.49331  -0.49253  -0.49215
 Alpha  occ. eigenvalues --   -0.48844  -0.48576  -0.48559  -0.48421  -0.48419
 Alpha  occ. eigenvalues --   -0.48061  -0.48011  -0.47943  -0.47884  -0.47711
 Alpha  occ. eigenvalues --   -0.47495  -0.47202  -0.47125  -0.46929  -0.46740
 Alpha  occ. eigenvalues --   -0.46462  -0.46360  -0.46357  -0.46096  -0.45933
 Alpha  occ. eigenvalues --   -0.45753  -0.45644  -0.45466  -0.45434  -0.45287
 Alpha  occ. eigenvalues --   -0.45153  -0.44955  -0.44827  -0.44716  -0.44564
 Alpha  occ. eigenvalues --   -0.44491  -0.44418  -0.44288  -0.44130  -0.43926
 Alpha  occ. eigenvalues --   -0.43681  -0.43489  -0.43385  -0.43286  -0.43240
 Alpha  occ. eigenvalues --   -0.43094  -0.42921  -0.42817  -0.42514  -0.42348
 Alpha  occ. eigenvalues --   -0.42102  -0.41661  -0.41526  -0.41234  -0.41180
 Alpha  occ. eigenvalues --   -0.40715  -0.40200  -0.39969  -0.39739  -0.39516
 Alpha  occ. eigenvalues --   -0.38994  -0.38954  -0.38728  -0.38490  -0.38443
 Alpha  occ. eigenvalues --   -0.38132  -0.38035  -0.36344  -0.36263  -0.36074
 Alpha  occ. eigenvalues --   -0.35605  -0.35180  -0.35125  -0.34288  -0.33561
 Alpha  occ. eigenvalues --   -0.33296  -0.33284  -0.33087  -0.32680  -0.32239
 Alpha  occ. eigenvalues --   -0.32148  -0.31474  -0.30769  -0.26118  -0.25645
 Alpha  occ. eigenvalues --   -0.23720  -0.22656
 Alpha virt. eigenvalues --   -0.07847  -0.06967   0.00520   0.00907   0.01859
 Alpha virt. eigenvalues --    0.02336   0.04269   0.04386   0.04800   0.05018
 Alpha virt. eigenvalues --    0.06460   0.06991   0.07443   0.07968   0.08212

 Mulliken charges:
               1
     1  Mg   0.940352
     2  C    0.025434
     3  C   -0.076284
     4  C   -0.054222
     5  C   -0.071124
     6  N   -0.396574
     7  C   -0.020304
     8  C   -0.029204
     9  C   -0.089423
    10  C    0.104745
    11  C    0.044271
    12  C    0.022516
    13  C   -0.128750
    14  H    0.030065
    15  N   -0.379773
    16  C    0.094977
    17  C   -0.112073
    18  C   -0.048509
    19  C    0.101750
    20  C    0.052986
    21  C    0.041237
    22  O   -0.259044
    23  C   -0.009034
    24  N   -0.351466
    25  C    0.069171
    26  C   -0.145210
    27  C   -0.030055
    28  C    0.038947
    29  C    0.014159
    30  C   -0.014446
    31  C   -0.051413
    32  N   -0.417980
    33  C    0.151457
    34  C   -0.204597
    35  C   -0.041658
    36  C    0.088401
    37  C    0.076795
    38  C    0.161116
    39  O   -0.202537
    40  C   -0.129062
    41  C    0.263400
    42  O   -0.280176
    43  O   -0.330477
    44  C    0.127179
    45  H   -0.027638
    46  H    0.025143
    47  H   -0.000398
    48  H    0.031548
    49  H    0.031467
    50  H    0.056373
    51  H    0.033830
    52  H    0.025817
    53  H    0.024050
    54  H    0.044317
    55  H    0.046879
    56  H    0.062259
    57  H    0.028584
    58  H    0.048943
    59  H    0.055209
    60  H    0.043872
    61  H    0.044883
    62  H    0.064183
    63  H    0.043964
    64  H    0.031197
    65  H    0.043541
    66  H    0.032726
    67  H    0.040385
    68  H    0.030034
    69  H    0.031455
    70  H    0.055055
    71  H    0.044056
    72  H    0.033470
    73  H    0.035925
    74  H    0.043502
    75  H    0.057434
    76  H    0.080722
    77  H    0.052994
    78  H    0.078787
    79  H    0.049871
    80  Mg   0.966133
    81  C   -0.049186
    82  C   -0.089297
    83  C   -0.059803
    84  C   -0.106455
    85  N   -0.317369
    86  C    0.011186
    87  C   -0.040312
    88  C   -0.105453
    89  C    0.050191
    90  C   -0.005175
    91  C   -0.008489
    92  C   -0.109671
    93  H    0.017160
    94  N   -0.388116
    95  C    0.163817
    96  C   -0.187515
    97  C   -0.058998
    98  C    0.115379
    99  C    0.051126
   100  C    0.080793
   101  O   -0.220025
   102  C   -0.036917
   103  N   -0.403502
   104  C    0.019415
   105  C   -0.074984
   106  C   -0.053840
   107  C    0.103207
   108  C    0.032780
   109  C   -0.056309
   110  C   -0.031277
   111  N   -0.481535
   112  C    0.161588
   113  C   -0.187396
   114  C   -0.019334
   115  C    0.159814
   116  C    0.089918
   117  C    0.119681
   118  O   -0.226891
   119  C   -0.061733
   120  C    0.257976
   121  O   -0.245550
   122  O   -0.357664
   123  C    0.146437
   124  H   -0.009173
   125  H    0.024233
   126  H    0.000721
   127  H    0.044210
   128  H    0.046439
   129  H    0.047791
   130  H    0.045855
   131  H    0.037788
   132  H    0.029847
   133  H    0.028170
   134  H    0.044016
   135  H    0.052339
   136  H    0.065917
   137  H    0.038671
   138  H    0.034053
   139  H    0.035534
   140  H    0.078091
   141  H    0.047961
   142  H    0.043332
   143  H    0.035577
   144  H    0.053509
   145  H    0.026337
   146  H    0.041463
   147  H    0.029229
   148  H    0.020147
   149  H    0.036252
   150  H    0.025334
   151  H    0.038766
   152  H    0.066323
   153  H    0.037006
   154  H    0.055455
   155  H    0.057613
   156  H    0.070371
   157  H    0.046981
   158  H    0.060036
 Sum of Mulliken charges =  -0.00000

 Dipole moment (field-independent basis, Debye):
    X=              6.0249    Y=             -2.6855    Z=             -9.2665  Tot=             11.3745
 Quadrupole moment (field-independent basis, Debye-Ang):
   XX=           -565.6419   YY=           -448.6932   ZZ=           -520.3131
   XY=            -33.6474   XZ=            -29.8449   YZ=             20.0083

 Normal termination of Gaussian 16 at Sun Sep 19 01:30:27 2021.
