 Gaussian 16, Revision A.03,
 Gaussian 16:  ES64L-G16RevA.03 25-Dec-2016

 --------------------------------
 #p wB97XD/Def2SVP td=(nstates=5)
 --------------------------------

 --------------------------------
 TDDFT excited states in gaussian
 --------------------------------
 Symbolic Z-matrix:
 Charge =  0 Multiplicity = 1

                         Standard orientation:
 ---------------------------------------------------------------------
 Center     Atomic      Atomic             Coordinates (Angstroms)
 Number     Number       Type             X           Y           Z
 ---------------------------------------------------------------------
      1         12           0       -0.756077    0.161410   -0.439919
      2          6           0        2.772076    0.267154    0.204414
      3          6           0       -0.444468   -3.370978   -0.009791
      4          6           0       -4.070168   -0.153878    0.014236
      5          6           0       -0.852251    3.560535   -0.075213
      6          7           0        0.959815   -1.305977    0.070929
      7          6           0        2.285572   -1.044040    0.258642
      8          6           0        3.106342   -2.352122    0.533943
      9          6           0        2.068975   -3.471849    0.043155
     10          6           0        0.771771   -2.682092    0.114901
     11          6           0        2.302815   -3.978481   -1.361588
     12          6           0        3.652878   -2.436647    1.949493
     13          6           0        5.118574   -2.912290    2.124199
     14          1           0        5.448458   -4.416734    2.555109
     15          7           0       -2.145138   -1.578406   -0.140752
     16          6           0       -1.780011   -2.939915   -0.090541
     17          6           0       -3.000165   -3.750879    0.002553
     18          6           0       -4.087881   -2.792239   -0.037930
     19          6           0       -3.486813   -1.477658    0.030782
     20          6           0       -3.087029   -5.223143    0.151933
     21          6           0       -5.550450   -3.145790   -0.139750
     22          8           0       -5.844990   -4.300291   -0.353297
     23          6           0       -6.680829   -2.151601   -0.006018
     24          7           0       -2.148085    1.498962    0.024373
     25          6           0       -3.487714    1.121642   -0.004079
     26          6           0       -4.322537    2.384120    0.222888
     27          6           0       -3.308723    3.560836   -0.022997
     28          6           0       -2.014412    2.821408   -0.072774
     29          6           0       -5.690549    2.519031   -0.541401
     30          6           0       -3.331029    4.768201    0.963936
     31          6           0       -3.506041    6.137359    0.392319
     32          7           0        0.619949    1.652015   -0.147869
     33          6           0        0.456804    3.025277   -0.093719
     34          6           0        1.762867    3.709956   -0.149115
     35          6           0        2.691855    2.613482    0.034927
     36          6           0        1.932979    1.439110    0.038268
     37          6           0        2.089713    5.175800   -0.261474
     38          6           0        4.146920    2.301697    0.151483
     39          8           0        5.095298    3.028691    0.236996
     40          6           0        4.199490    0.794148    0.377114
     41          6           0        5.111753    0.208090   -0.658762
     42          8           0        4.781681    0.258175   -1.824172
     43          8           0        6.271674   -0.461365   -0.165350
     44          6           0        7.077251   -1.225072   -1.165892
     45          1           0       -0.384969   -4.459037    0.063431
     46          1           0       -5.151687   -0.079780    0.139607
     47          1           0       -0.920658    4.646876   -0.159145
     48          1           0        3.926977   -2.471537   -0.172864
     49          1           0        1.982563   -4.280152    0.769199
     50          1           0        1.875846   -3.259938   -2.060847
     51          1           0        1.857778   -4.971609   -1.421150
     52          1           0        3.327725   -4.091909   -1.716381
     53          1           0        3.038877   -3.175647    2.463332
     54          1           0        3.410828   -1.502082    2.455486
     55          1           0        5.505278   -2.233634    2.884832
     56          1           0        5.730498   -2.762739    1.234573
     57          1           0       -3.271763   -5.618375   -0.846491
     58          1           0       -3.987073   -5.472206    0.714146
     59          1           0       -2.266957   -5.779790    0.607086
     60          1           0       -7.681696   -2.582567    0.009768
     61          1           0       -6.607986   -1.510812   -0.884844
     62          1           0       -6.672107   -1.440793    0.819455
     63          1           0       -4.637036    2.250023    1.258286
     64          1           0       -3.409457    3.881157   -1.059557
     65          1           0       -5.714080    1.856791   -1.407257
     66          1           0       -5.877849    3.559222   -0.807280
     67          1           0       -6.517522    2.267609    0.122319
     68          1           0       -2.411442    4.758490    1.548964
     69          1           0       -4.090803    4.550895    1.714567
     70          1           0       -2.555964    6.668709    0.444125
     71          1           0       -4.229763    6.692215    0.989210
     72          1           0       -3.835607    6.213620   -0.643635
     73          1           0        3.100531    5.323474   -0.641106
     74          1           0        1.974574    5.593754    0.738997
     75          1           0        1.307678    5.645427   -0.858386
     76          1           0        4.480245    0.630725    1.417690
     77          1           0        7.700763   -0.529211   -1.727497
     78          1           0        6.430914   -1.708725   -1.897998
     79          1           0        7.677334   -1.991484   -0.675745
 ---------------------------------------------------------------------

 SCF Done:  E(RwB97XD) =  -2035.30410014     A.U. after   18 cycles

 Excitation energies and oscillator strengths:

 Excited State   1:      Singlet-A      1.6113 eV  769.45 nm  f=0.3989  <S**2>=0.000
     155 ->158         0.17533
     156 ->157         0.68621
     155 <-158         0.11593
 This state for optimization and/or second-order correction.
 Total Energy, E(TD-HF/TD-DFT) =  -2035.24488451
 Copying the excited state density for this state as the 1-particle RhoCI density.

 Excited State   2:      Singlet-A      2.1827 eV  568.04 nm  f=0.1247  <S**2>=0.000
     155 ->157         0.63920
     156 ->158        -0.28437

 Excited State   3:      Singlet-A      3.1515 eV  393.42 nm  f=0.0019  <S**2>=0.000
     153 ->157        -0.12186
     154 ->157         0.66858
     156 ->158         0.10220

 Excited State   4:      Singlet-A      3.3275 eV  372.61 nm  f=0.0018  <S**2>=0.000
     153 ->157         0.66724
     154 ->157         0.10847
     156 ->158         0.11685

 Excited State   5:      Singlet-A      3.6186 eV  342.63 nm  f=0.8204  <S**2>=0.000
     150 ->157         0.10414
     151 ->157        -0.13002
     155 ->157         0.29428
     156 ->158         0.60057
     155 <-157        -0.11853

 The electronic state is 1-A.
 Alpha  occ. eigenvalues --  -46.95671 -19.30518 -19.25685 -19.24798 -19.22976
 Alpha  occ. eigenvalues --  -14.47408 -14.46272 -14.43950 -14.43752 -10.44120
 Alpha  occ. eigenvalues --  -10.39448 -10.38454 -10.36043 -10.35428 -10.35340
 Alpha  occ. eigenvalues --  -10.34709 -10.34487 -10.34309 -10.34292 -10.33512
 Alpha  occ. eigenvalues --  -10.33234 -10.33123 -10.32908 -10.32858 -10.32794
 Alpha  occ. eigenvalues --  -10.32703 -10.32097 -10.32069 -10.31835 -10.31635
 Alpha  occ. eigenvalues --  -10.31301 -10.31049 -10.30860 -10.30609 -10.30497
 Alpha  occ. eigenvalues --  -10.30398 -10.30368 -10.30297 -10.29912 -10.29747
 Alpha  occ. eigenvalues --  -10.29632 -10.29544 -10.29283  -3.21706  -1.95237
 Alpha  occ. eigenvalues --   -1.94827  -1.94677  -1.17535  -1.13999  -1.12406
 Alpha  occ. eigenvalues --   -1.10106  -1.06585  -1.05598  -1.04808  -1.03543
 Alpha  occ. eigenvalues --   -0.94762  -0.91271  -0.90768  -0.90353  -0.89538
 Alpha  occ. eigenvalues --   -0.88179  -0.87593  -0.86407  -0.85858  -0.84412
 Alpha  occ. eigenvalues --   -0.83744  -0.82501  -0.82181  -0.80091  -0.79441
 Alpha  occ. eigenvalues --   -0.78751  -0.78263  -0.77171  -0.74651  -0.73758
 Alpha  occ. eigenvalues --   -0.71449  -0.70903  -0.69923  -0.68691  -0.67861
 Alpha  occ. eigenvalues --   -0.67069  -0.66559  -0.66327  -0.64350  -0.61809
 Alpha  occ. eigenvalues --   -0.61510  -0.61198  -0.61049  -0.60334  -0.59638
 Alpha  occ. eigenvalues --   -0.58502  -0.57607  -0.57428  -0.56238  -0.55837
 Alpha  occ. eigenvalues --   -0.55316  -0.55062  -0.54847  -0.54173  -0.53773
 Alpha  occ. eigenvalues --   -0.53676  -0.53243  -0.53033  -0.52843  -0.52346
 Alpha  occ. eigenvalues --   -0.51872  -0.51814  -0.51681  -0.51246  -0.51019
 Alpha  occ. eigenvalues --   -0.50651  -0.50532  -0.50098  -0.49607  -0.49014
 Alpha  occ. eigenvalues --   -0.48938  -0.48375  -0.48345  -0.48135  -0.47988
 Alpha  occ. eigenvalues --   -0.47907  -0.47755  -0.47204  -0.46908  -0.46602
 Alpha  occ. eigenvalues --   -0.45723  -0.45570  -0.45406  -0.45249  -0.44820
 Alpha  occ. eigenvalues --   -0.44555  -0.44489  -0.44398  -0.43838  -0.43556
 Alpha  occ. eigenvalues --   -0.43024  -0.42734  -0.42474  -0.42158  -0.41188
 Alpha  occ. eigenvalues --   -0.40421  -0.39656  -0.39357  -0.39162  -0.38615
 Alpha  occ. eigenvalues --   -0.37769  -0.37001  -0.36395  -0.35461  -0.33637
 Alpha  occ. eigenvalues --   -0.33324  -0.32403  -0.31866  -0.30918  -0.26230
 Alpha  occ. eigenvalues --   -0.22923
 Alpha virt. eigenvalues --   -0.07346   0.00431   0.02716   0.04231   0.04818
 Alpha virt. eigenvalues --    0.06510   0.06915   0.07974   0.09746   0.10372
 Alpha virt. eigenvalues --    0.11684   0.12019   0.12411   0.12815   0.13354

 Mulliken charges:
               1
     1  Mg   0.981509
     2  C   -0.076476
     3  C   -0.054030
     4  C   -0.080007
     5  C   -0.124325
     6  N   -0.312920
     7  C   -0.015858
     8  C   -0.066107
     9  C   -0.119827
    10  C    0.048978
    11  C    0.041535
    12  C    0.037379
    13  C   -0.107635
    14  H    0.023534
    15  N   -0.419661
    16  C    0.112342
    17  C   -0.143739
    18  C   -0.073733
    19  C    0.168794
    20  C    0.081144
    21  C    0.035434
    22  O   -0.234907
    23  C   -0.012029
    24  N   -0.451665
    25  C    0.092069
    26  C   -0.128710
    27  C   -0.033726
    28  C    0.089057
    29  C    0.013848
    30  C    0.001023
    31  C   -0.047257
    32  N   -0.442319
    33  C    0.135270
    34  C   -0.189467
    35  C   -0.106284
    36  C    0.178278
    37  C    0.090760
    38  C    0.132707
    39  O   -0.174076
    40  C   -0.015177
    41  C    0.278407
    42  O   -0.234444
    43  O   -0.404994
    44  C    0.133361
    45  H   -0.006121
    46  H   -0.037526
    47  H   -0.011843
    48  H    0.025658
    49  H    0.028726
    50  H    0.043272
    51  H    0.042626
    52  H    0.036711
    53  H    0.037371
    54  H    0.040603
    55  H    0.055486
    56  H    0.048136
    57  H    0.055523
    58  H    0.053856
    59  H    0.036860
    60  H    0.051240
    61  H    0.050091
    62  H    0.057937
    63  H    0.051515
    64  H    0.033587
    65  H    0.044828
    66  H    0.038342
    67  H    0.031055
    68  H    0.038632
    69  H    0.025382
    70  H    0.036251
    71  H    0.036909
    72  H    0.035849
    73  H    0.071590
    74  H    0.053870
    75  H    0.034431
    76  H    0.072714
    77  H    0.063790
    78  H    0.051498
    79  H    0.065095
 Sum of Mulliken charges =  -0.00000

 Dipole moment (field-independent basis, Debye):
    X=             -1.4113    Y=              1.1403    Z=             -0.0478  Tot=              1.8150
 Quadrupole moment (field-independent basis, Debye-Ang):
   XX=           -260.1697   YY=           -249.2796   ZZ=           -257.4350
   XY=            -49.3995   XZ=             -4.6255   YZ=              0.7020

 Normal termination of Gaussian 16 at Sun Sep 19 15:17:29 2021.
