 Gaussian 16, Revision A.03,
 Gaussian 16:  ES64L-G16RevA.03 25-Dec-2016

 --------------------------------
 #p wB97XD/Def2SVP td=(nstates=5)
 --------------------------------

 --------------------------------
 TDDFT excited states in gaussian
 --------------------------------
 Symbolic Z-matrix:
 Charge =  0 Multiplicity = 1

                         Standard orientation:
 ---------------------------------------------------------------------
 Center     Atomic      Atomic             Coordinates (Angstroms)
 Number     Number       Type             X           Y           Z
 ---------------------------------------------------------------------
      1         12           0       17.792787   -0.665066    0.148106
      2          6           0       15.852823    2.189307    0.753530
      3          6           0       20.585584    1.460812   -0.317645
      4          6           0       19.619619   -3.371848   -0.782215
      5          6           0       14.882900   -2.507139   -0.097563
      6          7           0       18.153809    1.509098    0.381751
      7          6           0       17.201917    2.434759    0.818846
      8          6           0       17.935432    3.735938    1.306240
      9          6           0       19.382317    3.487741    0.864363
     10          6           0       19.380006    2.060525    0.213593
     11          6           0       19.836019    4.579722   -0.141603
     12          6           0       17.703699    3.892745    2.804142
     13          6           0       17.721264    5.296427    3.386857
     14          1           0       18.278316    6.443765    2.514102
     15          7           0       19.815956   -0.971171   -0.457314
     16          6           0       20.789826    0.033400   -0.613788
     17          6           0       22.040752   -0.536459   -1.082663
     18          6           0       21.853440   -1.971609   -1.176947
     19          6           0       20.381596   -2.152883   -0.818015
     20          6           0       23.348258    0.251908   -1.231480
     21          6           0       22.824830   -3.078408   -1.539761
     22          8           0       22.458430   -4.246077   -1.540494
     23          6           0       24.260118   -2.744263   -1.681386
     24          7           0       17.285643   -2.687095   -0.299500
     25          6           0       18.237941   -3.623948   -0.565666
     26          6           0       17.588831   -5.032053   -0.609542
     27          6           0       16.057845   -4.778132   -0.323957
     28          6           0       16.043988   -3.241981   -0.113009
     29          6           0       17.866494   -5.707768   -1.964323
     30          6           0       15.501869   -5.487787    0.939132
     31          6           0       14.720556   -6.727341    0.514432
     32          7           0       15.730981   -0.310451    0.177260
     33          6           0       14.648121   -1.105239   -0.000809
     34          6           0       13.458514   -0.222398   -0.072849
     35          6           0       13.848009    1.026562    0.313604
     36          6           0       15.259346    0.923659    0.409194
     37          6           0       12.069046   -0.782185   -0.327314
     38          6           0       13.425953    2.393348    0.647837
     39          8           0       12.303524    2.883799    0.626578
     40          6           0       14.700193    3.127453    1.018209
     41          6           0       14.685062    4.366092    0.224062
     42          8           0       14.952916    4.554625   -0.970277
     43          8           0       14.222491    5.375780    1.042970
     44          6           0       14.061251    6.680651    0.439280
     45          1           0       21.438984    2.139540   -0.372796
     46          1           0       20.300608   -4.201078   -0.985082
     47          1           0       14.011957   -3.140808   -0.277912
     48          1           0       17.426510    4.485355    0.698837
     49          1           0       19.997129    3.674829    1.744710
     50          1           0       19.986842    4.229578   -1.162896
     51          1           0       20.869504    4.812089    0.113762
     52          1           0       19.134978    5.412763   -0.189643
     53          1           0       18.442501    3.231375    3.257780
     54          1           0       16.761679    3.412088    3.065449
     55          1           0       18.249269    5.269919    4.339108
     56          1           0       16.663208    5.444981    3.605459
     57          1           0       23.232367    1.328646   -1.106314
     58          1           0       23.772062    0.082809   -2.222278
     59          1           0       24.087000   -0.171496   -0.551996
     60          1           0       24.638181   -2.422065   -0.710830
     61          1           0       24.429707   -2.098886   -2.543229
     62          1           0       24.862501   -3.627920   -1.892293
     63          1           0       18.081059   -5.642929    0.146844
     64          1           0       15.552233   -5.021408   -1.259363
     65          1           0       16.996660   -6.020712   -2.541139
     66          1           0       18.370546   -6.605242   -1.606393
     67          1           0       18.405678   -5.087059   -2.679386
     68          1           0       14.694383   -4.900345    1.376507
     69          1           0       16.269678   -5.764861    1.661739
     70          1           0       15.092710   -7.504867    1.181380
     71          1           0       14.991898   -7.113235   -0.467899
     72          1           0       13.635711   -6.645578    0.587273
     73          1           0       12.038970   -1.814328   -0.677384
     74          1           0       11.498422   -0.182024   -1.034984
     75          1           0       11.562956   -0.882337    0.633512
     76          1           0       14.667265    3.325999    2.088976
     77          1           0       13.473580    6.551715   -0.469992
     78          1           0       15.005148    7.159265    0.177426
     79          1           0       13.312978    7.176319    1.056816
     80         12           0      -17.914553   -0.684642    0.146086
     81          6           0      -17.445681    2.603024   -0.946413
     82          6           0      -16.958380    0.343667    3.298076
     83          6           0      -17.671119   -3.952979    1.099907
     84          6           0      -18.205353   -1.663269   -3.163100
     85          7           0      -17.382618    1.250501    1.017345
     86          6           0      -17.471517    2.454080    0.436992
     87          6           0      -17.399084    3.641556    1.408096
     88          6           0      -17.051293    2.913679    2.762955
     89          6           0      -17.223708    1.336791    2.390365
     90          6           0      -15.673826    3.212999    3.392784
     91          6           0      -18.663911    4.498611    1.462827
     92          6           0      -18.394727    5.953881    1.886863
     93          1           0      -16.960421    6.384755    2.224520
     94          7           0      -17.503123   -1.683259    1.954841
     95          6           0      -17.187225   -1.069915    3.189097
     96          6           0      -17.047116   -2.108223    4.190252
     97          6           0      -17.188690   -3.394492    3.547766
     98          6           0      -17.500455   -3.059124    2.159252
     99          6           0      -16.880411   -1.764506    5.644879
    100          6           0      -17.207664   -4.864043    4.166158
    101          8           0      -17.477534   -5.855636    3.532906
    102          6           0      -16.844384   -4.979585    5.630649
    103          7           0      -17.840070   -2.521260   -0.883260
    104          6           0      -17.776816   -3.746745   -0.287209
    105          6           0      -17.879775   -4.922150   -1.327649
    106          6           0      -18.113102   -4.150396   -2.625387
    107          6           0      -18.041633   -2.698102   -2.192547
    108          6           0      -16.777823   -6.054155   -1.408124
    109          6           0      -19.480452   -4.509589   -3.252802
    110          6           0      -20.751610   -3.808967   -2.723944
    111          7           0      -18.001849    0.231115   -1.735829
    112          6           0      -18.123786   -0.286149   -2.999451
    113          6           0      -18.128238    0.745512   -3.981787
    114          6           0      -17.848436    1.960184   -3.208168
    115          6           0      -17.766060    1.577616   -1.926085
    116          6           0      -18.310278    0.706300   -5.434429
    117          6           0      -17.526061    3.378341   -3.284892
    118          8           0      -17.551732    4.147463   -4.251642
    119          6           0      -17.254652    3.882735   -1.836952
    120          6           0      -15.926702    4.475729   -1.716405
    121          8           0      -14.868086    3.863389   -1.623585
    122          8           0      -16.013942    5.825043   -1.951044
    123          6           0      -14.799163    6.586847   -2.300393
    124          1           0      -16.623483    0.754725    4.252930
    125          1           0      -17.778078   -4.990556    1.422998
    126          1           0      -18.393473   -1.957174   -4.197802
    127          1           0      -16.524834    4.263382    1.216763
    128          1           0      -17.825405    3.019682    3.522125
    129          1           0      -15.979831    3.501093    4.398343
    130          1           0      -15.187457    4.042305    2.879725
    131          1           0      -15.034058    2.331481    3.349520
    132          1           0      -19.421509    4.069305    2.117338
    133          1           0      -19.136990    4.532609    0.481064
    134          1           0      -19.043821    6.028836    2.759552
    135          1           0      -18.829712    6.668787    1.186975
    136          1           0      -16.699698   -0.689820    5.669884
    137          1           0      -16.039546   -2.328585    6.049002
    138          1           0      -17.753467   -2.020592    6.246998
    139          1           0      -15.790341   -4.877447    5.890882
    140          1           0      -17.248373   -5.923085    5.997650
    141          1           0      -17.420545   -4.163461    6.066494
    142          1           0      -18.780106   -5.424373   -0.974441
    143          1           0      -17.296618   -4.421989   -3.293511
    144          1           0      -16.414725   -6.265424   -2.413229
    145          1           0      -17.226871   -6.985674   -1.065020
    146          1           0      -15.981543   -5.788914   -0.712012
    147          1           0      -19.570793   -5.589499   -3.142043
    148          1           0      -19.355428   -4.307122   -4.316917
    149          1           0      -21.498055   -4.601493   -2.677324
    150          1           0      -21.139826   -3.049143   -3.401830
    151          1           0      -20.614335   -3.279528   -1.781761
    152          1           0      -18.947245    1.546393   -5.709016
    153          1           0      -18.738473   -0.214211   -5.831297
    154          1           0      -17.375979    0.966264   -5.932355
    155          1           0      -18.053824    4.601328   -1.655775
    156          1           0      -13.902674    5.966328   -2.276436
    157          1           0      -14.674334    7.370368   -1.552584
    158          1           0      -15.055471    6.931051   -3.301738
 ---------------------------------------------------------------------

 SCF Done:  E(RwB97XD) =  -4070.61802924     A.U. after   20 cycles

 Excitation energies and oscillator strengths:

 Excited State   1:      Singlet-A      1.6257 eV  762.66 nm  f=0.3945  <S**2>=0.000
     309 -> 315        0.17888
     312 -> 314        0.68465
     309 <- 315        0.11344
 This state for optimization and/or second-order correction.
 Total Energy, E(TD-HF/TD-DFT) =  -4070.55828660
 Copying the excited state density for this state as the 1-particle RhoCI density.

 Excited State   2:      Singlet-A      1.6570 eV  748.26 nm  f=0.4095  <S**2>=0.000
     310 -> 316        0.18732
     311 -> 313        0.68177
     310 <- 316        0.11633

 Excited State   3:      Singlet-A      2.0776 eV  596.75 nm  f=0.1501  <S**2>=0.000
     310 -> 313        0.65641
     311 -> 316       -0.23987

 Excited State   4:      Singlet-A      2.1420 eV  578.83 nm  f=0.1185  <S**2>=0.000
     309 -> 314        0.64309
     312 -> 315       -0.27659

 Excited State   5:      Singlet-A      3.1036 eV  399.49 nm  f=0.0053  <S**2>=0.000
     307 -> 313       -0.12847
     308 -> 313        0.67538

 The electronic state is 1-A.
 Alpha  occ. eigenvalues --  -46.95437 -46.94555 -19.29653 -19.29068 -19.24923
 Alpha  occ. eigenvalues --  -19.24708 -19.24292 -19.24265 -19.23879 -19.23724
 Alpha  occ. eigenvalues --  -14.46840 -14.46769 -14.46427 -14.46313 -14.44742
 Alpha  occ. eigenvalues --  -14.44019 -14.43728 -14.42737 -10.43183 -10.42463
 Alpha  occ. eigenvalues --  -10.40126 -10.39467 -10.39362 -10.39068 -10.36060
 Alpha  occ. eigenvalues --  -10.35293 -10.35254 -10.35094 -10.34881 -10.34872
 Alpha  occ. eigenvalues --  -10.34838 -10.34674 -10.34661 -10.34642 -10.34620
 Alpha  occ. eigenvalues --  -10.34341 -10.34023 -10.33859 -10.33762 -10.33275
 Alpha  occ. eigenvalues --  -10.32989 -10.32805 -10.32787 -10.32676 -10.32517
 Alpha  occ. eigenvalues --  -10.32398 -10.32271 -10.32256 -10.32229 -10.32226
 Alpha  occ. eigenvalues --  -10.32108 -10.31808 -10.31792 -10.31768 -10.31741
 Alpha  occ. eigenvalues --  -10.31668 -10.31657 -10.31652 -10.31622 -10.31590
 Alpha  occ. eigenvalues --  -10.31578 -10.31423 -10.31421 -10.31117 -10.30894
 Alpha  occ. eigenvalues --  -10.30884 -10.30841 -10.30699 -10.30603 -10.30505
 Alpha  occ. eigenvalues --  -10.30382 -10.30313 -10.30242 -10.30187 -10.30156
 Alpha  occ. eigenvalues --  -10.29933 -10.29797 -10.29653 -10.29623 -10.29383
 Alpha  occ. eigenvalues --  -10.29299 -10.29260 -10.29105 -10.28785 -10.28758
 Alpha  occ. eigenvalues --  -10.28734  -3.21287  -3.20516  -1.94887  -1.94366
 Alpha  occ. eigenvalues --   -1.94286  -1.94106  -1.93636  -1.93495  -1.17926
 Alpha  occ. eigenvalues --   -1.17207  -1.13766  -1.12702  -1.12188  -1.11061
 Alpha  occ. eigenvalues --   -1.09022  -1.08786  -1.06406  -1.06279  -1.05287
 Alpha  occ. eigenvalues --   -1.04776  -1.04622  -1.04437  -1.03681  -1.03019
 Alpha  occ. eigenvalues --   -0.95304  -0.94012  -0.91099  -0.90995  -0.90610
 Alpha  occ. eigenvalues --   -0.90605  -0.90034  -0.89888  -0.89019  -0.88979
 Alpha  occ. eigenvalues --   -0.88782  -0.88353  -0.87988  -0.87495  -0.86233
 Alpha  occ. eigenvalues --   -0.86082  -0.85732  -0.85286  -0.84603  -0.84319
 Alpha  occ. eigenvalues --   -0.84182  -0.83836  -0.82909  -0.82817  -0.82091
 Alpha  occ. eigenvalues --   -0.81972  -0.80080  -0.80054  -0.79168  -0.79005
 Alpha  occ. eigenvalues --   -0.78708  -0.78688  -0.77834  -0.77781  -0.76922
 Alpha  occ. eigenvalues --   -0.76466  -0.74491  -0.74381  -0.73029  -0.72968
 Alpha  occ. eigenvalues --   -0.71692  -0.71019  -0.70381  -0.70373  -0.69852
 Alpha  occ. eigenvalues --   -0.69611  -0.69065  -0.68027  -0.67305  -0.66812
 Alpha  occ. eigenvalues --   -0.66671  -0.66629  -0.66585  -0.66402  -0.65866
 Alpha  occ. eigenvalues --   -0.65689  -0.64086  -0.63350  -0.62136  -0.61738
 Alpha  occ. eigenvalues --   -0.61581  -0.61036  -0.61035  -0.60992  -0.60728
 Alpha  occ. eigenvalues --   -0.60318  -0.60236  -0.59627  -0.59618  -0.59358
 Alpha  occ. eigenvalues --   -0.57831  -0.57778  -0.57695  -0.57339  -0.57074
 Alpha  occ. eigenvalues --   -0.56999  -0.56700  -0.56570  -0.55576  -0.55547
 Alpha  occ. eigenvalues --   -0.55472  -0.55299  -0.55233  -0.55222  -0.54835
 Alpha  occ. eigenvalues --   -0.54747  -0.54735  -0.54573  -0.54208  -0.54014
 Alpha  occ. eigenvalues --   -0.53854  -0.53791  -0.53642  -0.53504  -0.53297
 Alpha  occ. eigenvalues --   -0.52693  -0.52676  -0.52538  -0.52305  -0.52135
 Alpha  occ. eigenvalues --   -0.51815  -0.51582  -0.51534  -0.51477  -0.51268
 Alpha  occ. eigenvalues --   -0.51202  -0.51175  -0.50937  -0.50929  -0.50870
 Alpha  occ. eigenvalues --   -0.50543  -0.50403  -0.50103  -0.50053  -0.49990
 Alpha  occ. eigenvalues --   -0.49771  -0.49508  -0.49325  -0.49088  -0.49008
 Alpha  occ. eigenvalues --   -0.48634  -0.48621  -0.48285  -0.48148  -0.47996
 Alpha  occ. eigenvalues --   -0.47937  -0.47805  -0.47742  -0.47519  -0.47152
 Alpha  occ. eigenvalues --   -0.47145  -0.46896  -0.46880  -0.46680  -0.46524
 Alpha  occ. eigenvalues --   -0.46362  -0.46293  -0.46197  -0.46111  -0.45843
 Alpha  occ. eigenvalues --   -0.45551  -0.45508  -0.45339  -0.45282  -0.45122
 Alpha  occ. eigenvalues --   -0.45109  -0.44956  -0.44941  -0.44782  -0.44700
 Alpha  occ. eigenvalues --   -0.44618  -0.44599  -0.44230  -0.44229  -0.43880
 Alpha  occ. eigenvalues --   -0.43731  -0.43410  -0.43366  -0.43174  -0.42976
 Alpha  occ. eigenvalues --   -0.42968  -0.42753  -0.42476  -0.42291  -0.42114
 Alpha  occ. eigenvalues --   -0.41850  -0.41779  -0.40803  -0.40391  -0.40327
 Alpha  occ. eigenvalues --   -0.40264  -0.39892  -0.39867  -0.39706  -0.39656
 Alpha  occ. eigenvalues --   -0.39557  -0.38734  -0.38592  -0.38284  -0.38007
 Alpha  occ. eigenvalues --   -0.37744  -0.37641  -0.36281  -0.36271  -0.36033
 Alpha  occ. eigenvalues --   -0.35696  -0.35463  -0.34855  -0.33539  -0.33525
 Alpha  occ. eigenvalues --   -0.33490  -0.33367  -0.33061  -0.32753  -0.32439
 Alpha  occ. eigenvalues --   -0.32154  -0.31751  -0.30796  -0.25708  -0.25381
 Alpha  occ. eigenvalues --   -0.23068  -0.22720
 Alpha virt. eigenvalues --   -0.07233  -0.06998   0.00479   0.00660   0.02252
 Alpha virt. eigenvalues --    0.02689   0.04008   0.04635   0.05548   0.05722
 Alpha virt. eigenvalues --    0.07405   0.07492   0.07802   0.07819   0.08233

 Mulliken charges:
               1
     1  Mg   0.955763
     2  C   -0.016204
     3  C   -0.071980
     4  C   -0.061546
     5  C   -0.075363
     6  N   -0.370282
     7  C   -0.076433
     8  C   -0.019334
     9  C   -0.128213
    10  C    0.112575
    11  C    0.004227
    12  C    0.005661
    13  C   -0.087394
    14  H    0.044123
    15  N   -0.442756
    16  C    0.155606
    17  C   -0.170851
    18  C   -0.084777
    19  C    0.094765
    20  C    0.080500
    21  C    0.059026
    22  O   -0.231366
    23  C   -0.015818
    24  N   -0.372874
    25  C    0.091451
    26  C   -0.107466
    27  C   -0.062906
    28  C    0.055600
    29  C    0.009035
    30  C    0.009684
    31  C   -0.064274
    32  N   -0.405633
    33  C    0.114436
    34  C   -0.207827
    35  C   -0.016056
    36  C    0.137630
    37  C    0.069672
    38  C    0.119914
    39  O   -0.196891
    40  C   -0.032997
    41  C    0.261227
    42  O   -0.260747
    43  O   -0.368897
    44  C    0.150870
    45  H   -0.002638
    46  H    0.022726
    47  H   -0.004967
    48  H    0.035210
    49  H    0.041262
    50  H    0.033199
    51  H    0.028411
    52  H    0.050188
    53  H    0.018827
    54  H    0.026453
    55  H    0.050727
    56  H    0.056871
    57  H    0.044882
    58  H    0.041569
    59  H    0.050494
    60  H    0.068925
    61  H    0.058673
    62  H    0.044865
    63  H    0.042155
    64  H    0.041211
    65  H    0.028425
    66  H    0.042369
    67  H    0.055144
    68  H    0.035741
    69  H    0.040872
    70  H    0.024650
    71  H    0.026479
    72  H    0.047253
    73  H    0.017862
    74  H    0.060301
    75  H    0.049692
    76  H    0.082120
    77  H    0.044858
    78  H    0.059099
    79  H    0.053211
    80  Mg   0.959978
    81  C   -0.000684
    82  C   -0.090166
    83  C   -0.073979
    84  C   -0.086973
    85  N   -0.357183
    86  C   -0.011439
    87  C   -0.047837
    88  C   -0.148935
    89  C    0.067856
    90  C    0.032201
    91  C    0.017169
    92  C   -0.110773
    93  H    0.046928
    94  N   -0.477796
    95  C    0.165574
    96  C   -0.178480
    97  C   -0.089962
    98  C    0.129281
    99  C    0.057175
   100  C    0.082254
   101  O   -0.208454
   102  C   -0.022486
   103  N   -0.337963
   104  C    0.039903
   105  C   -0.081618
   106  C   -0.049157
   107  C    0.050941
   108  C    0.022580
   109  C   -0.042517
   110  C   -0.033353
   111  N   -0.449832
   112  C    0.142144
   113  C   -0.164995
   114  C   -0.034726
   115  C    0.132329
   116  C    0.085483
   117  C    0.094081
   118  O   -0.220664
   119  C   -0.059087
   120  C    0.274387
   121  O   -0.254716
   122  O   -0.379453
   123  C    0.128372
   124  H    0.001344
   125  H    0.020082
   126  H   -0.015932
   127  H    0.038904
   128  H    0.031142
   129  H    0.040067
   130  H    0.043162
   131  H    0.055472
   132  H    0.031015
   133  H    0.031032
   134  H    0.040451
   135  H    0.054345
   136  H    0.029129
   137  H    0.047902
   138  H    0.067718
   139  H    0.082060
   140  H    0.053734
   141  H    0.031761
   142  H    0.039711
   143  H    0.036138
   144  H    0.039828
   145  H    0.035616
   146  H    0.051012
   147  H    0.030098
   148  H    0.031102
   149  H    0.040312
   150  H    0.037204
   151  H    0.046618
   152  H    0.052915
   153  H    0.034571
   154  H    0.057906
   155  H    0.073256
   156  H    0.066970
   157  H    0.054427
   158  H    0.073520
 Sum of Mulliken charges =  -0.00000

 Dipole moment (field-independent basis, Debye):
    X=              2.4715    Y=             -0.8152    Z=              5.9630  Tot=              6.5062
 Quadrupole moment (field-independent basis, Debye-Ang):
   XX=           -291.7083   YY=           -493.6670   ZZ=           -491.3982
   XY=             28.2675   XZ=             -8.5622   YZ=             29.0220

 Normal termination of Gaussian 16 at Sun Sep 19 23:46:16 2021.
