 Gaussian 16, Revision A.03,
 Gaussian 16:  ES64L-G16RevA.03 25-Dec-2016

 --------------------------------
 #p wB97XD/Def2SVP td=(nstates=5)
 --------------------------------

 --------------------------------
 TDDFT excited states in gaussian
 --------------------------------
 Symbolic Z-matrix:
 Charge =  0 Multiplicity = 1

                         Standard orientation:
 ---------------------------------------------------------------------
 Center     Atomic      Atomic             Coordinates (Angstroms)
 Number     Number       Type             X           Y           Z
 ---------------------------------------------------------------------
      1         12           0       -0.505010    0.027823   -0.266996
      2          6           0        2.858038    0.121759    0.253662
      3          6           0       -0.352174   -3.394848    0.272641
      4          6           0       -3.859644   -0.001832   -0.401699
      5          6           0       -0.641012    3.541843   -0.129392
      6          7           0        1.059104   -1.422756    0.468762
      7          6           0        2.366802   -1.106864    0.555458
      8          6           0        3.194746   -2.238410    1.044833
      9          6           0        2.172987   -3.482272    0.668909
     10          6           0        0.838372   -2.740463    0.445194
     11          6           0        2.669204   -4.327787   -0.540995
     12          6           0        3.417437   -2.101434    2.542634
     13          6           0        2.152957   -1.967041    3.511532
     14          1           0        2.131718   -2.684302    4.855587
     15          7           0       -1.911014   -1.470039   -0.090768
     16          6           0       -1.647539   -2.860578   -0.005555
     17          6           0       -2.890629   -3.532561   -0.188075
     18          6           0       -3.926099   -2.617580   -0.332839
     19          6           0       -3.290530   -1.289203   -0.326159
     20          6           0       -2.889068   -5.047690   -0.174923
     21          6           0       -5.406595   -2.906044   -0.404588
     22          8           0       -5.727864   -4.118681   -0.337394
     23          6           0       -6.453594   -1.942960   -0.331806
     24          7           0       -2.033387    1.576356   -0.044826
     25          6           0       -3.356666    1.288770   -0.207718
     26          6           0       -4.222398    2.569266   -0.133289
     27          6           0       -3.145017    3.702037   -0.043483
     28          6           0       -1.854976    2.900925    0.005628
     29          6           0       -5.183880    2.716943   -1.293160
     30          6           0       -3.388654    4.641582    1.254759
     31          6           0       -3.192335    6.138453    0.988642
     32          7           0        0.823793    1.631588    0.000833
     33          6           0        0.687261    2.972737   -0.164448
     34          6           0        2.013766    3.520848   -0.247113
     35          6           0        2.968356    2.451716   -0.132183
     36          6           0        2.174732    1.330243    0.043619
     37          6           0        2.351647    4.970713   -0.176422
     38          6           0        4.333882    2.048804   -0.027090
     39          8           0        5.300184    2.814639   -0.132516
     40          6           0        4.307617    0.546535    0.185908
     41          6           0        5.063849   -0.099496   -0.914342
     42          8           0        6.223295    0.213506   -1.100582
     43          8           0        4.382418   -1.075893   -1.574553
     44          6           0        5.126865   -1.737165   -2.648067
     45          1           0       -0.270697   -4.478443    0.165843
     46          1           0       -4.914289   -0.041288   -0.681486
     47          1           0       -0.584625    4.624827   -0.260011
     48          1           0        4.187145   -2.374264    0.614845
     49          1           0        2.181464   -4.241841    1.451711
     50          1           0        2.792524   -5.368143   -0.242304
     51          1           0        3.652142   -3.941806   -0.812396
     52          1           0        2.035846   -4.270989   -1.427235
     53          1           0        4.129243   -1.287979    2.684573
     54          1           0        4.064061   -2.952928    2.754277
     55          1           0        1.199130   -2.286790    3.091712
     56          1           0        2.173885   -0.903883    3.749253
     57          1           0       -2.951059   -5.326935    0.877043
     58          1           0       -1.935485   -5.402444   -0.563986
     59          1           0       -3.682774   -5.538358   -0.739082
     60          1           0       -7.354670   -2.357383    0.121418
     61          1           0       -6.636038   -1.423866   -1.273622
     62          1           0       -6.121549   -1.233868    0.425292
     63          1           0       -4.746932    2.455174    0.816011
     64          1           0       -3.116340    4.249215   -0.985558
     65          1           0       -5.209410    1.856070   -1.960719
     66          1           0       -5.197116    3.617718   -1.906187
     67          1           0       -6.153712    2.606076   -0.807269
     68          1           0       -2.744032    4.401783    2.100436
     69          1           0       -4.376191    4.489906    1.690131
     70          1           0       -4.173854    6.611723    0.988122
     71          1           0       -2.808626    6.255691   -0.025052
     72          1           0       -2.553999    6.622394    1.728012
     73          1           0        2.080632    5.593362   -1.028191
     74          1           0        3.429213    5.002845   -0.011069
     75          1           0        1.859595    5.466338    0.660511
     76          1           0        4.822758    0.366430    1.129913
     77          1           0        6.033310   -2.158673   -2.212620
     78          1           0        5.334270   -1.085993   -3.497370
     79          1           0        4.504621   -2.481528   -3.144677
 ---------------------------------------------------------------------

 SCF Done:  E(RwB97XD) =  -2035.30486196     A.U. after   20 cycles

 Excitation energies and oscillator strengths:

 Excited State   1:      Singlet-A      1.6885 eV  734.29 nm  f=0.3915  <S**2>=0.000
     155 ->158        -0.18208
     156 ->157         0.68309
     155 <-158        -0.11278
 This state for optimization and/or second-order correction.
 Total Energy, E(TD-HF/TD-DFT) =  -2035.24281113
 Copying the excited state density for this state as the 1-particle RhoCI density.

 Excited State   2:      Singlet-A      2.1633 eV  573.13 nm  f=0.1259  <S**2>=0.000
     155 ->157         0.64775
     156 ->158         0.25634

 Excited State   3:      Singlet-A      3.2086 eV  386.41 nm  f=0.0008  <S**2>=0.000
     153 ->157        -0.33631
     154 ->157         0.59957

 Excited State   4:      Singlet-A      3.3619 eV  368.80 nm  f=0.0043  <S**2>=0.000
     151 ->157        -0.19537
     151 ->159        -0.15008
     151 ->160        -0.13253
     152 ->157        -0.21336
     153 ->157         0.47747
     154 ->157         0.24587
     156 ->158        -0.20304

 Excited State   5:      Singlet-A      3.3984 eV  364.83 nm  f=0.0038  <S**2>=0.000
     151 ->157         0.47053
     151 ->158         0.17550
     151 ->159         0.26979
     151 ->160         0.24592
     153 ->157         0.22042
     154 ->157         0.10293
     156 ->158        -0.14729

 The electronic state is 1-A.
 Alpha  occ. eigenvalues --  -46.95475 -19.31595 -19.24421 -19.23314 -19.23241
 Alpha  occ. eigenvalues --  -14.46672 -14.46660 -14.44451 -14.43177 -10.43299
 Alpha  occ. eigenvalues --  -10.38822 -10.38441 -10.36487 -10.35745 -10.35340
 Alpha  occ. eigenvalues --  -10.35239 -10.34506 -10.34482 -10.34188 -10.33170
 Alpha  occ. eigenvalues --  -10.33035 -10.32598 -10.32511 -10.32461 -10.32441
 Alpha  occ. eigenvalues --  -10.32424 -10.32170 -10.32096 -10.31814 -10.31531
 Alpha  occ. eigenvalues --  -10.31445 -10.31375 -10.31270 -10.31193 -10.30935
 Alpha  occ. eigenvalues --  -10.30785 -10.30429 -10.30347 -10.30220 -10.29526
 Alpha  occ. eigenvalues --  -10.29427 -10.28818 -10.28558  -3.21381  -1.94942
 Alpha  occ. eigenvalues --   -1.94520  -1.94331  -1.19581  -1.11240  -1.10639
 Alpha  occ. eigenvalues --   -1.10206  -1.06987  -1.06547  -1.04746  -1.03605
 Alpha  occ. eigenvalues --   -0.96053  -0.91243  -0.90915  -0.90638  -0.89715
 Alpha  occ. eigenvalues --   -0.88346  -0.87786  -0.87024  -0.86013  -0.85295
 Alpha  occ. eigenvalues --   -0.84707  -0.83397  -0.82859  -0.80574  -0.79976
 Alpha  occ. eigenvalues --   -0.78977  -0.78063  -0.76935  -0.74483  -0.74121
 Alpha  occ. eigenvalues --   -0.72084  -0.71080  -0.70793  -0.69171  -0.68485
 Alpha  occ. eigenvalues --   -0.67351  -0.67211  -0.66366  -0.65809  -0.62227
 Alpha  occ. eigenvalues --   -0.61713  -0.61338  -0.60736  -0.60381  -0.60034
 Alpha  occ. eigenvalues --   -0.58750  -0.58582  -0.57779  -0.57097  -0.56472
 Alpha  occ. eigenvalues --   -0.56219  -0.55704  -0.55448  -0.55029  -0.54464
 Alpha  occ. eigenvalues --   -0.53815  -0.53719  -0.53346  -0.53022  -0.52818
 Alpha  occ. eigenvalues --   -0.52328  -0.51581  -0.51436  -0.51052  -0.50704
 Alpha  occ. eigenvalues --   -0.50590  -0.50421  -0.50072  -0.49552  -0.49038
 Alpha  occ. eigenvalues --   -0.48662  -0.48420  -0.48383  -0.48011  -0.47677
 Alpha  occ. eigenvalues --   -0.47562  -0.47146  -0.46826  -0.46590  -0.46524
 Alpha  occ. eigenvalues --   -0.46481  -0.45699  -0.45514  -0.44752  -0.44331
 Alpha  occ. eigenvalues --   -0.44236  -0.44193  -0.43839  -0.43744  -0.43308
 Alpha  occ. eigenvalues --   -0.43081  -0.42939  -0.42353  -0.41432  -0.41101
 Alpha  occ. eigenvalues --   -0.40664  -0.39801  -0.39708  -0.39474  -0.38996
 Alpha  occ. eigenvalues --   -0.37894  -0.36722  -0.35981  -0.35300  -0.33998
 Alpha  occ. eigenvalues --   -0.32823  -0.32399  -0.32314  -0.31139  -0.26227
 Alpha  occ. eigenvalues --   -0.23480
 Alpha virt. eigenvalues --   -0.07500   0.00047   0.02213   0.04119   0.04461
 Alpha virt. eigenvalues --    0.07356   0.08020   0.08575   0.09772   0.10930
 Alpha virt. eigenvalues --    0.11201   0.12041   0.12440   0.13130   0.13700

 Mulliken charges:
               1
     1  Mg   0.931722
     2  C   -0.001222
     3  C   -0.065689
     4  C   -0.091515
     5  C   -0.077534
     6  N   -0.307488
     7  C    0.004348
     8  C   -0.074459
     9  C   -0.126339
    10  C    0.080391
    11  C    0.020521
    12  C    0.007900
    13  C   -0.131026
    14  H    0.036895
    15  N   -0.514574
    16  C    0.148895
    17  C   -0.151901
    18  C   -0.055451
    19  C    0.178078
    20  C    0.087380
    21  C    0.034430
    22  O   -0.271033
    23  C    0.017091
    24  N   -0.324785
    25  C    0.043574
    26  C   -0.057485
    27  C   -0.088553
    28  C    0.106010
    29  C    0.017480
    30  C   -0.009873
    31  C   -0.055797
    32  N   -0.439785
    33  C    0.094724
    34  C   -0.179717
    35  C    0.011865
    36  C    0.117580
    37  C    0.048055
    38  C    0.070951
    39  O   -0.201900
    40  C   -0.081028
    41  C    0.257043
    42  O   -0.227848
    43  O   -0.352661
    44  C    0.138940
    45  H   -0.003834
    46  H   -0.037239
    47  H   -0.005195
    48  H    0.022107
    49  H    0.037584
    50  H    0.038111
    51  H    0.026429
    52  H    0.039075
    53  H    0.025028
    54  H    0.032730
    55  H    0.078016
    56  H    0.066400
    57  H    0.053640
    58  H    0.029907
    59  H    0.063926
    60  H    0.061099
    61  H    0.077276
    62  H    0.047621
    63  H    0.049740
    64  H    0.040767
    65  H    0.036110
    66  H    0.051913
    67  H    0.027112
    68  H    0.036487
    69  H    0.027982
    70  H    0.034957
    71  H    0.031360
    72  H    0.047287
    73  H    0.038321
    74  H    0.058180
    75  H    0.037796
    76  H    0.089621
    77  H    0.063413
    78  H    0.059068
    79  H    0.050991
 Sum of Mulliken charges =  -0.00000

 Dipole moment (field-independent basis, Debye):
    X=             -4.4387    Y=             -0.6229    Z=             -1.4073  Tot=              4.6979
 Quadrupole moment (field-independent basis, Debye-Ang):
   XX=           -284.7938   YY=           -252.1004   ZZ=           -248.1283
   XY=            -55.7924   XZ=              0.6288   YZ=              4.1377

 Normal termination of Gaussian 16 at Sun Sep 19 21:21:39 2021.
