 Gaussian 16, Revision A.03,
 Gaussian 16:  ES64L-G16RevA.03 25-Dec-2016

 --------------------------------
 #p wB97XD/Def2SVP td=(nstates=5)
 --------------------------------

 --------------------------------
 TDDFT excited states in gaussian
 --------------------------------
 Symbolic Z-matrix:
 Charge =  0 Multiplicity = 1

                         Standard orientation:
 ---------------------------------------------------------------------
 Center     Atomic      Atomic             Coordinates (Angstroms)
 Number     Number       Type             X           Y           Z
 ---------------------------------------------------------------------
      1         12           0      -25.891104    0.289164    0.548440
      2          6           0      -23.294354   -1.778083   -0.378606
      3          6           0      -28.031913   -2.044011   -0.747816
      4          6           0      -28.422421    2.431270    1.187362
      5          6           0      -23.619746    2.814912    1.290502
      6          7           0      -25.586530   -1.655711   -0.585410
      7          6           0      -24.522662   -2.358993   -0.656679
      8          6           0      -24.677875   -3.842758   -1.275333
      9          6           0      -26.207651   -3.759532   -1.660651
     10          6           0      -26.670950   -2.358037   -1.038208
     11          6           0      -26.513908   -3.719936   -3.248646
     12          6           0      -24.326413   -5.036273   -0.285231
     13          6           0      -23.734585   -6.351000   -0.906399
     14          1           0      -23.788230   -6.471970   -2.399420
     15          7           0      -27.893256    0.190107    0.342843
     16          6           0      -28.661852   -0.933062   -0.158080
     17          6           0      -30.073682   -0.586367   -0.032283
     18          6           0      -30.201638    0.750152    0.421362
     19          6           0      -28.812701    1.169421    0.715790
     20          6           0      -31.061099   -1.646535   -0.364392
     21          6           0      -31.452855    1.611658    0.712102
     22          8           0      -31.450004    2.771508    1.000126
     23          6           0      -32.799754    0.917553    0.425482
     24          7           0      -26.071315    2.389125    1.057433
     25          6           0      -27.170983    3.042583    1.262365
     26          6           0      -26.912731    4.567024    1.428565
     27          6           0      -25.375400    4.667960    1.574350
     28          6           0      -24.959141    3.201350    1.312541
     29          6           0      -27.483310    5.359923    0.233474
     30          6           0      -24.942671    5.247597    2.955993
     31          6           0      -25.217486    6.748191    3.145402
     32          7           0      -23.842069    0.522321    0.486970
     33          6           0      -23.067185    1.583020    0.921381
     34          6           0      -21.695159    1.167915    0.792325
     35          6           0      -21.672843   -0.148250    0.241213
     36          6           0      -23.054376   -0.462906    0.126531
     37          6           0      -20.570133    1.972687    1.099099
     38          6           0      -20.895638   -1.281675   -0.147538
     39          8           0      -19.635136   -1.381737   -0.229399
     40          6           0      -21.943180   -2.336675   -0.676178
     41          6           0      -21.626536   -2.600975   -2.063502
     42          8           0      -21.974266   -1.887836   -3.004388
     43          8           0      -20.766055   -3.668984   -2.084804
     44          6           0      -20.152231   -3.892465   -3.410849
     45          1           0      -28.737759   -2.757925   -1.176355
     46          1           0      -29.292256    3.059575    1.393355
     47          1           0      -22.947654    3.617051    1.603941
     48          1           0      -24.062894   -3.806185   -2.174895
     49          1           0      -26.741374   -4.622075   -1.262071
     50          1           0      -25.601474   -3.409521   -3.758560
     51          1           0      -27.311761   -3.005421   -3.450540
     52          1           0      -26.844927   -4.655320   -3.701027
     53          1           0      -25.288069   -5.285574    0.162496
     54          1           0      -23.814531   -4.764230    0.638487
     55          1           0      -24.185662   -7.263237   -0.516133
     56          1           0      -22.664833   -6.388702   -0.700499
     57          1           0      -31.259479   -1.664750   -1.436416
     58          1           0      -31.942685   -1.623876    0.276384
     59          1           0      -30.601092   -2.597583   -0.097115
     60          1           0      -33.089924    0.166559    1.160930
     61          1           0      -32.613649    0.491993   -0.560085
     62          1           0      -33.655838    1.578281    0.292174
     63          1           0      -27.411370    4.785696    2.372532
     64          1           0      -24.969982    5.263728    0.756583
     65          1           0      -27.592510    4.801506   -0.696486
     66          1           0      -26.908126    6.207473   -0.140729
     67          1           0      -28.461866    5.708912    0.563099
     68          1           0      -23.865049    5.130614    3.061960
     69          1           0      -25.422850    4.685566    3.757738
     70          1           0      -25.769665    7.093768    2.271448
     71          1           0      -24.282502    7.294359    3.019582
     72          1           0      -25.652276    7.091338    4.083874
     73          1           0      -20.821864    2.439159    2.051614
     74          1           0      -20.352229    2.784057    0.404815
     75          1           0      -19.679212    1.344320    1.075077
     76          1           0      -21.713148   -3.222814   -0.084033
     77          1           0      -19.512038   -3.029316   -3.595296
     78          1           0      -20.898484   -4.113710   -4.173188
     79          1           0      -19.515452   -4.773223   -3.326461
     80         12           0       26.241721   -0.271954   -0.327639
     81          6           0       22.762436   -0.387543    0.451402
     82          6           0       25.489232    2.222251   -2.383045
     83          6           0       29.507708    0.595676   -0.372931
     84          6           0       26.701142   -2.236773    2.609811
     85          7           0       24.400089    0.673642   -0.964729
     86          6           0       23.059439    0.428500   -0.596519
     87          6           0       22.040625    1.347142   -1.341815
     88          6           0       22.985280    2.136577   -2.291774
     89          6           0       24.385645    1.593605   -1.936638
     90          6           0       22.491465    1.905638   -3.729665
     91          6           0       21.133151    2.309584   -0.460317
     92          6           0       19.634761    2.029670   -0.460633
     93          1           0       18.697195    3.181913   -0.875574
     94          7           0       27.362204    1.102260   -1.287978
     95          6           0       26.832666    2.086020   -2.122884
     96          6           0       27.864161    2.806812   -2.752271
     97          6           0       29.072193    2.285291   -2.327443
     98          6           0       28.729604    1.317244   -1.305246
     99          6           0       27.753211    3.977490   -3.798257
    100          6           0       30.405189    2.754129   -2.861865
    101          8           0       30.533460    3.520687   -3.769659
    102          6           0       31.695442    2.041019   -2.221236
    103          7           0       27.872673   -0.684371    0.970833
    104          6           0       29.132575   -0.228693    0.693224
    105          6           0       30.053748   -0.649849    1.910340
    106          6           0       29.247956   -1.629652    2.779539
    107          6           0       27.830525   -1.511444    2.100191
    108          6           0       31.439218   -1.090961    1.532342
    109          6           0       29.169508   -1.097672    4.205124
    110          6           0       28.903631   -2.095299    5.301040
    111          7           0       24.996051   -1.358847    1.096848
    112          6           0       25.334493   -2.115956    2.192958
    113          6           0       24.170794   -2.665578    2.787791
    114          6           0       23.064778   -2.093301    2.115895
    115          6           0       23.658193   -1.209499    1.170841
    116          6           0       24.092328   -3.525457    3.984957
    117          6           0       21.608499   -1.949837    1.985206
    118          8           0       20.715533   -2.552532    2.595854
    119          6           0       21.330302   -0.856489    0.883459
    120          6           0       20.751452   -1.488120   -0.272241
    121          8           0       21.450791   -2.175301   -1.053702
    122          8           0       19.430452   -1.222601   -0.255111
    123          6           0       18.614072   -1.592671   -1.443635
    124          1           0       25.274744    3.020960   -3.096633
    125          1           0       30.565433    0.852360   -0.462460
    126          1           0       26.782353   -2.941135    3.439919
    127          1           0       21.363388    0.735999   -1.938354
    128          1           0       23.008287    3.207380   -2.091695
    129          1           0       23.249246    2.322581   -4.392381
    130          1           0       21.534566    2.361267   -3.983964
    131          1           0       22.379796    0.846671   -3.965209
    132          1           0       21.207884    3.271640   -0.967278
    133          1           0       21.531515    2.376137    0.552152
    134          1           0       19.370261    1.686547    0.540157
    135          1           0       19.421081    1.229748   -1.170430
    136          1           0       28.351472    4.792122   -3.389628
    137          1           0       26.724501    4.313751   -3.926876
    138          1           0       28.021603    3.725915   -4.824273
    139          1           0       32.546313    2.406438   -2.795427
    140          1           0       31.476222    0.980925   -2.350890
    141          1           0       31.646360    2.379297   -1.186263
    142          1           0       30.182229    0.285320    2.456505
    143          1           0       29.605251   -2.658496    2.822258
    144          1           0       31.783377   -1.809668    2.275559
    145          1           0       32.048097   -0.186672    1.527457
    146          1           0       31.531797   -1.462904    0.512623
    147          1           0       28.440059   -0.295865    4.323242
    148          1           0       30.072397   -0.559278    4.493191
    149          1           0       28.990085   -3.128432    4.964989
    150          1           0       27.888786   -1.928098    5.662495
    151          1           0       29.498406   -1.865131    6.184935
    152          1           0       24.993083   -4.127481    4.108712
    153          1           0       23.224711   -4.166213    3.825696
    154          1           0       24.009895   -2.839125    4.828033
    155          1           0       20.777943    0.015313    1.234147
    156          1           0       17.672142   -1.844389   -0.954111
    157          1           0       19.037342   -2.401347   -2.038715
    158          1           0       18.332210   -0.713645   -2.024243
 ---------------------------------------------------------------------

 SCF Done:  E(RwB97XD) =  -4070.62457991     A.U. after   19 cycles

 Excitation energies and oscillator strengths:

 Excited State   1:      Singlet-A      1.6723 eV  741.40 nm  f=0.3895  <S**2>=0.000
     309 -> 316       -0.17577
     311 -> 313        0.68536
     309 <- 316       -0.11222
 This state for optimization and/or second-order correction.
 Total Energy, E(TD-HF/TD-DFT) =  -4070.56312423
 Copying the excited state density for this state as the 1-particle RhoCI density.

 Excited State   2:      Singlet-A      1.7222 eV  719.91 nm  f=0.3798  <S**2>=0.000
     310 -> 315       -0.20374
     312 -> 314        0.67763
     310 <- 315       -0.11867

 Excited State   3:      Singlet-A      2.1613 eV  573.65 nm  f=0.1082  <S**2>=0.000
     310 -> 314        0.64085
     312 -> 315        0.28352

 Excited State   4:      Singlet-A      2.2042 eV  562.48 nm  f=0.1140  <S**2>=0.000
     309 -> 313        0.63532
     311 -> 316        0.29119

 Excited State   5:      Singlet-A      3.2882 eV  377.06 nm  f=0.0022  <S**2>=0.000
     302 -> 313        0.11859
     308 -> 313        0.66487

 The electronic state is 1-A.
 Alpha  occ. eigenvalues --  -46.94857 -46.94729 -19.31684 -19.29993 -19.25190
 Alpha  occ. eigenvalues --  -19.24688 -19.24569 -19.24221 -19.23755 -19.23273
 Alpha  occ. eigenvalues --  -14.47164 -14.46778 -14.46769 -14.46095 -14.44324
 Alpha  occ. eigenvalues --  -14.44156 -14.43488 -14.43029 -10.43311 -10.42364
 Alpha  occ. eigenvalues --  -10.40257 -10.39469 -10.39388 -10.38765 -10.36559
 Alpha  occ. eigenvalues --  -10.35919 -10.35696 -10.35499 -10.35089 -10.34973
 Alpha  occ. eigenvalues --  -10.34798 -10.34751 -10.34591 -10.34503 -10.34452
 Alpha  occ. eigenvalues --  -10.34426 -10.34294 -10.33685 -10.33612 -10.33137
 Alpha  occ. eigenvalues --  -10.33050 -10.32991 -10.32987 -10.32870 -10.32623
 Alpha  occ. eigenvalues --  -10.32400 -10.32398 -10.32231 -10.32183 -10.32120
 Alpha  occ. eigenvalues --  -10.31956 -10.31955 -10.31834 -10.31791 -10.31719
 Alpha  occ. eigenvalues --  -10.31633 -10.31628 -10.31572 -10.31322 -10.31267
 Alpha  occ. eigenvalues --  -10.31139 -10.31136 -10.31132 -10.31120 -10.31045
 Alpha  occ. eigenvalues --  -10.31020 -10.30975 -10.30952 -10.30655 -10.30471
 Alpha  occ. eigenvalues --  -10.30309 -10.30262 -10.30231 -10.30153 -10.30041
 Alpha  occ. eigenvalues --  -10.30016 -10.29682 -10.29643 -10.29511 -10.29364
 Alpha  occ. eigenvalues --  -10.29249 -10.29186 -10.28961 -10.28840 -10.28455
 Alpha  occ. eigenvalues --  -10.28446  -3.20896  -3.20772  -1.94462  -1.94357
 Alpha  occ. eigenvalues --   -1.94001  -1.93903  -1.93887  -1.93746  -1.18786
 Alpha  occ. eigenvalues --   -1.17657  -1.14751  -1.14217  -1.10859  -1.09537
 Alpha  occ. eigenvalues --   -1.09382  -1.08928  -1.07380  -1.06289  -1.06137
 Alpha  occ. eigenvalues --   -1.05457  -1.05225  -1.04831  -1.03746  -1.02928
 Alpha  occ. eigenvalues --   -0.94476  -0.94146  -0.91502  -0.91194  -0.91181
 Alpha  occ. eigenvalues --   -0.90667  -0.90259  -0.89707  -0.89374  -0.89272
 Alpha  occ. eigenvalues --   -0.88879  -0.88780  -0.88617  -0.88406  -0.86702
 Alpha  occ. eigenvalues --   -0.86110  -0.85836  -0.85331  -0.85170  -0.84208
 Alpha  occ. eigenvalues --   -0.83819  -0.83631  -0.83089  -0.82973  -0.82247
 Alpha  occ. eigenvalues --   -0.82226  -0.80519  -0.79635  -0.79319  -0.79282
 Alpha  occ. eigenvalues --   -0.78596  -0.78274  -0.78149  -0.77647  -0.77084
 Alpha  occ. eigenvalues --   -0.76754  -0.74712  -0.74176  -0.73693  -0.73429
 Alpha  occ. eigenvalues --   -0.71298  -0.71228  -0.70717  -0.70503  -0.70145
 Alpha  occ. eigenvalues --   -0.69698  -0.69222  -0.68990  -0.67734  -0.67637
 Alpha  occ. eigenvalues --   -0.67481  -0.67293  -0.66989  -0.66752  -0.66545
 Alpha  occ. eigenvalues --   -0.66062  -0.64197  -0.63521  -0.62171  -0.62030
 Alpha  occ. eigenvalues --   -0.61594  -0.61370  -0.61352  -0.61068  -0.60442
 Alpha  occ. eigenvalues --   -0.60250  -0.60178  -0.59838  -0.59611  -0.59129
 Alpha  occ. eigenvalues --   -0.58363  -0.57974  -0.57974  -0.57576  -0.57150
 Alpha  occ. eigenvalues --   -0.56949  -0.56604  -0.56433  -0.56185  -0.55872
 Alpha  occ. eigenvalues --   -0.55753  -0.55299  -0.55101  -0.55083  -0.54896
 Alpha  occ. eigenvalues --   -0.54807  -0.54668  -0.54412  -0.54342  -0.53998
 Alpha  occ. eigenvalues --   -0.53787  -0.53614  -0.53375  -0.53233  -0.53127
 Alpha  occ. eigenvalues --   -0.53058  -0.52836  -0.52641  -0.52438  -0.52345
 Alpha  occ. eigenvalues --   -0.52253  -0.52063  -0.51916  -0.51733  -0.51306
 Alpha  occ. eigenvalues --   -0.51155  -0.51048  -0.50866  -0.50826  -0.50472
 Alpha  occ. eigenvalues --   -0.50369  -0.50361  -0.50148  -0.50115  -0.49953
 Alpha  occ. eigenvalues --   -0.49741  -0.49687  -0.49443  -0.49400  -0.48957
 Alpha  occ. eigenvalues --   -0.48876  -0.48559  -0.48354  -0.48349  -0.48222
 Alpha  occ. eigenvalues --   -0.48138  -0.48013  -0.47945  -0.47558  -0.47522
 Alpha  occ. eigenvalues --   -0.47225  -0.47061  -0.47035  -0.46866  -0.46753
 Alpha  occ. eigenvalues --   -0.46665  -0.46297  -0.46223  -0.46194  -0.46067
 Alpha  occ. eigenvalues --   -0.46052  -0.45728  -0.45725  -0.45446  -0.45420
 Alpha  occ. eigenvalues --   -0.45232  -0.45152  -0.44974  -0.44871  -0.44697
 Alpha  occ. eigenvalues --   -0.44658  -0.44542  -0.44498  -0.44210  -0.44200
 Alpha  occ. eigenvalues --   -0.43816  -0.43643  -0.43616  -0.43561  -0.43536
 Alpha  occ. eigenvalues --   -0.43369  -0.43076  -0.42511  -0.42490  -0.42101
 Alpha  occ. eigenvalues --   -0.42091  -0.41983  -0.41689  -0.41254  -0.41073
 Alpha  occ. eigenvalues --   -0.40371  -0.40120  -0.40108  -0.39876  -0.39559
 Alpha  occ. eigenvalues --   -0.39517  -0.39228  -0.39037  -0.38753  -0.38540
 Alpha  occ. eigenvalues --   -0.38219  -0.37916  -0.36276  -0.36214  -0.36127
 Alpha  occ. eigenvalues --   -0.35857  -0.35603  -0.35179  -0.34005  -0.33804
 Alpha  occ. eigenvalues --   -0.33332  -0.32968  -0.32717  -0.32646  -0.32427
 Alpha  occ. eigenvalues --   -0.32256  -0.31290  -0.31045  -0.26193  -0.25580
 Alpha  occ. eigenvalues --   -0.23049  -0.23040
 Alpha virt. eigenvalues --   -0.07077  -0.06751   0.00237   0.00243   0.02041
 Alpha virt. eigenvalues --    0.02672   0.04217   0.04805   0.05463   0.05718
 Alpha virt. eigenvalues --    0.06779   0.07245   0.07668   0.08119   0.08304

 Mulliken charges:
               1
     1  Mg   0.972929
     2  C    0.036670
     3  C   -0.076479
     4  C   -0.083446
     5  C   -0.099909
     6  N   -0.274744
     7  C   -0.097130
     8  C   -0.014306
     9  C   -0.137582
    10  C    0.065898
    11  C    0.000620
    12  C    0.023597
    13  C   -0.131716
    14  H    0.035223
    15  N   -0.532056
    16  C    0.160577
    17  C   -0.146783
    18  C   -0.099994
    19  C    0.147620
    20  C    0.050209
    21  C    0.084711
    22  O   -0.192559
    23  C   -0.045237
    24  N   -0.332416
    25  C    0.040046
    26  C   -0.054361
    27  C   -0.067646
    28  C    0.054797
    29  C    0.016554
    30  C   -0.022522
    31  C   -0.039117
    32  N   -0.427695
    33  C    0.163512
    34  C   -0.180216
    35  C    0.016071
    36  C    0.116866
    37  C    0.057360
    38  C    0.086219
    39  O   -0.253855
    40  C   -0.075671
    41  C    0.267987
    42  O   -0.262121
    43  O   -0.366882
    44  C    0.144971
    45  H   -0.003060
    46  H    0.012714
    47  H   -0.006266
    48  H    0.049106
    49  H    0.040274
    50  H    0.048185
    51  H    0.038261
    52  H    0.039847
    53  H    0.016303
    54  H    0.039544
    55  H    0.057666
    56  H    0.064738
    57  H    0.067846
    58  H    0.043830
    59  H    0.042703
    60  H    0.070895
    61  H    0.053254
    62  H    0.049664
    63  H    0.038221
    64  H    0.035332
    65  H    0.043610
    66  H    0.034025
    67  H    0.050536
    68  H    0.028772
    69  H    0.032091
    70  H    0.024453
    71  H    0.026117
    72  H    0.050563
    73  H    0.038284
    74  H    0.050027
    75  H    0.057922
    76  H    0.063371
    77  H    0.068098
    78  H    0.056050
    79  H    0.049029
    80  Mg   0.984459
    81  C   -0.043518
    82  C   -0.132081
    83  C   -0.102535
    84  C   -0.063431
    85  N   -0.377695
    86  C    0.011435
    87  C   -0.047228
    88  C   -0.123597
    89  C    0.121204
    90  C    0.014130
    91  C    0.012111
    92  C   -0.135578
    93  H    0.033960
    94  N   -0.504863
    95  C    0.212839
    96  C   -0.172151
    97  C   -0.054789
    98  C    0.149870
    99  C    0.105720
   100  C    0.008147
   101  O   -0.195271
   102  C   -0.027736
   103  N   -0.393413
   104  C    0.110739
   105  C   -0.081197
   106  C   -0.082598
   107  C    0.107895
   108  C    0.029400
   109  C   -0.045220
   110  C   -0.025657
   111  N   -0.385749
   112  C    0.093567
   113  C   -0.223116
   114  C    0.000598
   115  C    0.116518
   116  C    0.079675
   117  C    0.128997
   118  O   -0.222352
   119  C   -0.072448
   120  C    0.292575
   121  O   -0.280015
   122  O   -0.349456
   123  C    0.124636
   124  H   -0.016741
   125  H   -0.040310
   126  H   -0.012825
   127  H    0.028299
   128  H    0.045435
   129  H    0.027664
   130  H    0.042823
   131  H    0.043029
   132  H    0.041059
   133  H    0.048483
   134  H    0.069462
   135  H    0.032984
   136  H    0.061827
   137  H    0.011500
   138  H    0.062671
   139  H    0.058130
   140  H    0.066170
   141  H    0.068491
   142  H    0.046806
   143  H    0.038410
   144  H    0.041313
   145  H    0.031628
   146  H    0.038539
   147  H    0.030402
   148  H    0.021500
   149  H    0.036087
   150  H    0.030086
   151  H    0.032950
   152  H    0.030594
   153  H    0.066821
   154  H    0.060802
   155  H    0.055734
   156  H    0.061795
   157  H    0.085147
   158  H    0.056457
 Sum of Mulliken charges =  -0.00000

 Dipole moment (field-independent basis, Debye):
    X=             -3.2222    Y=             -0.7304    Z=              0.4270  Tot=              3.3315
 Quadrupole moment (field-independent basis, Debye-Ang):
   XX=           -239.6339   YY=           -489.0545   ZZ=           -505.8982
   XY=             85.4949   XZ=             10.3753   YZ=             15.7822

 Normal termination of Gaussian 16 at Mon Sep 20 10:18:41 2021.
