 Gaussian 16, Revision A.03,
 Gaussian 16:  ES64L-G16RevA.03 25-Dec-2016

 --------------------------------
 #p wB97XD/Def2SVP td=(nstates=5)
 --------------------------------

 --------------------------------
 TDDFT excited states in gaussian
 --------------------------------
 Symbolic Z-matrix:
 Charge =  0 Multiplicity = 1

                         Standard orientation:
 ---------------------------------------------------------------------
 Center     Atomic      Atomic             Coordinates (Angstroms)
 Number     Number       Type             X           Y           Z
 ---------------------------------------------------------------------
      1         12           0       19.356746    0.340009    0.508050
      2          6           0       17.307200   -1.580666   -1.642837
      3          6           0       20.413698    2.159430   -2.227683
      4          6           0       21.525258    1.966972    2.540824
      5          6           0       18.415819   -1.672874    3.219575
      6          7           0       18.929561    0.148613   -1.655950
      7          6           0       17.904825   -0.548800   -2.291224
      8          6           0       17.803469   -0.159685   -3.822802
      9          6           0       18.996122    0.820667   -3.980919
     10          6           0       19.538569    1.039863   -2.550847
     11          6           0       20.161000    0.420361   -4.961707
     12          6           0       16.383887    0.309330   -4.344831
     13          6           0       15.799888   -0.525779   -5.443878
     14          1           0       14.984556    0.254315   -6.549851
     15          7           0       20.730649    1.808750    0.155652
     16          6           0       20.995465    2.497983   -1.010357
     17          6           0       22.055364    3.464846   -0.770585
     18          6           0       22.415095    3.451626    0.606809
     19          6           0       21.522780    2.382769    1.189074
     20          6           0       22.565677    4.465591   -1.826880
     21          6           0       23.414678    4.314197    1.370552
     22          8           0       23.570079    4.264475    2.573362
     23          6           0       24.294916    5.453415    0.710740
     24          7           0       19.964566    0.097757    2.592612
     25          6           0       20.859178    0.885412    3.174977
     26          6           0       21.048313    0.539175    4.694997
     27          6           0       19.895071   -0.510405    4.949252
     28          6           0       19.353431   -0.708540    3.501269
     29          6           0       22.508162    0.107617    5.017564
     30          6           0       18.892335   -0.021287    5.975517
     31          6           0       18.441594   -1.092912    6.966565
     32          7           0       18.235752   -1.388267    0.817489
     33          6           0       17.856577   -2.041128    1.974707
     34          6           0       17.062230   -3.166240    1.587868
     35          6           0       16.770186   -3.028540    0.208203
     36          6           0       17.519878   -1.911819   -0.255769
     37          6           0       16.554486   -4.225957    2.490407
     38          6           0       15.967170   -3.565705   -0.904144
     39          8           0       15.274838   -4.572466   -1.022487
     40          6           0       16.312112   -2.515987   -2.215161
     41          6           0       16.823715   -3.272316   -3.315216
     42          8           0       17.988485   -3.303553   -3.648541
     43          8           0       15.799160   -3.853836   -4.027320
     44          6           0       16.286992   -4.696836   -5.147172
     45          1           0       20.681775    2.838607   -3.039894
     46          1           0       22.238626    2.423291    3.229513
     47          1           0       18.109943   -2.191639    4.131210
     48          1           0       18.161149   -1.046740   -4.344473
     49          1           0       18.650037    1.793945   -4.328980
     50          1           0       20.449956    1.330815   -5.487686
     51          1           0       19.790984   -0.347911   -5.640195
     52          1           0       21.047647    0.021998   -4.468091
     53          1           0       16.507617    1.350292   -4.643798
     54          1           0       15.699643    0.233884   -3.499544
     55          1           0       15.108058   -1.256031   -5.022058
     56          1           0       16.668222   -1.032633   -5.863876
     57          1           0       22.248714    5.442572   -1.463724
     58          1           0       22.000808    4.325683   -2.748842
     59          1           0       23.645979    4.492122   -1.974824
     60          1           0       23.619651    6.159133    0.225720
     61          1           0       25.149044    5.061324    0.157834
     62          1           0       24.863649    5.869295    1.541878
     63          1           0       20.828473    1.373139    5.361236
     64          1           0       20.395203   -1.435470    5.236675
     65          1           0       22.473052   -0.833421    5.567221
     66          1           0       23.083925    0.878005    5.531119
     67          1           0       23.049015   -0.071857    4.089833
     68          1           0       18.008425    0.414968    5.511392
     69          1           0       19.236772    0.826893    6.569207
     70          1           0       18.783104   -2.083369    6.665610
     71          1           0       17.351532   -1.090540    6.941087
     72          1           0       18.697668   -0.842846    7.996246
     73          1           0       16.822957   -4.158036    3.544596
     74          1           0       16.723843   -5.170146    1.971386
     75          1           0       15.502264   -3.961790    2.598652
     76          1           0       15.393770   -2.009217   -2.513059
     77          1           0       16.921592   -5.494427   -4.760234
     78          1           0       16.770232   -4.015330   -5.847215
     79          1           0       15.483025   -5.208523   -5.674804
     80         12           0      -19.432111   -0.540098   -0.311680
     81          6           0      -18.549501    2.835936   -0.728322
     82          6           0      -16.148915   -1.392164   -0.874491
     83          6           0      -20.188659   -3.551513    0.830496
     84          6           0      -22.729111    0.496636    0.508575
     85          7           0      -17.552130    0.605493   -0.493319
     86          6           0      -17.409801    2.008514   -0.649458
     87          6           0      -16.092833    2.393763   -1.185371
     88          6           0      -15.360981    0.989096   -1.319941
     89          6           0      -16.423162   -0.016808   -0.905202
     90          6           0      -14.707889    0.789930   -2.709122
     91          6           0      -15.266511    3.241595   -0.267058
     92          6           0      -15.354984    2.924546    1.233213
     93          1           0      -14.098552    3.062394    2.178498
     94          7           0      -18.341529   -2.292814   -0.074972
     95          6           0      -17.066152   -2.442025   -0.480943
     96          6           0      -16.704398   -3.830666   -0.343931
     97          6           0      -17.875717   -4.505914    0.079270
     98          6           0      -18.897596   -3.465243    0.276293
     99          6           0      -15.336845   -4.414239   -0.577401
    100          6           0      -18.008786   -6.014080    0.288399
    101          8           0      -17.065431   -6.758238    0.104620
    102          6           0      -19.193563   -6.758450    0.829091
    103          7           0      -21.107137   -1.346601    0.778682
    104          6           0      -21.203693   -2.673583    1.102955
    105          6           0      -22.666329   -3.061336    1.498980
    106          6           0      -23.337512   -1.664971    1.670188
    107          6           0      -22.353685   -0.784404    0.931344
    108          6           0      -23.433213   -3.914837    0.460164
    109          6           0      -23.365775   -1.075722    3.158944
    110          6           0      -24.652761   -0.500516    3.628467
    111          7           0      -20.477230    1.189568   -0.230296
    112          6           0      -21.791035    1.403360   -0.077241
    113          6           0      -22.158281    2.772786   -0.601342
    114          6           0      -20.874615    3.325069   -0.910583
    115          6           0      -19.881455    2.378697   -0.530206
    116          6           0      -23.514550    3.450289   -0.734723
    117          6           0      -20.231964    4.550514   -1.288728
    118          8           0      -20.701577    5.646447   -1.551294
    119          6           0      -18.679103    4.258371   -1.211523
    120          6           0      -18.125806    5.110765   -0.088401
    121          8           0      -18.326976    4.996973    1.075459
    122          8           0      -17.231211    6.004889   -0.637006
    123          6           0      -16.406508    6.698573    0.357475
    124          1           0      -15.160205   -1.669263   -1.245631
    125          1           0      -20.508156   -4.572865    1.044136
    126          1           0      -23.791151    0.712261    0.642767
    127          1           0      -16.261333    2.931115   -2.118618
    128          1           0      -14.610930    0.765645   -0.561331
    129          1           0      -13.717073    0.445859   -2.411942
    130          1           0      -14.712678    1.761140   -3.204054
    131          1           0      -15.179178   -0.000975   -3.292949
    132          1           0      -15.341937    4.311126   -0.465101
    133          1           0      -14.190405    3.172913   -0.427879
    134          1           0      -15.740978    1.905644    1.279013
    135          1           0      -16.168821    3.575559    1.552998
    136          1           0      -15.054740   -5.087238    0.232963
    137          1           0      -14.615581   -3.613093   -0.738327
    138          1           0      -15.449984   -4.988265   -1.497384
    139          1           0      -19.441545   -6.552425    1.869823
    140          1           0      -18.803391   -7.775967    0.856507
    141          1           0      -20.021334   -6.820424    0.121844
    142          1           0      -22.617268   -3.632150    2.426181
    143          1           0      -24.326833   -1.601005    1.216403
    144          1           0      -24.237075   -3.309774    0.041258
    145          1           0      -23.660988   -4.909774    0.842331
    146          1           0      -22.763817   -4.127425   -0.372624
    147          1           0      -22.571087   -0.344608    3.305621
    148          1           0      -23.115671   -1.935497    3.780739
    149          1           0      -25.014532   -0.959473    4.548332
    150          1           0      -25.445789   -0.539765    2.881340
    151          1           0      -24.554772    0.554372    3.883378
    152          1           0      -23.460590    4.363686   -0.142335
    153          1           0      -24.280037    2.708439   -0.503838
    154          1           0      -23.570177    3.784493   -1.770652
    155          1           0      -18.173206    4.456399   -2.156222
    156          1           0      -16.228053    6.103700    1.253127
    157          1           0      -16.995216    7.583442    0.599607
    158          1           0      -15.540601    7.073011   -0.187838
 ---------------------------------------------------------------------

 SCF Done:  E(RwB97XD) =  -4070.60171600     A.U. after   19 cycles

 Excitation energies and oscillator strengths:

 Excited State   1:      Singlet-A      1.6067 eV  771.66 nm  f=0.3714  <S**2>=0.000
     309 -> 315        0.17853
     312 -> 313        0.68544
     309 <- 315        0.11726
 This state for optimization and/or second-order correction.
 Total Energy, E(TD-HF/TD-DFT) =  -4070.54267049
 Copying the excited state density for this state as the 1-particle RhoCI density.

 Excited State   2:      Singlet-A      1.7608 eV  704.12 nm  f=0.3741  <S**2>=0.000
     310 -> 316       -0.17860
     311 -> 314        0.68334
     310 <- 316       -0.10772

 Excited State   3:      Singlet-A      2.2095 eV  561.14 nm  f=0.1131  <S**2>=0.000
     310 -> 314        0.63626
     311 -> 316        0.28368

 Excited State   4:      Singlet-A      2.2111 eV  560.72 nm  f=0.0974  <S**2>=0.000
     309 -> 313        0.62636
     312 -> 315       -0.31151

 Excited State   5:      Singlet-A      3.4492 eV  359.46 nm  f=0.0262  <S**2>=0.000
     303 -> 314       -0.29761
     308 -> 314        0.60838

 The electronic state is 1-A.
 Alpha  occ. eigenvalues --  -46.94919 -46.94586 -19.29830 -19.29490 -19.25321
 Alpha  occ. eigenvalues --  -19.24969 -19.24362 -19.24167 -19.24082 -19.23230
 Alpha  occ. eigenvalues --  -14.46977 -14.46901 -14.46471 -14.46341 -14.45019
 Alpha  occ. eigenvalues --  -14.44162 -14.44094 -14.43282 -10.43068 -10.42074
 Alpha  occ. eigenvalues --  -10.40460 -10.39973 -10.38992 -10.38543 -10.36671
 Alpha  occ. eigenvalues --  -10.36175 -10.35364 -10.35290 -10.35226 -10.35190
 Alpha  occ. eigenvalues --  -10.34964 -10.34956 -10.34819 -10.34637 -10.34583
 Alpha  occ. eigenvalues --  -10.34492 -10.34466 -10.34152 -10.33979 -10.33750
 Alpha  occ. eigenvalues --  -10.33307 -10.33084 -10.32847 -10.32671 -10.32593
 Alpha  occ. eigenvalues --  -10.32545 -10.32539 -10.32440 -10.32390 -10.32276
 Alpha  occ. eigenvalues --  -10.32162 -10.32094 -10.32089 -10.32016 -10.31913
 Alpha  occ. eigenvalues --  -10.31864 -10.31861 -10.31860 -10.31669 -10.31646
 Alpha  occ. eigenvalues --  -10.31505 -10.31399 -10.31173 -10.31051 -10.30888
 Alpha  occ. eigenvalues --  -10.30839 -10.30697 -10.30662 -10.30597 -10.30523
 Alpha  occ. eigenvalues --  -10.30478 -10.30405 -10.30347 -10.30306 -10.30286
 Alpha  occ. eigenvalues --  -10.30135 -10.29941 -10.29879 -10.29687 -10.29414
 Alpha  occ. eigenvalues --  -10.29344 -10.29166 -10.29142 -10.29084 -10.28919
 Alpha  occ. eigenvalues --  -10.28848  -3.20989  -3.20550  -1.94542  -1.94148
 Alpha  occ. eigenvalues --   -1.94119  -1.93978  -1.93666  -1.93529  -1.19394
 Alpha  occ. eigenvalues --   -1.17959  -1.13800  -1.12589  -1.12177  -1.11439
 Alpha  occ. eigenvalues --   -1.11145  -1.09560  -1.06574  -1.06086  -1.06016
 Alpha  occ. eigenvalues --   -1.05312  -1.04633  -1.04546  -1.03967  -1.02945
 Alpha  occ. eigenvalues --   -0.95143  -0.93759  -0.91727  -0.91295  -0.90989
 Alpha  occ. eigenvalues --   -0.90298  -0.90280  -0.90015  -0.89432  -0.89264
 Alpha  occ. eigenvalues --   -0.88827  -0.88266  -0.87738  -0.87476  -0.86630
 Alpha  occ. eigenvalues --   -0.86283  -0.86036  -0.85504  -0.84614  -0.84418
 Alpha  occ. eigenvalues --   -0.83582  -0.83002  -0.82800  -0.82664  -0.82449
 Alpha  occ. eigenvalues --   -0.82059  -0.80455  -0.79867  -0.79424  -0.78832
 Alpha  occ. eigenvalues --   -0.78761  -0.78358  -0.77964  -0.77660  -0.77076
 Alpha  occ. eigenvalues --   -0.76682  -0.74674  -0.74216  -0.73637  -0.73293
 Alpha  occ. eigenvalues --   -0.71540  -0.71098  -0.70794  -0.70742  -0.70556
 Alpha  occ. eigenvalues --   -0.69433  -0.69151  -0.69072  -0.67773  -0.67532
 Alpha  occ. eigenvalues --   -0.67057  -0.66747  -0.66607  -0.66505  -0.66351
 Alpha  occ. eigenvalues --   -0.66351  -0.64083  -0.63128  -0.62093  -0.61959
 Alpha  occ. eigenvalues --   -0.61408  -0.61159  -0.60992  -0.60907  -0.60773
 Alpha  occ. eigenvalues --   -0.60088  -0.59945  -0.59753  -0.59379  -0.59011
 Alpha  occ. eigenvalues --   -0.58518  -0.58001  -0.57949  -0.57668  -0.57345
 Alpha  occ. eigenvalues --   -0.57039  -0.56719  -0.56544  -0.56133  -0.56008
 Alpha  occ. eigenvalues --   -0.55620  -0.55239  -0.55171  -0.54976  -0.54953
 Alpha  occ. eigenvalues --   -0.54787  -0.54500  -0.54279  -0.54192  -0.54051
 Alpha  occ. eigenvalues --   -0.54002  -0.53616  -0.53514  -0.53326  -0.53318
 Alpha  occ. eigenvalues --   -0.53059  -0.53045  -0.52855  -0.52778  -0.52505
 Alpha  occ. eigenvalues --   -0.52080  -0.52048  -0.51535  -0.51524  -0.51456
 Alpha  occ. eigenvalues --   -0.51357  -0.51322  -0.51195  -0.50828  -0.50670
 Alpha  occ. eigenvalues --   -0.50635  -0.50566  -0.50531  -0.50267  -0.49965
 Alpha  occ. eigenvalues --   -0.49915  -0.49678  -0.49476  -0.49445  -0.49113
 Alpha  occ. eigenvalues --   -0.49025  -0.48806  -0.48719  -0.48694  -0.48335
 Alpha  occ. eigenvalues --   -0.48294  -0.48126  -0.47929  -0.47918  -0.47807
 Alpha  occ. eigenvalues --   -0.47467  -0.47407  -0.47152  -0.47101  -0.46754
 Alpha  occ. eigenvalues --   -0.46660  -0.46584  -0.46415  -0.46279  -0.46007
 Alpha  occ. eigenvalues --   -0.45964  -0.45878  -0.45819  -0.45518  -0.45479
 Alpha  occ. eigenvalues --   -0.45193  -0.45158  -0.45132  -0.44984  -0.44679
 Alpha  occ. eigenvalues --   -0.44502  -0.44363  -0.44302  -0.44192  -0.44094
 Alpha  occ. eigenvalues --   -0.44062  -0.43893  -0.43771  -0.43407  -0.43135
 Alpha  occ. eigenvalues --   -0.43039  -0.42656  -0.42465  -0.42278  -0.42203
 Alpha  occ. eigenvalues --   -0.41939  -0.41746  -0.41565  -0.41313  -0.41015
 Alpha  occ. eigenvalues --   -0.40601  -0.40391  -0.39792  -0.39653  -0.39298
 Alpha  occ. eigenvalues --   -0.39208  -0.39057  -0.38898  -0.38458  -0.38227
 Alpha  occ. eigenvalues --   -0.37840  -0.37693  -0.37033  -0.36197  -0.36166
 Alpha  occ. eigenvalues --   -0.35783  -0.35333  -0.35279  -0.33917  -0.33560
 Alpha  occ. eigenvalues --   -0.33497  -0.33103  -0.32884  -0.32444  -0.32183
 Alpha  occ. eigenvalues --   -0.32052  -0.31807  -0.30753  -0.26209  -0.26020
 Alpha  occ. eigenvalues --   -0.23155  -0.22833
 Alpha virt. eigenvalues --   -0.07101  -0.06839   0.00146   0.00150   0.02091
 Alpha virt. eigenvalues --    0.02317   0.04211   0.04511   0.04672   0.06016
 Alpha virt. eigenvalues --    0.06920   0.07596   0.07791   0.07909   0.08173

 Mulliken charges:
               1
     1  Mg   0.955172
     2  C    0.013919
     3  C   -0.100453
     4  C   -0.065506
     5  C   -0.067007
     6  N   -0.380793
     7  C   -0.011841
     8  C   -0.052317
     9  C   -0.156752
    10  C    0.113165
    11  C    0.022932
    12  C    0.050083
    13  C   -0.135394
    14  H    0.029550
    15  N   -0.509870
    16  C    0.184386
    17  C   -0.168208
    18  C   -0.051437
    19  C    0.184780
    20  C    0.066143
    21  C    0.037526
    22  O   -0.218192
    23  C   -0.019244
    24  N   -0.317853
    25  C    0.037586
    26  C   -0.121208
    27  C   -0.060561
    28  C    0.021302
    29  C    0.018080
    30  C    0.000707
    31  C   -0.057002
    32  N   -0.463851
    33  C    0.166448
    34  C   -0.208620
    35  C   -0.042145
    36  C    0.161298
    37  C    0.091200
    38  C    0.152421
    39  O   -0.199062
    40  C   -0.163156
    41  C    0.269618
    42  O   -0.250498
    43  O   -0.372313
    44  C    0.150405
    45  H   -0.008611
    46  H    0.020399
    47  H   -0.018276
    48  H    0.051733
    49  H    0.032764
    50  H    0.036881
    51  H    0.043456
    52  H    0.050800
    53  H    0.038797
    54  H    0.034344
    55  H    0.066010
    56  H    0.050608
    57  H    0.052455
    58  H    0.034048
    59  H    0.066364
    60  H    0.061643
    61  H    0.055673
    62  H    0.047404
    63  H    0.040345
    64  H    0.034403
    65  H    0.035227
    66  H    0.050597
    67  H    0.041479
    68  H    0.030944
    69  H    0.027962
    70  H    0.041063
    71  H    0.031090
    72  H    0.041237
    73  H    0.019072
    74  H    0.070180
    75  H    0.044836
    76  H    0.079947
    77  H    0.060108
    78  H    0.049494
    79  H    0.052089
    80  Mg   0.971039
    81  C   -0.073534
    82  C   -0.088626
    83  C   -0.070211
    84  C   -0.087651
    85  N   -0.366555
    86  C    0.021301
    87  C   -0.041290
    88  C   -0.131842
    89  C    0.060099
    90  C    0.036696
    91  C   -0.026274
    92  C   -0.106219
    93  H    0.042098
    94  N   -0.438409
    95  C    0.154930
    96  C   -0.198999
    97  C   -0.050461
    98  C    0.165509
    99  C    0.110536
   100  C    0.017525
   101  O   -0.237276
   102  C   -0.009402
   103  N   -0.356940
   104  C    0.045669
   105  C   -0.079983
   106  C   -0.111647
   107  C    0.037643
   108  C    0.042890
   109  C    0.014750
   110  C   -0.045852
   111  N   -0.434640
   112  C    0.147842
   113  C   -0.205251
   114  C   -0.044308
   115  C    0.163156
   116  C    0.102128
   117  C    0.124219
   118  O   -0.206634
   119  C   -0.072844
   120  C    0.257939
   121  O   -0.210143
   122  O   -0.374929
   123  C    0.128880
   124  H   -0.001752
   125  H   -0.030284
   126  H    0.001542
   127  H    0.040504
   128  H    0.052554
   129  H    0.037971
   130  H    0.045532
   131  H    0.046149
   132  H    0.018124
   133  H    0.023481
   134  H    0.051761
   135  H    0.057185
   136  H    0.065868
   137  H    0.021504
   138  H    0.056361
   139  H    0.066075
   140  H    0.044708
   141  H    0.054413
   142  H    0.033930
   143  H    0.029515
   144  H    0.040550
   145  H    0.046113
   146  H    0.027754
   147  H    0.057233
   148  H    0.024513
   149  H    0.038652
   150  H    0.024893
   151  H    0.035837
   152  H    0.069349
   153  H    0.037698
   154  H    0.057370
   155  H    0.064923
   156  H    0.073212
   157  H    0.055906
   158  H    0.055927
 Sum of Mulliken charges =  -0.00000

 Dipole moment (field-independent basis, Debye):
    X=              0.8225    Y=              3.1513    Z=             -1.5573  Tot=              3.6100
 Quadrupole moment (field-independent basis, Debye-Ang):
   XX=           -367.2803   YY=           -547.5233   ZZ=           -479.0169
   XY=            147.5427   XZ=            -16.2195   YZ=            -15.9632

 Normal termination of Gaussian 16 at Mon Sep 20 12:19:12 2021.
