 Gaussian 16, Revision A.03,
 Gaussian 16:  ES64L-G16RevA.03 25-Dec-2016

 --------------------------------
 #p wB97XD/Def2SVP td=(nstates=5)
 --------------------------------

 --------------------------------
 TDDFT excited states in gaussian
 --------------------------------
 Symbolic Z-matrix:
 Charge =  0 Multiplicity = 1

                         Standard orientation:
 ---------------------------------------------------------------------
 Center     Atomic      Atomic             Coordinates (Angstroms)
 Number     Number       Type             X           Y           Z
 ---------------------------------------------------------------------
      1         12           0      -13.366073   -0.557656    0.280758
      2          6           0      -13.567244    2.472434   -1.326072
      3          6           0      -12.508669    1.196936    3.254963
      4          6           0      -12.604498   -3.447504    1.861406
      5          6           0      -13.845399   -2.215262   -2.595563
      6          7           0      -13.068838    1.601922    0.884100
      7          6           0      -13.203618    2.649112    0.012557
      8          6           0      -13.053567    3.989407    0.735768
      9          6           0      -12.517412    3.500069    2.159652
     10          6           0      -12.701706    2.011553    2.109474
     11          6           0      -11.061399    3.986491    2.501882
     12          6           0      -14.416849    4.813058    0.849076
     13          6           0      -14.492731    6.300254    0.600322
     14          1           0      -13.473297    7.177124    1.236258
     15          7           0      -12.696466   -1.097560    2.314501
     16          6           0      -12.586953   -0.279761    3.384503
     17          6           0      -12.384162   -1.017834    4.585992
     18          6           0      -12.439230   -2.398747    4.216275
     19          6           0      -12.516714   -2.340318    2.726000
     20          6           0      -12.137473   -0.266958    5.854592
     21          6           0      -12.216746   -3.625605    5.084175
     22          8           0      -12.012033   -4.745724    4.606151
     23          6           0      -12.219810   -3.502697    6.597817
     24          7           0      -13.087303   -2.581078   -0.322595
     25          6           0      -12.900594   -3.604450    0.551973
     26          6           0      -13.052288   -4.951449   -0.152735
     27          6           0      -13.630416   -4.527971   -1.556377
     28          6           0      -13.527160   -3.016655   -1.497889
     29          6           0      -11.873827   -5.967549   -0.215711
     30          6           0      -15.065350   -5.086386   -1.935249
     31          6           0      -16.308160   -4.276756   -1.631492
     32          7           0      -13.549525   -0.035837   -1.589161
     33          6           0      -13.887589   -0.771905   -2.696318
     34          6           0      -14.008696    0.006224   -3.874908
     35          6           0      -13.940303    1.306039   -3.383308
     36          6           0      -13.684138    1.225339   -1.990305
     37          6           0      -14.281799   -0.343150   -5.332061
     38          6           0      -13.974598    2.664112   -3.709796
     39          8           0      -14.094320    3.170897   -4.810063
     40          6           0      -13.706871    3.561164   -2.374748
     41          6           0      -12.503412    4.351680   -2.601951
     42          8           0      -11.350135    3.901889   -2.752368
     43          8           0      -12.742402    5.686733   -2.693424
     44          6           0      -11.691866    6.559579   -3.229401
     45          1           0      -12.341658    1.843310    4.118687
     46          1           0      -12.646514   -4.396293    2.399993
     47          1           0      -14.355444   -2.684251   -3.438709
     48          1           0      -12.380986    4.620196    0.153125
     49          1           0      -13.110531    3.918632    2.972917
     50          1           0      -11.116991    4.575966    3.416406
     51          1           0      -10.729359    4.507214    1.603551
     52          1           0      -10.362196    3.200098    2.787756
     53          1           0      -14.695685    4.613786    1.883944
     54          1           0      -15.228139    4.297136    0.336612
     55          1           0      -15.502958    6.659458    0.796444
     56          1           0      -14.274022    6.426121   -0.459452
     57          1           0      -12.766254   -0.760025    6.595058
     58          1           0      -12.502371    0.757398    5.775460
     59          1           0      -11.104451   -0.232021    6.202312
     60          1           0      -13.007130   -2.857875    6.989358
     61          1           0      -11.204777   -3.318086    6.952230
     62          1           0      -12.479694   -4.503740    6.943347
     63          1           0      -13.758859   -5.481835    0.486021
     64          1           0      -13.073422   -4.956811   -2.388570
     65          1           0      -11.484627   -6.031652   -1.231736
     66          1           0      -12.292032   -6.934613    0.063059
     67          1           0      -11.134408   -5.604554    0.497302
     68          1           0      -15.166109   -6.043826   -1.425927
     69          1           0      -15.114650   -5.276011   -3.007734
     70          1           0      -17.045714   -4.858008   -1.077581
     71          1           0      -16.794192   -3.872547   -2.520457
     72          1           0      -15.954043   -3.443741   -1.024185
     73          1           0      -14.431081   -1.420158   -5.417737
     74          1           0      -13.442317   -0.010035   -5.942830
     75          1           0      -15.180516    0.184313   -5.650497
     76          1           0      -14.577785    4.216364   -2.408853
     77          1           0      -12.062465    7.495180   -3.648444
     78          1           0      -10.977062    6.079727   -3.897230
     79          1           0      -11.165069    6.931579   -2.350514
     80         12           0       12.744985   -0.631769   -0.694477
     81          6           0       15.033517    1.806648    0.297927
     82          6           0       10.232353    1.432789    0.013445
     83          6           0       10.739326   -3.381975   -0.380153
     84          6           0       15.407527   -2.773504   -1.372792
     85          7           0       12.653043    1.476416   -0.078419
     86          6           0       13.690790    2.240218    0.240763
     87          6           0       13.184595    3.704548    0.503922
     88          6           0       11.648116    3.520586    0.514689
     89          6           0       11.470302    2.049340    0.151773
     90          6           0       10.974739    3.721586    1.961996
     91          6           0       13.643826    4.787488   -0.574816
     92          6           0       14.041339    6.078962    0.053661
     93          1           0       13.437001    7.378026   -0.456681
     94          7           0       10.755827   -0.911710   -0.267773
     95          6           0        9.853659    0.088608   -0.019476
     96          6           0        8.498125   -0.474009   -0.093844
     97          6           0        8.661210   -1.882824   -0.208562
     98          6           0       10.116780   -2.102299   -0.239350
     99          6           0        7.205588    0.386840    0.074459
    100          6           0        7.566826   -2.992343   -0.218153
    101          8           0        7.802308   -4.190501   -0.326865
    102          6           0        6.149710   -2.570982   -0.115723
    103          7           0       13.012299   -2.706250   -0.814076
    104          6           0       12.054236   -3.698570   -0.585729
    105          6           0       12.744721   -5.086941   -0.546025
    106          6           0       14.023039   -4.872739   -1.469524
    107          6           0       14.127754   -3.345008   -1.198992
    108          6           0       13.015164   -5.592032    0.887533
    109          6           0       13.866860   -5.157863   -2.936256
    110          6           0       13.192614   -4.176791   -3.848672
    111          7           0       14.805353   -0.518985   -0.782784
    112          6           0       15.773397   -1.464154   -1.032167
    113          6           0       17.124180   -0.909259   -0.918917
    114          6           0       16.899063    0.393184   -0.281851
    115          6           0       15.459119    0.547182   -0.225893
    116          6           0       18.364379   -1.614267   -1.130847
    117          6           0       17.534520    1.567006    0.304367
    118          8           0       18.654872    1.831563    0.533391
    119          6           0       16.316381    2.577439    0.634967
    120          6           0       16.364195    3.177190    2.017563
    121          8           0       15.810527    2.713677    3.010176
    122          8           0       17.055648    4.386459    1.952676
    123          6           0       17.193305    5.161386    3.199126
    124          1           0        9.303219    2.007141    0.016328
    125          1           0       10.043164   -4.213481   -0.249129
    126          1           0       16.189529   -3.464206   -1.693928
    127          1           0       13.463114    4.063855    1.494907
    128          1           0       11.077016    4.185986   -0.132732
    129          1           0       10.677991    4.768609    2.026779
    130          1           0       11.639604    3.566985    2.811402
    131          1           0       10.086032    3.090953    2.006460
    132          1           0       12.849339    5.008730   -1.287711
    133          1           0       14.463949    4.484133   -1.225719
    134          1           0       15.096993    6.160750   -0.203750
    135          1           0       13.979671    6.159924    1.138538
    136          1           0        6.983687    0.377257    1.141222
    137          1           0        6.393720    0.020455   -0.554282
    138          1           0        7.368147    1.459297   -0.037978
    139          1           0        5.836780   -1.774433    0.559139
    140          1           0        5.531939   -3.427693    0.152402
    141          1           0        5.741346   -2.445665   -1.118944
    142          1           0       12.037010   -5.733763   -1.063754
    143          1           0       14.885466   -5.440727   -1.121107
    144          1           0       14.040660   -5.880352    1.118546
    145          1           0       12.286415   -6.323225    1.238087
    146          1           0       12.824785   -4.792237    1.602986
    147          1           0       13.339402   -6.084747   -3.158327
    148          1           0       14.863978   -5.310394   -3.349533
    149          1           0       14.038825   -3.623929   -4.256167
    150          1           0       12.542566   -3.446228   -3.366700
    151          1           0       12.655413   -4.720398   -4.626522
    152          1           0       19.047137   -0.885046   -1.567320
    153          1           0       18.165634   -2.398884   -1.860479
    154          1           0       18.759888   -1.974293   -0.181594
    155          1           0       16.389798    3.402800   -0.073206
    156          1           0       17.609388    4.485978    3.947143
    157          1           0       16.219323    5.488383    3.562227
    158          1           0       17.795477    6.070084    3.204735
 ---------------------------------------------------------------------

 SCF Done:  E(RwB97XD) =  -4070.64012803     A.U. after   19 cycles

 Excitation energies and oscillator strengths:

 Excited State   1:      Singlet-A      1.6237 eV  763.58 nm  f=0.3829  <S**2>=0.000
     309 -> 315        0.18251
     312 -> 314        0.68397
     309 <- 315        0.11749
 This state for optimization and/or second-order correction.
 Total Energy, E(TD-HF/TD-DFT) =  -4070.58045723
 Copying the excited state density for this state as the 1-particle RhoCI density.

 Excited State   2:      Singlet-A      1.6606 eV  746.63 nm  f=0.4112  <S**2>=0.000
     310 -> 316        0.18406
     311 -> 313        0.68407
     310 <- 316        0.11633

 Excited State   3:      Singlet-A      2.1345 eV  580.87 nm  f=0.1665  <S**2>=0.000
     310 -> 313        0.66021
     311 -> 316       -0.24172

 Excited State   4:      Singlet-A      2.2000 eV  563.55 nm  f=0.1028  <S**2>=0.000
     309 -> 314        0.63102
     312 -> 315       -0.30784

 Excited State   5:      Singlet-A      3.5339 eV  350.84 nm  f=0.0000  <S**2>=0.000
     312 -> 313        0.70706

 The electronic state is 1-A.
 Alpha  occ. eigenvalues --  -46.95491 -46.94214 -19.30338 -19.30237 -19.25013
 Alpha  occ. eigenvalues --  -19.24713 -19.24119 -19.23971 -19.23699 -19.23536
 Alpha  occ. eigenvalues --  -14.46761 -14.46715 -14.46167 -14.45975 -14.44208
 Alpha  occ. eigenvalues --  -14.44136 -14.43862 -14.43746 -10.43524 -10.42835
 Alpha  occ. eigenvalues --  -10.39531 -10.39508 -10.39401 -10.38585 -10.35519
 Alpha  occ. eigenvalues --  -10.35423 -10.35318 -10.35132 -10.34949 -10.34565
 Alpha  occ. eigenvalues --  -10.34516 -10.34450 -10.34195 -10.34176 -10.34166
 Alpha  occ. eigenvalues --  -10.33975 -10.33935 -10.33831 -10.33755 -10.33484
 Alpha  occ. eigenvalues --  -10.33329 -10.33041 -10.32859 -10.32798 -10.32583
 Alpha  occ. eigenvalues --  -10.32579 -10.32573 -10.32423 -10.32369 -10.32331
 Alpha  occ. eigenvalues --  -10.32314 -10.32194 -10.32163 -10.32140 -10.32101
 Alpha  occ. eigenvalues --  -10.31891 -10.31830 -10.31659 -10.31646 -10.31589
 Alpha  occ. eigenvalues --  -10.31565 -10.31404 -10.31397 -10.31093 -10.30907
 Alpha  occ. eigenvalues --  -10.30862 -10.30782 -10.30696 -10.30690 -10.30336
 Alpha  occ. eigenvalues --  -10.30191 -10.30140 -10.30110 -10.30100 -10.29988
 Alpha  occ. eigenvalues --  -10.29935 -10.29753 -10.29606 -10.29587 -10.29427
 Alpha  occ. eigenvalues --  -10.29331 -10.29325 -10.29288 -10.28877 -10.28687
 Alpha  occ. eigenvalues --  -10.28310  -3.21544  -3.20334  -1.95117  -1.94629
 Alpha  occ. eigenvalues --   -1.94558  -1.93932  -1.93437  -1.93337  -1.18086
 Alpha  occ. eigenvalues --   -1.17300  -1.15186  -1.12283  -1.12174  -1.11735
 Alpha  occ. eigenvalues --   -1.09631  -1.08081  -1.07448  -1.07123  -1.06743
 Alpha  occ. eigenvalues --   -1.06210  -1.05557  -1.05524  -1.04846  -1.04129
 Alpha  occ. eigenvalues --   -0.94637  -0.93811  -0.90997  -0.90843  -0.90425
 Alpha  occ. eigenvalues --   -0.90153  -0.90109  -0.89898  -0.89773  -0.89415
 Alpha  occ. eigenvalues --   -0.89094  -0.88771  -0.88419  -0.88158  -0.86267
 Alpha  occ. eigenvalues --   -0.86012  -0.85704  -0.85444  -0.84614  -0.84405
 Alpha  occ. eigenvalues --   -0.83818  -0.83701  -0.83161  -0.82907  -0.82326
 Alpha  occ. eigenvalues --   -0.82286  -0.80402  -0.80136  -0.79451  -0.79119
 Alpha  occ. eigenvalues --   -0.79085  -0.78635  -0.78213  -0.77719  -0.77478
 Alpha  occ. eigenvalues --   -0.76741  -0.75582  -0.74205  -0.73573  -0.73388
 Alpha  occ. eigenvalues --   -0.71589  -0.71261  -0.71092  -0.70461  -0.70143
 Alpha  occ. eigenvalues --   -0.69639  -0.69171  -0.68649  -0.67608  -0.67594
 Alpha  occ. eigenvalues --   -0.67155  -0.66771  -0.66568  -0.66253  -0.66198
 Alpha  occ. eigenvalues --   -0.65987  -0.64289  -0.63765  -0.62248  -0.62080
 Alpha  occ. eigenvalues --   -0.61854  -0.61501  -0.61111  -0.60831  -0.60323
 Alpha  occ. eigenvalues --   -0.60054  -0.59929  -0.59709  -0.59322  -0.59166
 Alpha  occ. eigenvalues --   -0.58284  -0.57739  -0.57432  -0.57383  -0.57254
 Alpha  occ. eigenvalues --   -0.57044  -0.56821  -0.56709  -0.56042  -0.56015
 Alpha  occ. eigenvalues --   -0.55476  -0.55278  -0.55267  -0.55141  -0.54817
 Alpha  occ. eigenvalues --   -0.54790  -0.54524  -0.54374  -0.54214  -0.54068
 Alpha  occ. eigenvalues --   -0.54043  -0.53643  -0.53502  -0.53449  -0.53267
 Alpha  occ. eigenvalues --   -0.53162  -0.52732  -0.52569  -0.52275  -0.52241
 Alpha  occ. eigenvalues --   -0.52072  -0.51960  -0.51843  -0.51507  -0.51503
 Alpha  occ. eigenvalues --   -0.51384  -0.51213  -0.51055  -0.50998  -0.50780
 Alpha  occ. eigenvalues --   -0.50715  -0.50552  -0.50470  -0.50212  -0.50179
 Alpha  occ. eigenvalues --   -0.49854  -0.49825  -0.49680  -0.49546  -0.49141
 Alpha  occ. eigenvalues --   -0.48842  -0.48840  -0.48728  -0.48475  -0.48461
 Alpha  occ. eigenvalues --   -0.48142  -0.48139  -0.47993  -0.47929  -0.47849
 Alpha  occ. eigenvalues --   -0.47702  -0.47375  -0.47282  -0.47092  -0.47004
 Alpha  occ. eigenvalues --   -0.46826  -0.46505  -0.46503  -0.46229  -0.46049
 Alpha  occ. eigenvalues --   -0.45903  -0.45875  -0.45606  -0.45594  -0.45336
 Alpha  occ. eigenvalues --   -0.45214  -0.45214  -0.45150  -0.44973  -0.44656
 Alpha  occ. eigenvalues --   -0.44539  -0.44238  -0.43948  -0.43837  -0.43742
 Alpha  occ. eigenvalues --   -0.43508  -0.43475  -0.43394  -0.43292  -0.43279
 Alpha  occ. eigenvalues --   -0.43081  -0.43037  -0.42542  -0.42332  -0.42070
 Alpha  occ. eigenvalues --   -0.41964  -0.41798  -0.41502  -0.40990  -0.40550
 Alpha  occ. eigenvalues --   -0.40451  -0.40193  -0.39910  -0.39553  -0.39323
 Alpha  occ. eigenvalues --   -0.38899  -0.38706  -0.38607  -0.38559  -0.38090
 Alpha  occ. eigenvalues --   -0.37795  -0.37734  -0.36594  -0.36386  -0.36230
 Alpha  occ. eigenvalues --   -0.35471  -0.35131  -0.35016  -0.33582  -0.33348
 Alpha  occ. eigenvalues --   -0.33288  -0.33221  -0.33081  -0.33077  -0.32496
 Alpha  occ. eigenvalues --   -0.32301  -0.32135  -0.31718  -0.25857  -0.25792
 Alpha  occ. eigenvalues --   -0.23319  -0.22536
 Alpha virt. eigenvalues --   -0.07506  -0.06762   0.00587   0.00682   0.02268
 Alpha virt. eigenvalues --    0.02537   0.04513   0.04591   0.04898   0.05962
 Alpha virt. eigenvalues --    0.06769   0.06819   0.08120   0.08509   0.08848

 Mulliken charges:
               1
     1  Mg   0.974705
     2  C   -0.004265
     3  C   -0.064921
     4  C   -0.065462
     5  C   -0.074883
     6  N   -0.330773
     7  C    0.000527
     8  C   -0.084414
     9  C   -0.117743
    10  C    0.051504
    11  C    0.025249
    12  C    0.010940
    13  C   -0.102328
    14  H    0.032650
    15  N   -0.356582
    16  C    0.129036
    17  C   -0.163754
    18  C   -0.075467
    19  C    0.100023
    20  C    0.082150
    21  C    0.043308
    22  O   -0.246842
    23  C   -0.017164
    24  N   -0.351470
    25  C    0.050163
    26  C   -0.080583
    27  C   -0.041615
    28  C    0.061537
    29  C    0.035313
    30  C   -0.057995
    31  C   -0.043090
    32  N   -0.478664
    33  C    0.099363
    34  C   -0.189194
    35  C    0.040966
    36  C    0.138108
    37  C    0.096938
    38  C    0.037797
    39  O   -0.207930
    40  C   -0.056031
    41  C    0.260216
    42  O   -0.281425
    43  O   -0.359691
    44  C    0.146678
    45  H   -0.010930
    46  H    0.017391
    47  H   -0.000334
    48  H    0.048898
    49  H    0.042674
    50  H    0.031657
    51  H    0.050306
    52  H    0.040464
    53  H    0.012424
    54  H    0.032331
    55  H    0.056084
    56  H    0.054276
    57  H    0.030696
    58  H    0.036865
    59  H    0.063507
    60  H    0.053871
    61  H    0.071500
    62  H    0.050544
    63  H    0.036418
    64  H    0.036908
    65  H    0.036521
    66  H    0.040463
    67  H    0.051384
    68  H    0.029771
    69  H    0.029381
    70  H    0.038528
    71  H    0.037310
    72  H    0.035872
    73  H    0.026455
    74  H    0.066764
    75  H    0.061011
    76  H    0.060718
    77  H    0.053447
    78  H    0.075396
    79  H    0.036550
    80  Mg   0.983855
    81  C    0.016716
    82  C   -0.089973
    83  C   -0.082571
    84  C   -0.106124
    85  N   -0.316788
    86  C    0.009730
    87  C   -0.040664
    88  C   -0.128890
    89  C    0.104193
    90  C   -0.004738
    91  C    0.028086
    92  C   -0.147789
    93  H    0.026053
    94  N   -0.453093
    95  C    0.111719
    96  C   -0.155539
    97  C   -0.103371
    98  C    0.123598
    99  C    0.045799
   100  C    0.084822
   101  O   -0.233005
   102  C   -0.023543
   103  N   -0.364445
   104  C    0.051605
   105  C   -0.053057
   106  C   -0.060099
   107  C    0.046708
   108  C    0.044669
   109  C   -0.025398
   110  C   -0.034940
   111  N   -0.448069
   112  C    0.163689
   113  C   -0.168959
   114  C   -0.084531
   115  C    0.117390
   116  C    0.077029
   117  C    0.137575
   118  O   -0.142330
   119  C   -0.138925
   120  C    0.283393
   121  O   -0.249144
   122  O   -0.383367
   123  C    0.147076
   124  H   -0.012999
   125  H    0.021671
   126  H   -0.009773
   127  H    0.042954
   128  H    0.044094
   129  H    0.031170
   130  H    0.051159
   131  H    0.038107
   132  H    0.037965
   133  H    0.036982
   134  H    0.053882
   135  H    0.051386
   136  H    0.057663
   137  H    0.063879
   138  H    0.032725
   139  H    0.059384
   140  H    0.038882
   141  H    0.062866
   142  H    0.024435
   143  H    0.023805
   144  H    0.039082
   145  H    0.044493
   146  H    0.032071
   147  H    0.026712
   148  H    0.023382
   149  H    0.026930
   150  H    0.051730
   151  H    0.040202
   152  H    0.057302
   153  H    0.036638
   154  H    0.074502
   155  H    0.075945
   156  H    0.054197
   157  H    0.040522
   158  H    0.061702
 Sum of Mulliken charges =  -0.00000

 Dipole moment (field-independent basis, Debye):
    X=             -5.1127    Y=              2.3069    Z=              2.0767  Tot=              5.9812
 Quadrupole moment (field-independent basis, Debye-Ang):
   XX=           -512.5047   YY=           -480.2751   ZZ=           -502.8954
   XY=              3.9835   XZ=            -73.6622   YZ=             36.3592

 Normal termination of Gaussian 16 at Mon Sep 20 18:52:25 2021.
