 Gaussian 16, Revision A.03,
 Gaussian 16:  ES64L-G16RevA.03 25-Dec-2016

 --------------------------------
 #p wB97XD/Def2SVP td=(nstates=5)
 --------------------------------

 --------------------------------
 TDDFT excited states in gaussian
 --------------------------------
 Symbolic Z-matrix:
 Charge =  0 Multiplicity = 1

                         Standard orientation:
 ---------------------------------------------------------------------
 Center     Atomic      Atomic             Coordinates (Angstroms)
 Number     Number       Type             X           Y           Z
 ---------------------------------------------------------------------
      1         12           0      -21.271854    0.412267   -0.217466
      2          6           0      -18.674685   -1.942783   -0.403857
      3          6           0      -23.432304   -2.149496    0.341244
      4          6           0      -23.496331    2.737993    0.364849
      5          6           0      -18.644366    2.862559    0.024990
      6          7           0      -21.057351   -1.759803   -0.125376
      7          6           0      -19.917160   -2.508308   -0.206243
      8          6           0      -20.246526   -3.935802    0.255410
      9          6           0      -21.731633   -4.036355   -0.074798
     10          6           0      -22.105443   -2.559486    0.155557
     11          6           0      -21.995531   -4.473139   -1.534323
     12          6           0      -19.960249   -4.123513    1.791211
     13          6           0      -18.777165   -5.118093    2.232025
     14          1           0      -17.586744   -4.556747    3.028176
     15          7           0      -23.184533    0.314289    0.340074
     16          6           0      -23.916298   -0.839937    0.500066
     17          6           0      -25.282959   -0.475496    0.707089
     18          6           0      -25.410658    0.949496    0.607728
     19          6           0      -24.006283    1.421690    0.434975
     20          6           0      -26.424347   -1.520559    0.954039
     21          6           0      -26.770582    1.736148    0.656453
     22          8           0      -27.803931    1.141812    0.688894
     23          6           0      -26.750581    3.167184    0.378884
     24          7           0      -21.066201    2.472245    0.460246
     25          6           0      -22.177469    3.213639    0.237973
     26          6           0      -21.872554    4.662692   -0.102906
     27          6           0      -20.377932    4.772658    0.157160
     28          6           0      -19.975766    3.258572    0.229600
     29          6           0      -22.247309    5.036679   -1.584648
     30          6           0      -19.854895    5.603095    1.422056
     31          6           0      -19.178030    6.939354    1.274272
     32          7           0      -19.152004    0.519830   -0.392320
     33          6           0      -18.226872    1.565110   -0.274914
     34          6           0      -16.864978    1.086603   -0.374385
     35          6           0      -17.006316   -0.277033   -0.453735
     36          6           0      -18.398979   -0.617719   -0.438828
     37          6           0      -15.656465    1.924240   -0.305275
     38          6           0      -16.264876   -1.524804   -0.553890
     39          8           0      -15.049166   -1.710720   -0.688881
     40          6           0      -17.299648   -2.627263   -0.635403
     41          6           0      -17.122768   -3.314605   -1.984966
     42          8           0      -17.217929   -2.680046   -3.033041
     43          8           0      -16.726039   -4.652619   -1.835728
     44          6           0      -16.507364   -5.353429   -3.072806
     45          1           0      -24.117135   -2.999466    0.360845
     46          1           0      -24.301150    3.463861    0.238917
     47          1           0      -17.861013    3.622708   -0.012378
     48          1           0      -19.542355   -4.597701   -0.249329
     49          1           0      -22.186607   -4.733526    0.627698
     50          1           0      -22.707492   -5.273765   -1.336862
     51          1           0      -21.027779   -4.821166   -1.896572
     52          1           0      -22.395705   -3.717326   -2.210231
     53          1           0      -20.862002   -4.542582    2.237499
     54          1           0      -19.843534   -3.132111    2.228217
     55          1           0      -18.334436   -5.466001    1.298416
     56          1           0      -19.108116   -6.014748    2.754671
     57          1           0      -27.090191   -1.360274    1.801450
     58          1           0      -25.918945   -2.476478    1.095277
     59          1           0      -27.080743   -1.637953    0.091609
     60          1           0      -26.120493    3.747769    1.053039
     61          1           0      -27.772057    3.542485    0.440236
     62          1           0      -26.556681    3.341208   -0.678632
     63          1           0      -22.457772    5.365161    0.491462
     64          1           0      -19.869386    5.164975   -0.723519
     65          1           0      -23.208463    5.543021   -1.671887
     66          1           0      -22.133840    4.159314   -2.221384
     67          1           0      -21.497252    5.748760   -1.931807
     68          1           0      -19.323468    5.063507    2.205236
     69          1           0      -20.846576    5.790091    1.834866
     70          1           0      -19.756332    7.767239    1.683264
     71          1           0      -19.017604    7.151763    0.216997
     72          1           0      -18.229642    6.819305    1.797458
     73          1           0      -15.908479    2.823622    0.257256
     74          1           0      -15.449818    2.221327   -1.333838
     75          1           0      -14.805976    1.366006    0.083377
     76          1           0      -16.990209   -3.297635    0.165295
     77          1           0      -17.417958   -5.663190   -3.586305
     78          1           0      -15.912992   -6.254322   -2.923063
     79          1           0      -15.933806   -4.793782   -3.811177
     80         12           0       20.543713    0.666332   -0.338225
     81          6           0       20.595457   -2.736904    0.594342
     82          6           0       17.451736    0.993249    1.243067
     83          6           0       21.026889    4.039849   -0.355808
     84          6           0       23.925311    0.206636   -1.426037
     85          7           0       19.212750   -0.711086    0.730312
     86          6           0       19.443817   -2.011623    1.008755
     87          6           0       18.321798   -2.597700    1.926234
     88          6           0       17.201610   -1.470686    1.759724
     89          6           0       17.989964   -0.264066    1.155027
     90          6           0       15.974450   -1.701284    0.848891
     91          6           0       18.885445   -2.744455    3.390131
     92          6           0       18.354749   -3.990978    4.151194
     93          1           0       18.009323   -3.762692    5.679009
     94          7           0       19.287150    2.351023    0.175435
     95          6           0       18.055197    2.219687    0.759431
     96          6           0       17.526045    3.524463    0.884968
     97          6           0       18.526697    4.468840    0.508170
     98          6           0       19.686543    3.646910    0.025342
     99          6           0       16.155602    3.854456    1.427594
    100          6           0       18.484002    5.945424    0.708451
    101          8           0       17.565225    6.490417    1.298855
    102          6           0       19.519060    6.861174    0.304862
    103          7           0       22.327211    1.926831   -0.735866
    104          6           0       22.160507    3.316730   -0.825425
    105          6           0       23.380436    3.956387   -1.411005
    106          6           0       24.357777    2.758612   -1.704396
    107          6           0       23.528710    1.559366   -1.278151
    108          6           0       22.974865    4.761446   -2.652236
    109          6           0       25.808063    2.967144   -1.126272
    110          6           0       26.942743    2.900806   -2.103049
    111          7           0       22.020623   -0.945733   -0.459692
    112          6           0       23.294842   -0.954985   -0.971767
    113          6           0       23.818642   -2.337473   -1.027410
    114          6           0       22.778294   -3.025925   -0.348757
    115          6           0       21.714914   -2.173336   -0.118469
    116          6           0       25.180951   -2.839303   -1.479805
    117          6           0       22.458703   -4.297481    0.243845
    118          8           0       23.136406   -5.334371    0.317564
    119          6           0       21.061741   -4.220561    0.859270
    120          6           0       20.176726   -5.264334    0.309367
    121          8           0       19.658420   -6.076418    0.986465
    122          8           0       19.863512   -5.079429   -1.006190
    123          6           0       18.778871   -5.995914   -1.419856
    124          1           0       16.449600    1.115738    1.660315
    125          1           0       21.076506    5.127871   -0.421496
    126          1           0       24.938466   -0.117877   -1.674626
    127          1           0       18.027440   -3.566606    1.522527
    128          1           0       16.914181   -0.961180    2.679301
    129          1           0       16.211601   -2.425787    0.068984
    130          1           0       15.543253   -0.815364    0.382611
    131          1           0       15.218178   -2.157249    1.486945
    132          1           0       18.704743   -1.837163    3.967260
    133          1           0       19.964234   -2.828694    3.258553
    134          1           0       19.167151   -4.710653    4.048823
    135          1           0       17.521616   -4.313903    3.526535
    136          1           0       15.740592    4.820051    1.138357
    137          1           0       16.295107    3.809705    2.507366
    138          1           0       15.400227    3.072064    1.354041
    139          1           0       19.605574    6.778685   -0.779321
    140          1           0       20.455387    6.651184    0.822666
    141          1           0       19.211391    7.870587    0.578011
    142          1           0       23.905917    4.541743   -0.656846
    143          1           0       24.450660    2.423758   -2.737754
    144          1           0       21.900517    4.933380   -2.722282
    145          1           0       23.247961    4.247398   -3.573797
    146          1           0       23.309618    5.792396   -2.541330
    147          1           0       25.911328    2.191691   -0.367244
    148          1           0       25.984259    3.963684   -0.722994
    149          1           0       27.640991    2.151374   -1.731326
    150          1           0       27.494489    3.839909   -2.148985
    151          1           0       26.615666    2.754832   -3.132567
    152          1           0       25.942731   -2.745125   -0.705638
    153          1           0       25.516417   -2.389662   -2.415203
    154          1           0       24.986488   -3.908512   -1.563015
    155          1           0       21.111376   -4.488376    1.913908
    156          1           0       18.569709   -5.805955   -2.472921
    157          1           0       17.887035   -5.835964   -0.814088
    158          1           0       19.060206   -7.048347   -1.431927
 ---------------------------------------------------------------------

 SCF Done:  E(RwB97XD) =  -4070.58707263     A.U. after   19 cycles

 Excitation energies and oscillator strengths:

 Excited State   1:      Singlet-A      1.6192 eV  765.70 nm  f=0.4137  <S**2>=0.000
     309 -> 315        0.17886
     311 -> 313        0.68460
     309 <- 315        0.11645
 This state for optimization and/or second-order correction.
 Total Energy, E(TD-HF/TD-DFT) =  -4070.52756724
 Copying the excited state density for this state as the 1-particle RhoCI density.

 Excited State   2:      Singlet-A      1.6668 eV  743.86 nm  f=0.3557  <S**2>=0.000
     310 -> 316        0.19752
     312 -> 314        0.68087
     310 <- 316        0.12065

 Excited State   3:      Singlet-A      2.1452 eV  577.97 nm  f=0.1098  <S**2>=0.000
     309 -> 313        0.63985
     311 -> 315       -0.28462

 Excited State   4:      Singlet-A      2.2262 eV  556.94 nm  f=0.0509  <S**2>=0.000
     310 -> 314        0.60367
     312 -> 316       -0.35677

 Excited State   5:      Singlet-A      3.2205 eV  384.98 nm  f=0.0033  <S**2>=0.000
     304 -> 313       -0.13571
     306 -> 313       -0.11668
     308 -> 313        0.65576
     308 -> 317        0.10331

 The electronic state is 1-A.
 Alpha  occ. eigenvalues --  -46.97156 -46.95031 -19.31292 -19.30336 -19.25559
 Alpha  occ. eigenvalues --  -19.24843 -19.24069 -19.23941 -19.23857 -19.22302
 Alpha  occ. eigenvalues --  -14.47600 -14.47269 -14.46729 -14.46678 -14.44473
 Alpha  occ. eigenvalues --  -14.43992 -14.43981 -14.43888 -10.44157 -10.42561
 Alpha  occ. eigenvalues --  -10.38980 -10.38820 -10.38616 -10.37400 -10.36297
 Alpha  occ. eigenvalues --  -10.36006 -10.35877 -10.35567 -10.35261 -10.35174
 Alpha  occ. eigenvalues --  -10.35142 -10.35088 -10.34995 -10.34875 -10.34696
 Alpha  occ. eigenvalues --  -10.34572 -10.34236 -10.33858 -10.33838 -10.33547
 Alpha  occ. eigenvalues --  -10.33516 -10.33284 -10.33104 -10.33102 -10.33066
 Alpha  occ. eigenvalues --  -10.32751 -10.32630 -10.32573 -10.32494 -10.32493
 Alpha  occ. eigenvalues --  -10.32487 -10.32272 -10.32199 -10.32186 -10.32147
 Alpha  occ. eigenvalues --  -10.31948 -10.31946 -10.31945 -10.31922 -10.31836
 Alpha  occ. eigenvalues --  -10.31659 -10.31565 -10.31548 -10.31217 -10.31027
 Alpha  occ. eigenvalues --  -10.30969 -10.30943 -10.30937 -10.30908 -10.30901
 Alpha  occ. eigenvalues --  -10.30747 -10.30733 -10.30729 -10.30383 -10.30364
 Alpha  occ. eigenvalues --  -10.30240 -10.30126 -10.30089 -10.29862 -10.29560
 Alpha  occ. eigenvalues --  -10.29526 -10.29499 -10.29427 -10.29205 -10.29155
 Alpha  occ. eigenvalues --  -10.29126  -3.22800  -3.21076  -1.96393  -1.95891
 Alpha  occ. eigenvalues --   -1.95752  -1.94642  -1.94215  -1.94044  -1.20136
 Alpha  occ. eigenvalues --   -1.18174  -1.14105  -1.11720  -1.11359  -1.11255
 Alpha  occ. eigenvalues --   -1.11216  -1.10469  -1.07169  -1.06784  -1.06281
 Alpha  occ. eigenvalues --   -1.05744  -1.05436  -1.04915  -1.04555  -1.04114
 Alpha  occ. eigenvalues --   -0.95060  -0.94630  -0.91285  -0.91014  -0.90950
 Alpha  occ. eigenvalues --   -0.90848  -0.90459  -0.90115  -0.89952  -0.89576
 Alpha  occ. eigenvalues --   -0.89054  -0.88989  -0.87749  -0.86937  -0.86779
 Alpha  occ. eigenvalues --   -0.86594  -0.86505  -0.86146  -0.84627  -0.84467
 Alpha  occ. eigenvalues --   -0.84447  -0.84396  -0.83012  -0.82887  -0.82830
 Alpha  occ. eigenvalues --   -0.82518  -0.80608  -0.79951  -0.79550  -0.79179
 Alpha  occ. eigenvalues --   -0.78799  -0.78407  -0.78343  -0.78223  -0.77358
 Alpha  occ. eigenvalues --   -0.77046  -0.75152  -0.74880  -0.74494  -0.74114
 Alpha  occ. eigenvalues --   -0.71357  -0.71197  -0.70954  -0.70601  -0.70106
 Alpha  occ. eigenvalues --   -0.69923  -0.68844  -0.68758  -0.68290  -0.67793
 Alpha  occ. eigenvalues --   -0.67647  -0.67565  -0.67006  -0.66867  -0.66648
 Alpha  occ. eigenvalues --   -0.66477  -0.65309  -0.64730  -0.62212  -0.62087
 Alpha  occ. eigenvalues --   -0.62054  -0.62024  -0.61108  -0.60984  -0.60883
 Alpha  occ. eigenvalues --   -0.60868  -0.60488  -0.60276  -0.59711  -0.59049
 Alpha  occ. eigenvalues --   -0.58449  -0.58221  -0.58067  -0.58022  -0.57537
 Alpha  occ. eigenvalues --   -0.57254  -0.57076  -0.56895  -0.56507  -0.55923
 Alpha  occ. eigenvalues --   -0.55490  -0.55482  -0.55313  -0.55106  -0.55092
 Alpha  occ. eigenvalues --   -0.54943  -0.54767  -0.54719  -0.54620  -0.54567
 Alpha  occ. eigenvalues --   -0.54205  -0.54130  -0.53732  -0.53669  -0.53433
 Alpha  occ. eigenvalues --   -0.53277  -0.52957  -0.52821  -0.52817  -0.52387
 Alpha  occ. eigenvalues --   -0.52095  -0.51964  -0.51784  -0.51739  -0.51584
 Alpha  occ. eigenvalues --   -0.51535  -0.51257  -0.51234  -0.51045  -0.51026
 Alpha  occ. eigenvalues --   -0.50614  -0.50561  -0.50319  -0.50265  -0.50099
 Alpha  occ. eigenvalues --   -0.50021  -0.49454  -0.49442  -0.49253  -0.49034
 Alpha  occ. eigenvalues --   -0.48937  -0.48707  -0.48619  -0.48522  -0.48313
 Alpha  occ. eigenvalues --   -0.48263  -0.48243  -0.48213  -0.48043  -0.47899
 Alpha  occ. eigenvalues --   -0.47677  -0.47377  -0.47287  -0.47092  -0.47033
 Alpha  occ. eigenvalues --   -0.46794  -0.46632  -0.46390  -0.46294  -0.46246
 Alpha  occ. eigenvalues --   -0.46099  -0.45988  -0.45799  -0.45533  -0.45524
 Alpha  occ. eigenvalues --   -0.45298  -0.45267  -0.45035  -0.44922  -0.44810
 Alpha  occ. eigenvalues --   -0.44545  -0.44542  -0.44383  -0.44335  -0.44092
 Alpha  occ. eigenvalues --   -0.43890  -0.43692  -0.43653  -0.43529  -0.43297
 Alpha  occ. eigenvalues --   -0.43003  -0.42898  -0.42763  -0.42641  -0.42607
 Alpha  occ. eigenvalues --   -0.42292  -0.42059  -0.41957  -0.41534  -0.41123
 Alpha  occ. eigenvalues --   -0.40898  -0.40581  -0.39944  -0.39917  -0.39652
 Alpha  occ. eigenvalues --   -0.39473  -0.39236  -0.39174  -0.38932  -0.38623
 Alpha  occ. eigenvalues --   -0.38590  -0.38328  -0.36900  -0.36836  -0.36720
 Alpha  occ. eigenvalues --   -0.36127  -0.35747  -0.35742  -0.33708  -0.33555
 Alpha  occ. eigenvalues --   -0.33199  -0.32973  -0.32951  -0.32602  -0.32328
 Alpha  occ. eigenvalues --   -0.31905  -0.31822  -0.31324  -0.26422  -0.26324
 Alpha  occ. eigenvalues --   -0.23361  -0.22805
 Alpha virt. eigenvalues --   -0.07750  -0.06659  -0.00336  -0.00335   0.02337
 Alpha virt. eigenvalues --    0.02587   0.04420   0.04554   0.04601   0.05188
 Alpha virt. eigenvalues --    0.06360   0.07283   0.07474   0.08010   0.08216

 Mulliken charges:
               1
     1  Mg   0.956730
     2  C   -0.054809
     3  C   -0.098099
     4  C   -0.052948
     5  C   -0.094218
     6  N   -0.331752
     7  C   -0.023756
     8  C   -0.115060
     9  C   -0.115657
    10  C    0.039025
    11  C    0.060847
    12  C    0.025476
    13  C   -0.134578
    14  H    0.044846
    15  N   -0.518597
    16  C    0.210574
    17  C   -0.172930
    18  C   -0.106194
    19  C    0.151615
    20  C    0.083396
    21  C    0.062131
    22  O   -0.196875
    23  C   -0.021593
    24  N   -0.326623
    25  C    0.062293
    26  C   -0.102054
    27  C   -0.070068
    28  C    0.069688
    29  C    0.021090
    30  C   -0.022396
    31  C   -0.034778
    32  N   -0.429032
    33  C    0.127808
    34  C   -0.206700
    35  C   -0.016840
    36  C    0.192792
    37  C    0.097493
    38  C    0.099121
    39  O   -0.220868
    40  C   -0.022027
    41  C    0.288769
    42  O   -0.244379
    43  O   -0.362522
    44  C    0.139840
    45  H    0.001616
    46  H   -0.029239
    47  H   -0.001579
    48  H    0.017278
    49  H    0.023684
    50  H    0.042913
    51  H    0.038767
    52  H    0.055123
    53  H    0.032700
    54  H    0.055658
    55  H    0.047922
    56  H    0.058773
    57  H    0.056050
    58  H    0.011831
    59  H    0.051535
    60  H    0.070949
    61  H    0.042027
    62  H    0.069572
    63  H    0.033443
    64  H    0.024316
    65  H    0.046122
    66  H    0.041569
    67  H    0.029650
    68  H    0.043983
    69  H    0.016341
    70  H    0.044050
    71  H    0.026330
    72  H    0.041581
    73  H    0.036665
    74  H    0.058291
    75  H    0.066042
    76  H    0.061081
    77  H    0.042319
    78  H    0.050435
    79  H    0.054016
    80  Mg   0.930682
    81  C   -0.012536
    82  C   -0.078752
    83  C   -0.029792
    84  C   -0.055311
    85  N   -0.359374
    86  C   -0.011288
    87  C   -0.090430
    88  C   -0.100342
    89  C    0.079392
    90  C    0.032979
    91  C    0.011763
    92  C   -0.107009
    93  H    0.041733
    94  N   -0.446483
    95  C    0.131747
    96  C   -0.166314
    97  C   -0.071289
    98  C    0.121552
    99  C    0.092386
   100  C   -0.000449
   101  O   -0.245869
   102  C    0.011249
   103  N   -0.354314
   104  C    0.049148
   105  C   -0.068674
   106  C   -0.054142
   107  C    0.053441
   108  C    0.028795
   109  C   -0.008402
   110  C   -0.059092
   111  N   -0.368149
   112  C    0.038782
   113  C   -0.158695
   114  C   -0.038446
   115  C    0.117644
   116  C    0.062071
   117  C    0.094528
   118  O   -0.225748
   119  C   -0.017584
   120  C    0.221541
   121  O   -0.212606
   122  O   -0.366512
   123  C    0.139995
   124  H    0.006100
   125  H   -0.031075
   126  H   -0.001374
   127  H    0.038026
   128  H    0.035494
   129  H    0.032309
   130  H    0.046145
   131  H    0.040204
   132  H    0.042481
   133  H    0.036087
   134  H    0.065933
   135  H    0.053302
   136  H    0.070794
   137  H    0.039802
   138  H    0.017361
   139  H    0.051131
   140  H    0.064330
   141  H    0.052275
   142  H    0.047972
   143  H    0.037673
   144  H    0.035149
   145  H    0.041422
   146  H    0.037055
   147  H    0.041954
   148  H    0.039562
   149  H    0.042329
   150  H    0.030753
   151  H    0.032993
   152  H    0.064817
   153  H    0.051563
   154  H    0.065756
   155  H    0.062059
   156  H    0.046750
   157  H    0.053376
   158  H    0.057667
 Sum of Mulliken charges =  -0.00000

 Dipole moment (field-independent basis, Debye):
    X=              0.0498    Y=              4.3524    Z=             -4.6873  Tot=              6.3966
 Quadrupole moment (field-independent basis, Debye-Ang):
   XX=           -430.2777   YY=           -497.5489   ZZ=           -511.5298
   XY=             64.9513   XZ=            -61.6416   YZ=              1.0700

 Normal termination of Gaussian 16 at Mon Sep 20 16:03:21 2021.
