 Gaussian 16, Revision A.03,
 Gaussian 16:  ES64L-G16RevA.03 25-Dec-2016

 --------------------------------
 #p wB97XD/Def2SVP td=(nstates=5)
 --------------------------------

 --------------------------------
 TDDFT excited states in gaussian
 --------------------------------
 Symbolic Z-matrix:
 Charge =  0 Multiplicity = 1

                         Standard orientation:
 ---------------------------------------------------------------------
 Center     Atomic      Atomic             Coordinates (Angstroms)
 Number     Number       Type             X           Y           Z
 ---------------------------------------------------------------------
      1         12           0      -23.916516   -0.655354    0.096984
      2          6           0      -22.774272    2.425779   -1.196123
      3          6           0      -24.385000    0.809214    3.148824
      4          6           0      -24.309924   -3.675382    1.359818
      5          6           0      -22.931047   -2.157657   -2.962066
      6          7           0      -23.709955    1.433032    0.826982
      7          6           0      -23.257772    2.459061    0.133464
      8          6           0      -23.598502    3.730979    0.888795
      9          6           0      -23.683581    3.247414    2.387695
     10          6           0      -23.938438    1.713946    2.139298
     11          6           0      -22.391792    3.649657    3.195922
     12          6           0      -24.967190    4.324237    0.466654
     13          6           0      -25.182941    5.866196    0.797891
     14          1           0      -24.118372    6.696273    1.520265
     15          7           0      -24.486487   -1.309392    1.908075
     16          6           0      -24.720484   -0.555320    3.086529
     17          6           0      -25.204149   -1.479271    4.138905
     18          6           0      -25.098659   -2.821162    3.624097
     19          6           0      -24.617076   -2.694007    2.231437
     20          6           0      -25.695041   -1.033642    5.471028
     21          6           0      -25.421640   -4.236456    4.243409
     22          8           0      -25.357206   -5.301072    3.613752
     23          6           0      -25.690662   -4.322358    5.717853
     24          7           0      -23.545147   -2.673573   -0.662978
     25          6           0      -23.836850   -3.740804    0.032063
     26          6           0      -23.645497   -5.046907   -0.686679
     27          6           0      -23.183349   -4.572650   -2.109285
     28          6           0      -23.306186   -3.023236   -1.956380
     29          6           0      -22.745507   -6.003718    0.100745
     30          6           0      -24.040778   -5.082098   -3.260989
     31          6           0      -23.282742   -5.514446   -4.567000
     32          7           0      -23.081577   -0.048143   -1.811636
     33          6           0      -22.780659   -0.785879   -2.973336
     34          6           0      -22.437857    0.121756   -4.013643
     35          6           0      -22.240836    1.376703   -3.354031
     36          6           0      -22.683505    1.234661   -2.063317
     37          6           0      -22.360112   -0.210335   -5.476214
     38          6           0      -21.938168    2.824878   -3.452136
     39          8           0      -21.558497    3.480002   -4.400356
     40          6           0      -22.040038    3.446469   -1.978694
     41          6           0      -22.465163    4.877181   -2.037226
     42          8           0      -23.493238    5.299786   -2.477834
     43          8           0      -21.443140    5.733448   -1.586530
     44          6           0      -21.390003    7.078526   -2.197587
     45          1           0      -24.372910    1.154603    4.185101
     46          1           0      -24.549373   -4.704420    1.633656
     47          1           0      -22.709301   -2.643174   -3.914801
     48          1           0      -22.825147    4.423420    0.556472
     49          1           0      -24.544932    3.677715    2.899700
     50          1           0      -21.687679    4.169799    2.547341
     51          1           0      -21.913209    2.691450    3.398274
     52          1           0      -22.571996    4.303379    4.049404
     53          1           0      -25.695456    3.741811    1.032499
     54          1           0      -25.086338    4.125378   -0.598349
     55          1           0      -26.110247    5.892037    1.372221
     56          1           0      -25.411683    6.324481   -0.164577
     57          1           0      -25.870731    0.027331    5.645021
     58          1           0      -25.000948   -1.284076    6.272798
     59          1           0      -26.657235   -1.536535    5.571038
     60          1           0      -26.734106   -4.163040    5.989361
     61          1           0      -25.013469   -3.540264    6.063331
     62          1           0      -25.323209   -5.299025    6.031619
     63          1           0      -24.665016   -5.430651   -0.722119
     64          1           0      -22.154373   -4.836120   -2.350909
     65          1           0      -22.053552   -5.502597    0.778333
     66          1           0      -22.139050   -6.506155   -0.651790
     67          1           0      -23.311647   -6.729302    0.685211
     68          1           0      -24.767494   -4.331557   -3.571449
     69          1           0      -24.680686   -5.832537   -2.797053
     70          1           0      -22.225122   -5.255721   -4.518937
     71          1           0      -23.749640   -4.925570   -5.356239
     72          1           0      -23.333709   -6.556416   -4.884620
     73          1           0      -21.752868   -1.114388   -5.523941
     74          1           0      -21.886508    0.555030   -6.091316
     75          1           0      -23.350707   -0.470091   -5.850866
     76          1           0      -21.031871    3.553132   -1.579570
     77          1           0      -21.590131    7.808162   -1.412793
     78          1           0      -22.093544    7.186696   -3.023808
     79          1           0      -20.368930    7.183805   -2.564142
     80         12           0       24.024943   -0.621623    0.313869
     81          6           0       21.821618    1.991216    1.049105
     82          6           0       26.384170    1.751966   -0.526877
     83          6           0       25.949103   -3.076493   -1.072596
     84          6           0       21.368898   -2.830300    0.559128
     85          7           0       24.068683    1.565054    0.371812
     86          6           0       23.149233    2.381666    0.901973
     87          6           0       23.629261    3.821245    1.137719
     88          6           0       25.048719    3.791316    0.451679
     89          6           0       25.270186    2.209539    0.129096
     90          6           0       25.246925    4.671475   -0.801209
     91          6           0       23.649779    4.254578    2.603709
     92          6           0       23.496713    5.774987    2.790804
     93          1           0       23.370478    6.675057    1.553533
     94          7           0       25.939734   -0.699719   -0.561107
     95          6           0       26.804803    0.399824   -0.766125
     96          6           0       28.045404   -0.096005   -1.327452
     97          6           0       27.914853   -1.515980   -1.559717
     98          6           0       26.588781   -1.835690   -1.033445
     99          6           0       29.234014    0.809110   -1.500208
    100          6           0       28.980498   -2.582265   -2.079127
    101          8           0       28.785720   -3.773444   -2.094812
    102          6           0       30.292203   -2.025374   -2.588400
    103          7           0       23.679192   -2.616653   -0.268005
    104          6           0       24.625654   -3.453587   -0.782632
    105          6           0       24.084024   -4.917332   -0.979567
    106          6           0       22.679061   -4.795654   -0.391823
    107          6           0       22.575377   -3.328336   -0.020552
    108          6           0       24.165258   -5.647629   -2.380379
    109          6           0       22.501102   -5.725001    0.831679
    110          6           0       23.011466   -5.250218    2.210270
    111          7           0       22.004620   -0.556419    0.863302
    112          6           0       21.040788   -1.529546    0.920062
    113          6           0       19.792086   -0.995457    1.349969
    114          6           0       20.039102    0.449077    1.417123
    115          6           0       21.329857    0.623960    1.100498
    116          6           0       18.506269   -1.635117    1.636945
    117          6           0       19.427079    1.759712    1.586364
    118          8           0       18.285113    2.062168    1.948647
    119          6           0       20.534299    2.832652    1.368489
    120          6           0       20.175659    3.763894    0.303692
    121          8           0       20.250768    3.546918   -0.901099
    122          8           0       19.524948    4.841837    0.849521
    123          6           0       18.700548    5.711639   -0.011806
    124          1           0       27.056254    2.571226   -0.791428
    125          1           0       26.616151   -3.898228   -1.341284
    126          1           0       20.554165   -3.536689    0.731184
    127          1           0       23.066540    4.535162    0.536674
    128          1           0       25.869126    3.964455    1.147222
    129          1           0       26.137481    5.227059   -0.507915
    130          1           0       24.397720    5.339964   -0.940874
    131          1           0       25.372517    4.050749   -1.688437
    132          1           0       24.550151    3.919526    3.117239
    133          1           0       22.831789    3.780383    3.146711
    134          1           0       24.406473    5.998158    3.348532
    135          1           0       22.701780    6.020178    3.496572
    136          1           0       28.859648    1.816799   -1.319526
    137          1           0       29.623619    0.694503   -2.511953
    138          1           0       30.051609    0.575540   -0.816589
    139          1           0       30.282523   -1.548708   -3.569143
    140          1           0       31.028596   -2.828118   -2.550762
    141          1           0       30.536664   -1.294955   -1.817229
    142          1           0       24.760819   -5.470843   -0.329063
    143          1           0       21.989314   -5.068655   -1.189643
    144          1           0       23.237713   -6.119660   -2.702181
    145          1           0       24.884834   -6.461199   -2.294317
    146          1           0       24.554277   -4.930448   -3.103776
    147          1           0       22.983675   -6.660784    0.552271
    148          1           0       21.428986   -5.919095    0.874828
    149          1           0       23.472316   -6.135401    2.647901
    150          1           0       22.212171   -4.944220    2.884855
    151          1           0       23.672446   -4.385079    2.171553
    152          1           0       18.101661   -1.171748    2.536091
    153          1           0       18.537316   -2.716246    1.772550
    154          1           0       17.770724   -1.341605    0.887777
    155          1           0       20.622689    3.318856    2.339916
    156          1           0       18.748097    5.416969   -1.060719
    157          1           0       19.100047    6.723412    0.061817
    158          1           0       17.716311    5.562880    0.430924
 ---------------------------------------------------------------------

 SCF Done:  E(RwB97XD) =  -4070.61209606     A.U. after   19 cycles

 Excitation energies and oscillator strengths:

 Excited State   1:      Singlet-A      1.6570 eV  748.25 nm  f=0.4115  <S**2>=0.000
     310 -> 316       -0.18733
     312 -> 313        0.68179
     310 <- 316       -0.11634
 This state for optimization and/or second-order correction.
 Total Energy, E(TD-HF/TD-DFT) =  -4070.55120311
 Copying the excited state density for this state as the 1-particle RhoCI density.

 Excited State   2:      Singlet-A      1.7664 eV  701.90 nm  f=0.3719  <S**2>=0.000
     309 -> 315       -0.19123
     311 -> 314        0.67833
     309 <- 315       -0.11017

 Excited State   3:      Singlet-A      2.0777 eV  596.74 nm  f=0.1509  <S**2>=0.000
     310 -> 313        0.65642
     312 -> 316        0.23987

 Excited State   4:      Singlet-A      2.1196 eV  584.94 nm  f=0.0968  <S**2>=0.000
     309 -> 314        0.63987
     311 -> 315        0.27490

 Excited State   5:      Singlet-A      3.1037 eV  399.48 nm  f=0.0053  <S**2>=0.000
     306 -> 313       -0.12848
     307 -> 313        0.67538

 The electronic state is 1-A.
 Alpha  occ. eigenvalues --  -46.94851 -46.94584 -19.29106 -19.28446 -19.25404
 Alpha  occ. eigenvalues --  -19.24953 -19.24427 -19.23916 -19.23758 -19.23302
 Alpha  occ. eigenvalues --  -14.46872 -14.46503 -14.46459 -14.46299 -14.44418
 Alpha  occ. eigenvalues --  -14.44055 -14.42768 -14.42541 -10.42500 -10.42341
 Alpha  occ. eigenvalues --  -10.40840 -10.40156 -10.39101 -10.38739 -10.36319
 Alpha  occ. eigenvalues --  -10.35707 -10.34935 -10.34914 -10.34904 -10.34881
 Alpha  occ. eigenvalues --  -10.34879 -10.34707 -10.34652 -10.34630 -10.34561
 Alpha  occ. eigenvalues --  -10.34375 -10.34040 -10.33892 -10.33643 -10.33413
 Alpha  occ. eigenvalues --  -10.32838 -10.32820 -10.32708 -10.32288 -10.32261
 Alpha  occ. eigenvalues --  -10.32237 -10.32155 -10.32142 -10.31965 -10.31962
 Alpha  occ. eigenvalues --  -10.31930 -10.31802 -10.31788 -10.31717 -10.31702
 Alpha  occ. eigenvalues --  -10.31689 -10.31685 -10.31637 -10.31633 -10.31593
 Alpha  occ. eigenvalues --  -10.31452 -10.31371 -10.31150 -10.30926 -10.30917
 Alpha  occ. eigenvalues --  -10.30872 -10.30802 -10.30726 -10.30636 -10.30272
 Alpha  occ. eigenvalues --  -10.30184 -10.30119 -10.30105 -10.29965 -10.29935
 Alpha  occ. eigenvalues --  -10.29898 -10.29828 -10.29697 -10.29689 -10.29673
 Alpha  occ. eigenvalues --  -10.29655 -10.29518 -10.29386 -10.29290 -10.28791
 Alpha  occ. eigenvalues --  -10.28350  -3.20762  -3.20546  -1.94363  -1.94136
 Alpha  occ. eigenvalues --   -1.93883  -1.93723  -1.93667  -1.93524  -1.17286
 Alpha  occ. eigenvalues --   -1.17245  -1.13796  -1.12760  -1.11679  -1.11095
 Alpha  occ. eigenvalues --   -1.09147  -1.08824  -1.07085  -1.06491  -1.06438
 Alpha  occ. eigenvalues --   -1.05320  -1.04469  -1.03636  -1.03057  -1.03052
 Alpha  occ. eigenvalues --   -0.94046  -0.93710  -0.91137  -0.91026  -0.90830
 Alpha  occ. eigenvalues --   -0.90638  -0.90067  -0.89649  -0.89519  -0.89159
 Alpha  occ. eigenvalues --   -0.89011  -0.88385  -0.88021  -0.87294  -0.86116
 Alpha  occ. eigenvalues --   -0.85888  -0.85558  -0.85319  -0.84823  -0.84215
 Alpha  occ. eigenvalues --   -0.83866  -0.83579  -0.82943  -0.82552  -0.82125
 Alpha  occ. eigenvalues --   -0.81780  -0.80599  -0.80086  -0.79062  -0.79037
 Alpha  occ. eigenvalues --   -0.78742  -0.78262  -0.77816  -0.77270  -0.77067
 Alpha  occ. eigenvalues --   -0.76955  -0.74435  -0.74413  -0.73664  -0.73062
 Alpha  occ. eigenvalues --   -0.71726  -0.71723  -0.70584  -0.70406  -0.69644
 Alpha  occ. eigenvalues --   -0.69210  -0.68616  -0.68059  -0.67927  -0.67087
 Alpha  occ. eigenvalues --   -0.66704  -0.66618  -0.66528  -0.66435  -0.65723
 Alpha  occ. eigenvalues --   -0.65419  -0.63385  -0.62994  -0.62246  -0.61770
 Alpha  occ. eigenvalues --   -0.61068  -0.61065  -0.61026  -0.60552  -0.60270
 Alpha  occ. eigenvalues --   -0.59994  -0.59650  -0.59513  -0.59392  -0.58750
 Alpha  occ. eigenvalues --   -0.58444  -0.57810  -0.57379  -0.57372  -0.57107
 Alpha  occ. eigenvalues --   -0.56993  -0.56602  -0.56128  -0.55655  -0.55611
 Alpha  occ. eigenvalues --   -0.55265  -0.55113  -0.55035  -0.54780  -0.54733
 Alpha  occ. eigenvalues --   -0.54607  -0.54240  -0.54115  -0.54047  -0.53902
 Alpha  occ. eigenvalues --   -0.53885  -0.53648  -0.53538  -0.53253  -0.53141
 Alpha  occ. eigenvalues --   -0.52839  -0.52726  -0.52572  -0.52426  -0.52167
 Alpha  occ. eigenvalues --   -0.52046  -0.51916  -0.51613  -0.51509  -0.51302
 Alpha  occ. eigenvalues --   -0.51157  -0.50961  -0.50902  -0.50813  -0.50617
 Alpha  occ. eigenvalues --   -0.50438  -0.50222  -0.50137  -0.50022  -0.49919
 Alpha  occ. eigenvalues --   -0.49730  -0.49541  -0.49452  -0.49204  -0.49041
 Alpha  occ. eigenvalues --   -0.48909  -0.48666  -0.48530  -0.48416  -0.48181
 Alpha  occ. eigenvalues --   -0.48060  -0.48029  -0.47775  -0.47552  -0.47473
 Alpha  occ. eigenvalues --   -0.47321  -0.47184  -0.46930  -0.46929  -0.46737
 Alpha  occ. eigenvalues --   -0.46556  -0.46230  -0.46138  -0.45873  -0.45864
 Alpha  occ. eigenvalues --   -0.45621  -0.45584  -0.45314  -0.45300  -0.45142
 Alpha  occ. eigenvalues --   -0.44991  -0.44974  -0.44732  -0.44689  -0.44650
 Alpha  occ. eigenvalues --   -0.44510  -0.44262  -0.44188  -0.43914  -0.43913
 Alpha  occ. eigenvalues --   -0.43590  -0.43436  -0.43399  -0.43241  -0.43038
 Alpha  occ. eigenvalues --   -0.43003  -0.42878  -0.42787  -0.42507  -0.42146
 Alpha  occ. eigenvalues --   -0.41999  -0.41868  -0.41810  -0.40947  -0.40668
 Alpha  occ. eigenvalues --   -0.40424  -0.40296  -0.39739  -0.39691  -0.39590
 Alpha  occ. eigenvalues --   -0.39575  -0.38766  -0.38354  -0.38040  -0.37679
 Alpha  occ. eigenvalues --   -0.37651  -0.37324  -0.36303  -0.36193  -0.35760
 Alpha  occ. eigenvalues --   -0.35732  -0.35497  -0.35187  -0.33899  -0.33555
 Alpha  occ. eigenvalues --   -0.33387  -0.33093  -0.32787  -0.32487  -0.32005
 Alpha  occ. eigenvalues --   -0.31783  -0.30829  -0.30366  -0.25642  -0.25413
 Alpha  occ. eigenvalues --   -0.23131  -0.23100
 Alpha virt. eigenvalues --   -0.07265  -0.06793  -0.00072   0.00627   0.01910
 Alpha virt. eigenvalues --    0.02657   0.04603   0.04907   0.05690   0.06059
 Alpha virt. eigenvalues --    0.07012   0.07456   0.07785   0.08133   0.08479

 Mulliken charges:
               1
     1  Mg   0.949574
     2  C    0.045805
     3  C   -0.095061
     4  C   -0.065609
     5  C   -0.086017
     6  N   -0.314156
     7  C    0.001024
     8  C   -0.120505
     9  C   -0.103239
    10  C    0.089407
    11  C    0.035006
    12  C   -0.006337
    13  C   -0.094868
    14  H    0.041441
    15  N   -0.554525
    16  C    0.175978
    17  C   -0.150968
    18  C   -0.082780
    19  C    0.208203
    20  C    0.034936
    21  C    0.081956
    22  O   -0.237323
    23  C   -0.013118
    24  N   -0.304587
    25  C   -0.029748
    26  C   -0.047696
    27  C   -0.103711
    28  C    0.058298
    29  C    0.030148
    30  C   -0.003873
    31  C   -0.057126
    32  N   -0.438287
    33  C    0.134126
    34  C   -0.193273
    35  C   -0.035272
    36  C    0.077411
    37  C    0.080554
    38  C    0.135378
    39  O   -0.202616
    40  C   -0.093399
    41  C    0.221083
    42  O   -0.208213
    43  O   -0.410325
    44  C    0.136722
    45  H    0.001476
    46  H    0.012932
    47  H   -0.022031
    48  H    0.031997
    49  H    0.036175
    50  H    0.038443
    51  H    0.032964
    52  H    0.048365
    53  H    0.023398
    54  H    0.054479
    55  H    0.041774
    56  H    0.065416
    57  H    0.043003
    58  H    0.065312
    59  H    0.060767
    60  H    0.079979
    61  H    0.041608
    62  H    0.065162
    63  H    0.042224
    64  H    0.040205
    65  H    0.046688
    66  H    0.033128
    67  H    0.056282
    68  H    0.030802
    69  H    0.022356
    70  H    0.035991
    71  H    0.038514
    72  H    0.045672
    73  H    0.035943
    74  H    0.058425
    75  H    0.050917
    76  H    0.080275
    77  H    0.051949
    78  H    0.069251
    79  H    0.055737
    80  Mg   0.959939
    81  C   -0.000755
    82  C   -0.090167
    83  C   -0.073906
    84  C   -0.087087
    85  N   -0.357202
    86  C   -0.011298
    87  C   -0.047870
    88  C   -0.148909
    89  C    0.067777
    90  C    0.032143
    91  C    0.017181
    92  C   -0.110782
    93  H    0.046871
    94  N   -0.477791
    95  C    0.165547
    96  C   -0.178501
    97  C   -0.089879
    98  C    0.129373
    99  C    0.057082
   100  C    0.082198
   101  O   -0.208418
   102  C   -0.022394
   103  N   -0.337975
   104  C    0.039684
   105  C   -0.081628
   106  C   -0.049246
   107  C    0.051312
   108  C    0.022590
   109  C   -0.042542
   110  C   -0.033345
   111  N   -0.449910
   112  C    0.142153
   113  C   -0.165059
   114  C   -0.034649
   115  C    0.132252
   116  C    0.085486
   117  C    0.094095
   118  O   -0.220678
   119  C   -0.059058
   120  C    0.274369
   121  O   -0.254760
   122  O   -0.379435
   123  C    0.128380
   124  H    0.001331
   125  H    0.020111
   126  H   -0.015915
   127  H    0.038858
   128  H    0.031185
   129  H    0.040097
   130  H    0.043129
   131  H    0.055454
   132  H    0.031045
   133  H    0.031041
   134  H    0.040484
   135  H    0.054364
   136  H    0.029134
   137  H    0.047925
   138  H    0.067785
   139  H    0.082033
   140  H    0.053781
   141  H    0.031748
   142  H    0.039745
   143  H    0.036121
   144  H    0.039825
   145  H    0.035652
   146  H    0.050983
   147  H    0.030129
   148  H    0.031107
   149  H    0.040342
   150  H    0.037209
   151  H    0.046604
   152  H    0.052927
   153  H    0.034586
   154  H    0.057872
   155  H    0.073268
   156  H    0.066904
   157  H    0.054427
   158  H    0.073524
 Sum of Mulliken charges =  -0.00000

 Dipole moment (field-independent basis, Debye):
    X=              2.2308    Y=             -2.2028    Z=              6.5419  Tot=              7.2543
 Quadrupole moment (field-independent basis, Debye-Ang):
   XX=           -280.6226   YY=           -480.4567   ZZ=           -496.8130
   XY=             95.2208   XZ=            -93.5203   YZ=             23.7908

 Normal termination of Gaussian 16 at Sun Sep 19 00:30:26 2021.
