 Gaussian 16, Revision A.03,
 Gaussian 16:  ES64L-G16RevA.03 25-Dec-2016

 --------------------------------
 #p wB97XD/Def2SVP td=(nstates=5)
 --------------------------------

 --------------------------------
 TDDFT excited states in gaussian
 --------------------------------
 Symbolic Z-matrix:
 Charge =  0 Multiplicity = 1

                         Standard orientation:
 ---------------------------------------------------------------------
 Center     Atomic      Atomic             Coordinates (Angstroms)
 Number     Number       Type             X           Y           Z
 ---------------------------------------------------------------------
      1         12           0      -33.275865   -0.300421   -0.572137
      2          6           0      -30.817642    1.696328    0.779314
      3          6           0      -31.462876   -3.041443    0.357467
      4          6           0      -36.090391   -2.025110   -0.701003
      5          6           0      -35.025238    2.624153   -1.417150
      6          7           0      -31.570735   -0.561227    0.873398
      7          6           0      -30.607624    0.373112    1.081820
      8          6           0      -29.370294   -0.198561    1.708416
      9          6           0      -29.446666   -1.661586    1.163646
     10          6           0      -30.891639   -1.754476    0.696188
     11          6           0      -28.374733   -1.964533    0.077739
     12          6           0      -29.430572   -0.164391    3.317496
     13          6           0      -28.034024    0.096614    4.050998
     14          1           0      -27.741573   -1.094193    4.929913
     15          7           0      -33.658376   -2.305431   -0.408225
     16          6           0      -32.855597   -3.287878    0.056426
     17          6           0      -33.566791   -4.559473    0.094354
     18          6           0      -34.907072   -4.281349   -0.244054
     19          6           0      -34.925721   -2.807890   -0.464160
     20          6           0      -32.853501   -5.864162    0.524793
     21          6           0      -36.007471   -5.298309   -0.122382
     22          8           0      -35.739214   -6.426615    0.198874
     23          6           0      -37.503990   -4.999083   -0.333306
     24          7           0      -35.303578    0.170757   -1.129936
     25          6           0      -36.226154   -0.683867   -1.082130
     26          6           0      -37.575424   -0.111207   -1.314155
     27          6           0      -37.257528    1.414717   -1.568021
     28          6           0      -35.804547    1.432234   -1.367312
     29          6           0      -38.342857   -0.874645   -2.445980
     30          6           0      -38.031314    2.368170   -0.544373
     31          6           0      -38.180017    3.881526   -0.935474
     32          7           0      -33.002426    1.742361   -0.464192
     33          6           0      -33.756708    2.796805   -0.945976
     34          6           0      -33.041329    4.034967   -0.807590
     35          6           0      -31.818931    3.639379   -0.159836
     36          6           0      -31.902961    2.287141    0.110344
     37          6           0      -33.475159    5.398550   -1.239773
     38          6           0      -30.569803    4.128714    0.312280
     39          8           0      -30.026156    5.239636    0.360773
     40          6           0      -29.952960    2.933662    1.111890
     41          6           0      -28.512414    2.862793    0.728500
     42          8           0      -27.586797    3.399957    1.352917
     43          8           0      -28.378796    2.167207   -0.441379
     44          6           0      -26.941171    2.149128   -0.832238
     45          1           0      -30.912511   -3.976480    0.484014
     46          1           0      -37.011995   -2.609444   -0.677763
     47          1           0      -35.621461    3.529369   -1.555257
     48          1           0      -28.558875    0.351434    1.233431
     49          1           0      -29.222545   -2.354279    1.975015
     50          1           0      -27.693709   -2.730035    0.448523
     51          1           0      -27.775724   -1.061004   -0.040564
     52          1           0      -28.902754   -2.214231   -0.842025
     53          1           0      -29.925973   -1.006999    3.799640
     54          1           0      -30.082536    0.641353    3.653331
     55          1           0      -28.233618    0.947048    4.703110
     56          1           0      -27.162443    0.392579    3.467061
     57          1           0      -33.291035   -6.363231    1.389348
     58          1           0      -31.782962   -5.749230    0.698207
     59          1           0      -32.882334   -6.533965   -0.334000
     60          1           0      -37.743725   -4.700660   -1.353357
     61          1           0      -37.906670   -4.263954    0.363951
     62          1           0      -38.011725   -5.903091    0.004339
     63          1           0      -38.065181   -0.231373   -0.347913
     64          1           0      -37.382431    1.810172   -2.575761
     65          1           0      -39.261704   -1.255784   -2.000925
     66          1           0      -37.746193   -1.683121   -2.868807
     67          1           0      -38.776840   -0.225777   -3.206564
     68          1           0      -37.542951    2.343972    0.430031
     69          1           0      -39.017863    1.921316   -0.430345
     70          1           0      -39.162026    4.338826   -1.053315
     71          1           0      -37.729552    4.069977   -1.909024
     72          1           0      -37.658974    4.509515   -0.212790
     73          1           0      -34.372729    5.454056   -1.855406
     74          1           0      -32.575059    5.705663   -1.770791
     75          1           0      -33.504680    5.898434   -0.271521
     76          1           0      -30.054361    3.018091    2.194402
     77          1           0      -26.637285    3.150659   -1.135015
     78          1           0      -26.762467    1.599092   -1.756183
     79          1           0      -26.378259    1.735299    0.004669
     80         12           0       33.033369    0.569667   -0.504684
     81          6           0       31.503639   -2.587369    0.229793
     82          6           0       30.412034    2.075391    1.333921
     83          6           0       34.797420    3.424202   -0.497936
     84          6           0       35.800689   -1.141373   -1.656926
     85          7           0       31.140848   -0.156396    0.657612
     86          6           0       30.823264   -1.478530    0.796457
     87          6           0       29.736080   -1.634113    1.847967
     88          6           0       29.263757   -0.122015    1.924488
     89          6           0       30.307232    0.710701    1.282802
     90          6           0       27.866738    0.224962    1.308702
     91          6           0       30.317180   -2.324400    3.123493
     92          6           0       29.506458   -3.487521    3.829650
     93          1           0       29.024154   -3.309195    5.280496
     94          7           0       32.626179    2.464601    0.100086
     95          6           0       31.494494    2.916237    0.828984
     96          6           0       31.566325    4.350035    1.041630
     97          6           0       32.863799    4.728129    0.504816
     98          6           0       33.465625    3.507507    0.001802
     99          6           0       30.537706    5.073223    1.806552
    100          6           0       33.373615    6.179831    0.503132
    101          8           0       32.644470    7.029789    1.092867
    102          6           0       34.682273    6.669498   -0.152558
    103          7           0       35.143654    1.109544   -0.754843
    104          6           0       35.569314    2.352362   -0.875432
    105          6           0       37.020663    2.324570   -1.231314
    106          6           0       37.279949    0.852979   -1.651211
    107          6           0       36.003677    0.178678   -1.251425
    108          6           0       37.596873    3.354483   -2.294585
    109          6           0       38.579131    0.163470   -0.983652
    110          6           0       39.747988   -0.258984   -1.907099
    111          7           0       33.504370   -1.379865   -0.873209
    112          6           0       34.641177   -1.928023   -1.334491
    113          6           0       34.541874   -3.338949   -1.419990
    114          6           0       33.298059   -3.627476   -0.853655
    115          6           0       32.701660   -2.394779   -0.486195
    116          6           0       35.476417   -4.345624   -1.959884
    117          6           0       32.477551   -4.745483   -0.503095
    118          8           0       32.726415   -5.925469   -0.609148
    119          6           0       31.205985   -4.062839    0.311779
    120          6           0       29.945747   -4.392083   -0.364722
    121          8           0       29.756829   -4.363626   -1.587431
    122          8           0       29.035854   -4.700333    0.624013
    123          6           0       27.692986   -5.068910    0.178864
    124          1           0       29.630071    2.599188    1.885833
    125          1           0       35.453055    4.294185   -0.427080
    126          1           0       36.546295   -1.707941   -2.218973
    127          1           0       28.919775   -2.171327    1.364428
    128          1           0       29.372565    0.011166    3.001476
    129          1           0       28.026714    1.001489    0.559327
    130          1           0       27.151699    0.631107    2.023808
    131          1           0       27.380169   -0.581659    0.759477
    132          1           0       30.368410   -1.457851    3.782337
    133          1           0       31.338964   -2.694337    3.041648
    134          1           0       30.155328   -4.359810    3.753194
    135          1           0       28.693690   -3.781990    3.166421
    136          1           0       30.432810    4.543257    2.753539
    137          1           0       29.572763    4.984675    1.307839
    138          1           0       30.650229    6.151682    1.920802
    139          1           0       35.515249    6.307432    0.450297
    140          1           0       34.488990    7.717997   -0.376862
    141          1           0       34.675424    6.151597   -1.112229
    142          1           0       37.566776    2.573542   -0.322280
    143          1           0       37.233222    0.922408   -2.738067
    144          1           0       38.637411    3.491114   -1.999047
    145          1           0       37.006173    4.269036   -2.244340
    146          1           0       37.541055    2.859331   -3.264179
    147          1           0       38.167345   -0.696829   -0.456255
    148          1           0       38.912105    0.813128   -0.174329
    149          1           0       40.079334   -1.280976   -1.728030
    150          1           0       40.577625    0.431618   -1.753559
    151          1           0       39.530989   -0.143411   -2.969174
    152          1           0       34.974956   -5.289227   -2.172598
    153          1           0       36.140031   -4.401450   -1.096786
    154          1           0       36.121497   -3.849760   -2.685096
    155          1           0       31.244791   -4.298398    1.374711
    156          1           0       27.719610   -5.852174   -0.579031
    157          1           0       27.175253   -4.186513   -0.200081
    158          1           0       27.140199   -5.463751    1.031323
 ---------------------------------------------------------------------

 SCF Done:  E(RwB97XD) =  -4070.58087552     A.U. after   19 cycles

 Excitation energies and oscillator strengths:

 Excited State   1:      Singlet-A      1.6376 eV  757.10 nm  f=0.3845  <S**2>=0.000
     310 -> 316       -0.19098
     311 -> 313        0.68324
     310 <- 316       -0.12122
 This state for optimization and/or second-order correction.
 Total Energy, E(TD-HF/TD-DFT) =  -4070.52069439
 Copying the excited state density for this state as the 1-particle RhoCI density.

 Excited State   2:      Singlet-A      1.6577 eV  747.94 nm  f=0.3637  <S**2>=0.000
     309 -> 315        0.16765
     312 -> 314        0.68563
     309 <- 315        0.10881

 Excited State   3:      Singlet-A      2.1685 eV  571.76 nm  f=0.1047  <S**2>=0.000
     309 -> 314        0.63812
     312 -> 315       -0.28225

 Excited State   4:      Singlet-A      2.1989 eV  563.84 nm  f=0.1288  <S**2>=0.000
     310 -> 313        0.63864
     311 -> 316        0.29228

 Excited State   5:      Singlet-A      3.3068 eV  374.93 nm  f=0.0054  <S**2>=0.000
     307 -> 313        0.66959
     307 -> 318        0.10680

 The electronic state is 1-A.
 Alpha  occ. eigenvalues --  -46.95575 -46.95242 -19.31501 -19.30739 -19.25521
 Alpha  occ. eigenvalues --  -19.24808 -19.24606 -19.23982 -19.23176 -19.22886
 Alpha  occ. eigenvalues --  -14.46683 -14.46544 -14.46499 -14.45965 -14.44969
 Alpha  occ. eigenvalues --  -14.44549 -14.44418 -14.43141 -10.43948 -10.42496
 Alpha  occ. eigenvalues --  -10.39795 -10.39493 -10.39242 -10.38021 -10.36453
 Alpha  occ. eigenvalues --  -10.36192 -10.35881 -10.35444 -10.35209 -10.35162
 Alpha  occ. eigenvalues --  -10.34782 -10.34694 -10.34669 -10.34392 -10.34387
 Alpha  occ. eigenvalues --  -10.34320 -10.34170 -10.33930 -10.33769 -10.33652
 Alpha  occ. eigenvalues --  -10.33093 -10.32955 -10.32783 -10.32734 -10.32714
 Alpha  occ. eigenvalues --  -10.32443 -10.32268 -10.32254 -10.32249 -10.32176
 Alpha  occ. eigenvalues --  -10.32115 -10.31857 -10.31853 -10.31844 -10.31745
 Alpha  occ. eigenvalues --  -10.31689 -10.31664 -10.31626 -10.31617 -10.31553
 Alpha  occ. eigenvalues --  -10.31541 -10.31512 -10.31433 -10.31390 -10.31303
 Alpha  occ. eigenvalues --  -10.31250 -10.31230 -10.31189 -10.31101 -10.30892
 Alpha  occ. eigenvalues --  -10.30671 -10.30663 -10.30659 -10.30600 -10.30595
 Alpha  occ. eigenvalues --  -10.30553 -10.30474 -10.30272 -10.30121 -10.30108
 Alpha  occ. eigenvalues --  -10.30093 -10.30016 -10.29892 -10.28974 -10.28612
 Alpha  occ. eigenvalues --  -10.28381  -3.21586  -3.21240  -1.95162  -1.94818
 Alpha  occ. eigenvalues --   -1.94724  -1.94547  -1.94351  -1.94224  -1.18725
 Alpha  occ. eigenvalues --   -1.18084  -1.14247  -1.13082  -1.10369  -1.10265
 Alpha  occ. eigenvalues --   -1.09449  -1.09058  -1.08602  -1.07464  -1.06751
 Alpha  occ. eigenvalues --   -1.06690  -1.05978  -1.05748  -1.04814  -1.04389
 Alpha  occ. eigenvalues --   -0.95157  -0.94424  -0.91610  -0.91239  -0.90615
 Alpha  occ. eigenvalues --   -0.90201  -0.90136  -0.89999  -0.89884  -0.89412
 Alpha  occ. eigenvalues --   -0.89245  -0.88939  -0.88526  -0.87966  -0.86583
 Alpha  occ. eigenvalues --   -0.86215  -0.85757  -0.85678  -0.84603  -0.84180
 Alpha  occ. eigenvalues --   -0.83914  -0.83748  -0.83327  -0.82831  -0.82440
 Alpha  occ. eigenvalues --   -0.82284  -0.80351  -0.80184  -0.79823  -0.79586
 Alpha  occ. eigenvalues --   -0.78818  -0.78720  -0.78218  -0.77873  -0.77448
 Alpha  occ. eigenvalues --   -0.77281  -0.75195  -0.74646  -0.74220  -0.74191
 Alpha  occ. eigenvalues --   -0.72386  -0.71725  -0.71377  -0.71331  -0.70428
 Alpha  occ. eigenvalues --   -0.70139  -0.69681  -0.68750  -0.68740  -0.68065
 Alpha  occ. eigenvalues --   -0.67617  -0.67307  -0.67111  -0.66865  -0.66774
 Alpha  occ. eigenvalues --   -0.66464  -0.64952  -0.64386  -0.62579  -0.62139
 Alpha  occ. eigenvalues --   -0.61924  -0.61571  -0.61502  -0.61189  -0.60896
 Alpha  occ. eigenvalues --   -0.60773  -0.60396  -0.59995  -0.59590  -0.58972
 Alpha  occ. eigenvalues --   -0.58587  -0.58176  -0.58110  -0.57897  -0.57649
 Alpha  occ. eigenvalues --   -0.57596  -0.56933  -0.56847  -0.56466  -0.56073
 Alpha  occ. eigenvalues --   -0.55659  -0.55550  -0.55286  -0.54933  -0.54888
 Alpha  occ. eigenvalues --   -0.54664  -0.54570  -0.54336  -0.54054  -0.53942
 Alpha  occ. eigenvalues --   -0.53639  -0.53614  -0.53346  -0.53176  -0.53120
 Alpha  occ. eigenvalues --   -0.53113  -0.52534  -0.52522  -0.52417  -0.52244
 Alpha  occ. eigenvalues --   -0.52172  -0.51986  -0.51894  -0.51850  -0.51662
 Alpha  occ. eigenvalues --   -0.51522  -0.51345  -0.51063  -0.50842  -0.50723
 Alpha  occ. eigenvalues --   -0.50605  -0.50399  -0.50242  -0.49851  -0.49707
 Alpha  occ. eigenvalues --   -0.49651  -0.49597  -0.49572  -0.49538  -0.49393
 Alpha  occ. eigenvalues --   -0.49359  -0.48978  -0.48888  -0.48743  -0.48570
 Alpha  occ. eigenvalues --   -0.48382  -0.48208  -0.48165  -0.48084  -0.47886
 Alpha  occ. eigenvalues --   -0.47813  -0.47682  -0.47538  -0.47374  -0.47331
 Alpha  occ. eigenvalues --   -0.47085  -0.46959  -0.46566  -0.46470  -0.46352
 Alpha  occ. eigenvalues --   -0.46251  -0.46135  -0.45940  -0.45678  -0.45568
 Alpha  occ. eigenvalues --   -0.45529  -0.45289  -0.45205  -0.45111  -0.45014
 Alpha  occ. eigenvalues --   -0.44904  -0.44879  -0.44766  -0.44522  -0.44240
 Alpha  occ. eigenvalues --   -0.44082  -0.43834  -0.43816  -0.43487  -0.43345
 Alpha  occ. eigenvalues --   -0.43139  -0.43112  -0.43075  -0.42778  -0.42665
 Alpha  occ. eigenvalues --   -0.42237  -0.42136  -0.41978  -0.41510  -0.40860
 Alpha  occ. eigenvalues --   -0.40656  -0.40579  -0.40228  -0.40211  -0.39765
 Alpha  occ. eigenvalues --   -0.39616  -0.39586  -0.38890  -0.38767  -0.38544
 Alpha  occ. eigenvalues --   -0.38409  -0.37749  -0.37143  -0.36975  -0.36098
 Alpha  occ. eigenvalues --   -0.35806  -0.35332  -0.35288  -0.33975  -0.33589
 Alpha  occ. eigenvalues --   -0.33551  -0.33145  -0.32793  -0.32320  -0.32234
 Alpha  occ. eigenvalues --   -0.32010  -0.31547  -0.31030  -0.26145  -0.26081
 Alpha  occ. eigenvalues --   -0.23110  -0.22985
 Alpha virt. eigenvalues --   -0.07288  -0.07115   0.00136   0.00182   0.02294
 Alpha virt. eigenvalues --    0.02390   0.04150   0.04504   0.05138   0.05482
 Alpha virt. eigenvalues --    0.06406   0.06968   0.07579   0.08126   0.08518

 Mulliken charges:
               1
     1  Mg   0.966830
     2  C    0.016071
     3  C   -0.089576
     4  C   -0.073343
     5  C   -0.081637
     6  N   -0.340735
     7  C   -0.050348
     8  C   -0.024419
     9  C   -0.146483
    10  C    0.111269
    11  C    0.045255
    12  C    0.022918
    13  C   -0.129945
    14  H    0.028877
    15  N   -0.460583
    16  C    0.119321
    17  C   -0.139276
    18  C   -0.060660
    19  C    0.168455
    20  C    0.086771
    21  C    0.018641
    22  O   -0.211055
    23  C   -0.019671
    24  N   -0.295113
    25  C    0.031266
    26  C   -0.087949
    27  C   -0.051388
    28  C    0.005224
    29  C    0.018787
    30  C   -0.018484
    31  C   -0.065390
    32  N   -0.451176
    33  C    0.151288
    34  C   -0.200790
    35  C   -0.007561
    36  C    0.106099
    37  C    0.098581
    38  C    0.085816
    39  O   -0.226219
    40  C   -0.061221
    41  C    0.241360
    42  O   -0.258083
    43  O   -0.370110
    44  C    0.138450
    45  H    0.002856
    46  H   -0.045507
    47  H   -0.027212
    48  H    0.026038
    49  H    0.042450
    50  H    0.041610
    51  H    0.029817
    52  H    0.040813
    53  H    0.040684
    54  H    0.032341
    55  H    0.057550
    56  H    0.062914
    57  H    0.069783
    58  H    0.019249
    59  H    0.052824
    60  H    0.067229
    61  H    0.060704
    62  H    0.051533
    63  H    0.046684
    64  H    0.041953
    65  H    0.030583
    66  H    0.057223
    67  H    0.038729
    68  H    0.041069
    69  H    0.036553
    70  H    0.040110
    71  H    0.033037
    72  H    0.044203
    73  H    0.043251
    74  H    0.065004
    75  H    0.064736
    76  H    0.078454
    77  H    0.064894
    78  H    0.047297
    79  H    0.060481
    80  Mg   0.980476
    81  C   -0.123969
    82  C   -0.080750
    83  C   -0.101715
    84  C   -0.096334
    85  N   -0.314519
    86  C   -0.024899
    87  C   -0.047626
    88  C   -0.085544
    89  C    0.061101
    90  C    0.030242
    91  C   -0.009639
    92  C   -0.101119
    93  H    0.050329
    94  N   -0.481230
    95  C    0.127728
    96  C   -0.142766
    97  C   -0.097845
    98  C    0.230059
    99  C    0.077110
   100  C    0.025867
   101  O   -0.277711
   102  C    0.020068
   103  N   -0.347067
   104  C    0.019092
   105  C   -0.090634
   106  C   -0.108977
   107  C    0.094190
   108  C    0.033654
   109  C    0.010051
   110  C   -0.047591
   111  N   -0.436649
   112  C    0.106339
   113  C   -0.206245
   114  C   -0.066868
   115  C    0.192777
   116  C    0.118139
   117  C    0.144246
   118  O   -0.188427
   119  C   -0.050610
   120  C    0.292330
   121  O   -0.254427
   122  O   -0.371217
   123  C    0.136627
   124  H   -0.000101
   125  H   -0.036499
   126  H    0.002965
   127  H    0.018600
   128  H    0.029567
   129  H    0.037171
   130  H    0.045343
   131  H    0.037054
   132  H    0.031095
   133  H    0.053740
   134  H    0.048081
   135  H    0.042425
   136  H    0.047749
   137  H    0.033320
   138  H    0.069392
   139  H    0.083964
   140  H    0.065096
   141  H    0.043362
   142  H    0.038405
   143  H    0.032679
   144  H    0.040664
   145  H    0.041125
   146  H    0.031831
   147  H    0.033607
   148  H    0.025554
   149  H    0.046671
   150  H    0.035589
   151  H    0.033276
   152  H    0.080954
   153  H    0.046762
   154  H    0.029902
   155  H    0.059544
   156  H    0.065646
   157  H    0.052755
   158  H    0.056663
 Sum of Mulliken charges =  -0.00000

 Dipole moment (field-independent basis, Debye):
    X=             -3.0950    Y=             -2.6967    Z=             -2.7544  Tot=              4.9435
 Quadrupole moment (field-independent basis, Debye-Ang):
   XX=            -67.8939   YY=           -601.2864   ZZ=           -508.6210
   XY=             96.1654   XZ=             81.8264   YZ=            -26.7532

 Normal termination of Gaussian 16 at Mon Sep 20 06:02:12 2021.
