 Gaussian 16, Revision A.03,
 Gaussian 16:  ES64L-G16RevA.03 25-Dec-2016

 --------------------------------
 #p wB97XD/Def2SVP td=(nstates=5)
 --------------------------------

 --------------------------------
 TDDFT excited states in gaussian
 --------------------------------
 Symbolic Z-matrix:
 Charge =  0 Multiplicity = 1

                         Standard orientation:
 ---------------------------------------------------------------------
 Center     Atomic      Atomic             Coordinates (Angstroms)
 Number     Number       Type             X           Y           Z
 ---------------------------------------------------------------------
      1         12           0      -29.631811    0.242336    0.538859
      2          6           0      -27.061161   -1.467252   -0.995751
      3          6           0      -29.746795    2.288067   -2.398769
      4          6           0      -31.835402    2.157993    1.997492
      5          6           0      -29.184075   -1.590775    3.437901
      6          7           0      -28.332318    0.489588   -1.414256
      7          6           0      -27.530764   -0.464360   -1.857420
      8          6           0      -27.319633   -0.345742   -3.393307
      9          6           0      -27.734259    1.152500   -3.603790
     10          6           0      -28.680095    1.383405   -2.414381
     11          6           0      -26.500617    2.123569   -3.584090
     12          6           0      -28.283253   -1.366839   -4.037982
     13          6           0      -28.166647   -1.554710   -5.556711
     14          1           0      -27.333593   -0.594585   -6.381929
     15          7           0      -30.751877    1.889551   -0.056169
     16          6           0      -30.663189    2.550754   -1.329310
     17          6           0      -31.764928    3.502872   -1.362371
     18          6           0      -32.450285    3.388553   -0.112584
     19          6           0      -31.666995    2.468440    0.710749
     20          6           0      -32.125250    4.417295   -2.592078
     21          6           0      -33.791387    4.083709    0.294543
     22          8           0      -34.163495    3.969940    1.430243
     23          6           0      -34.558684    4.895811   -0.697676
     24          7           0      -30.474176    0.217155    2.443228
     25          6           0      -31.393960    1.124959    2.840902
     26          6           0      -31.801608    0.969177    4.305500
     27          6           0      -31.048259   -0.319161    4.710089
     28          6           0      -30.160965   -0.589085    3.427560
     29          6           0      -31.473263    2.192774    5.237676
     30          6           0      -31.872302   -1.471674    5.224894
     31          6           0      -33.153735   -1.935412    4.491105
     32          7           0      -28.404407   -1.221781    1.188398
     33          6           0      -28.325418   -1.890880    2.376152
     34          6           0      -27.348597   -2.945880    2.206898
     35          6           0      -26.810740   -2.874702    0.875896
     36          6           0      -27.504799   -1.770675    0.309405
     37          6           0      -26.979115   -3.924626    3.277493
     38          6           0      -25.863217   -3.392704   -0.052854
     39          8           0      -25.012603   -4.306295    0.018804
     40          6           0      -25.840884   -2.265189   -1.222596
     41          6           0      -25.665542   -3.015615   -2.543849
     42          8           0      -26.335705   -3.899571   -2.920373
     43          8           0      -24.569000   -2.502208   -3.176011
     44          6           0      -24.402544   -2.785390   -4.586732
     45          1           0      -29.730524    2.947590   -3.268430
     46          1           0      -32.528832    2.795668    2.549773
     47          1           0      -28.980779   -2.192362    4.325435
     48          1           0      -26.272569   -0.454298   -3.675724
     49          1           0      -28.269198    1.134364   -4.553629
     50          1           0      -26.272326    2.437696   -4.601829
     51          1           0      -25.665016    1.590261   -3.130413
     52          1           0      -26.686598    3.052350   -3.044685
     53          1           0      -29.296480   -0.997859   -3.880967
     54          1           0      -28.287027   -2.318462   -3.507359
     55          1           0      -29.112169   -1.820641   -6.029860
     56          1           0      -27.693409   -2.530579   -5.667071
     57          1           0      -32.240140    5.464536   -2.310888
     58          1           0      -33.027833    3.983759   -3.022464
     59          1           0      -31.367713    4.297887   -3.367602
     60          1           0      -35.579207    4.789176   -0.329221
     61          1           0      -34.570533    4.446319   -1.689952
     62          1           0      -34.205528    5.881872   -0.999320
     63          1           0      -32.880100    0.814772    4.280684
     64          1           0      -30.272095   -0.142109    5.454584
     65          1           0      -31.213190    1.760459    6.203522
     66          1           0      -32.429185    2.715556    5.275695
     67          1           0      -30.739286    2.845703    4.765484
     68          1           0      -32.309138   -1.007604    6.108516
     69          1           0      -31.347863   -2.391682    5.485228
     70          1           0      -34.102991   -1.873000    5.021543
     71          1           0      -33.133548   -3.007621    4.296153
     72          1           0      -33.274881   -1.350248    3.579392
     73          1           0      -26.183614   -4.535430    2.851599
     74          1           0      -27.817832   -4.592799    3.477494
     75          1           0      -26.756162   -3.489123    4.251076
     76          1           0      -25.011446   -1.608858   -0.958418
     77          1           0      -23.393859   -3.162392   -4.417234
     78          1           0      -24.565678   -1.921433   -5.231340
     79          1           0      -25.017823   -3.605482   -4.957757
     80         12           0       30.025597    0.240617   -0.138297
     81          6           0       26.789277   -1.086246   -0.537185
     82          6           0       28.528227    3.379094   -0.097615
     83          6           0       32.958473    1.588682    0.681780
     84          6           0       31.108953   -2.947893    0.700239
     85          7           0       27.842041    0.983195   -0.141321
     86          6           0       26.675262    0.306055   -0.437967
     87          6           0       25.504910    1.176274   -0.845434
     88          6           0       26.072209    2.610940   -0.726540
     89          6           0       27.551103    2.357080   -0.285907
     90          6           0       25.966385    3.466758   -2.053542
     91          6           0       24.169776    1.019997    0.010801
     92          6           0       24.305720    0.654667    1.497965
     93          1           0       24.086334    1.775255    2.557082
     94          7           0       30.637549    2.170286    0.221687
     95          6           0       29.901483    3.317455    0.132590
     96          6           0       30.770828    4.486673    0.325326
     97          6           0       32.086670    3.979642    0.553781
     98          6           0       31.921138    2.494641    0.499617
     99          6           0       30.277133    5.926760    0.253332
    100          6           0       33.246866    4.986191    0.898635
    101          8           0       32.966189    6.172918    0.993247
    102          6           0       34.708081    4.448210    1.202725
    103          7           0       31.704861   -0.546592    0.692820
    104          6           0       32.883811    0.187393    0.801380
    105          6           0       34.127089   -0.780215    1.226145
    106          6           0       33.358694   -2.205022    1.351516
    107          6           0       31.981635   -1.866947    0.878284
    108          6           0       35.279833   -0.770723    0.179413
    109          6           0       33.338089   -2.839130    2.808131
    110          6           0       33.797870   -4.293535    2.993367
    111          7           0       29.191858   -1.697899   -0.059942
    112          6           0       29.718305   -2.911095    0.302910
    113          6           0       28.649220   -3.928860    0.224409
    114          6           0       27.499788   -3.226894   -0.227781
    115          6           0       27.900619   -1.865439   -0.329838
    116          6           0       28.742845   -5.389762    0.567670
    117          6           0       26.063737   -3.408596   -0.511646
    118          8           0       25.342745   -4.413317   -0.598631
    119          6           0       25.609906   -2.015209   -0.920685
    120          6           0       25.190493   -1.944946   -2.279862
    121          8           0       26.013475   -1.876340   -3.229231
    122          8           0       23.785660   -1.926715   -2.386909
    123          6           0       23.195741   -1.693275   -3.701167
    124          1           0       28.144608    4.390083   -0.247756
    125          1           0       33.965647    1.993620    0.796840
    126          1           0       31.542739   -3.925333    0.919335
    127          1           0       25.326101    0.863127   -1.873361
    128          1           0       25.600496    3.037450    0.157976
    129          1           0       25.238943    4.266049   -1.912172
    130          1           0       25.644202    2.773393   -2.830885
    131          1           0       26.921883    3.926413   -2.308390
    132          1           0       23.698652    0.173488   -0.490372
    133          1           0       23.550403    1.905961   -0.130867
    134          1           0       25.282800    0.213147    1.696917
    135          1           0       23.615912   -0.161421    1.708973
    136          1           0       30.155224    6.416868    1.219294
    137          1           0       29.434024    6.018349   -0.431530
    138          1           0       30.981558    6.548730   -0.298693
    139          1           0       34.954325    3.741975    0.409458
    140          1           0       34.678884    3.963865    2.178404
    141          1           0       35.434941    5.233091    1.411859
    142          1           0       34.561000   -0.330604    2.118774
    143          1           0       33.813934   -2.874379    0.621221
    144          1           0       35.118396   -1.615463   -0.489928
    145          1           0       36.268405   -0.754686    0.638435
    146          1           0       35.329798    0.138125   -0.420026
    147          1           0       32.327449   -2.698170    3.192667
    148          1           0       34.041507   -2.191551    3.331513
    149          1           0       33.425873   -4.725633    3.922758
    150          1           0       34.882561   -4.190419    3.013494
    151          1           0       33.400818   -4.810313    2.119392
    152          1           0       29.551878   -5.437277    1.296079
    153          1           0       29.094351   -5.823875   -0.368309
    154          1           0       27.801250   -5.865280    0.843803
    155          1           0       24.778641   -1.852432   -0.235035
    156          1           0       23.364279   -2.449355   -4.468049
    157          1           0       23.539556   -0.737827   -4.098500
    158          1           0       22.141677   -1.475246   -3.528595
 ---------------------------------------------------------------------

 SCF Done:  E(RwB97XD) =  -4070.59856440     A.U. after   19 cycles

 Excitation energies and oscillator strengths:

 Excited State   1:      Singlet-A      1.6636 eV  745.26 nm  f=0.3684  <S**2>=0.000
     309 -> 316       -0.18687
     312 -> 314        0.68279
     309 <- 316       -0.11706
 This state for optimization and/or second-order correction.
 Total Energy, E(TD-HF/TD-DFT) =  -4070.53742701
 Copying the excited state density for this state as the 1-particle RhoCI density.

 Excited State   2:      Singlet-A      1.6762 eV  739.67 nm  f=0.3783  <S**2>=0.000
     310 -> 315       -0.20178
     311 -> 313        0.67865
     310 <- 315       -0.12039

 Excited State   3:      Singlet-A      2.1629 eV  573.24 nm  f=0.0893  <S**2>=0.000
     310 -> 313        0.63319
     311 -> 315        0.30174

 Excited State   4:      Singlet-A      2.2612 eV  548.31 nm  f=0.0697  <S**2>=0.000
     309 -> 314        0.61506
     312 -> 316        0.33671

 Excited State   5:      Singlet-A      3.3462 eV  370.52 nm  f=0.0458  <S**2>=0.000
     302 -> 313        0.24698
     302 -> 317       -0.17769
     304 -> 313        0.41091
     304 -> 317       -0.24591
     304 -> 320        0.11243
     306 -> 313       -0.15651
     308 -> 313       -0.18626
     311 -> 315       -0.18106

 The electronic state is 1-A.
 Alpha  occ. eigenvalues --  -46.95283 -46.94608 -19.31024 -19.29634 -19.25202
 Alpha  occ. eigenvalues --  -19.25193 -19.24647 -19.24259 -19.24131 -19.24067
 Alpha  occ. eigenvalues --  -14.47295 -14.46658 -14.46327 -14.46287 -14.44563
 Alpha  occ. eigenvalues --  -14.43901 -14.43898 -14.43897 -10.43892 -10.42777
 Alpha  occ. eigenvalues --  -10.40510 -10.39387 -10.39198 -10.39143 -10.35974
 Alpha  occ. eigenvalues --  -10.35846 -10.35423 -10.35209 -10.35008 -10.34745
 Alpha  occ. eigenvalues --  -10.34631 -10.34620 -10.34585 -10.34583 -10.34442
 Alpha  occ. eigenvalues --  -10.34309 -10.34106 -10.33900 -10.33680 -10.33376
 Alpha  occ. eigenvalues --  -10.33366 -10.32971 -10.32958 -10.32797 -10.32745
 Alpha  occ. eigenvalues --  -10.32575 -10.32562 -10.32520 -10.32360 -10.32350
 Alpha  occ. eigenvalues --  -10.32265 -10.32155 -10.32131 -10.31887 -10.31847
 Alpha  occ. eigenvalues --  -10.31806 -10.31803 -10.31768 -10.31729 -10.31703
 Alpha  occ. eigenvalues --  -10.31621 -10.31616 -10.31543 -10.31360 -10.31254
 Alpha  occ. eigenvalues --  -10.31026 -10.30757 -10.30705 -10.30682 -10.30666
 Alpha  occ. eigenvalues --  -10.30584 -10.30520 -10.30488 -10.30443 -10.30387
 Alpha  occ. eigenvalues --  -10.30129 -10.30113 -10.30054 -10.29862 -10.29851
 Alpha  occ. eigenvalues --  -10.29706 -10.29701 -10.29421 -10.29229 -10.29072
 Alpha  occ. eigenvalues --  -10.28928  -3.21349  -3.20673  -1.94895  -1.94488
 Alpha  occ. eigenvalues --   -1.94324  -1.94265  -1.93817  -1.93633  -1.19788
 Alpha  occ. eigenvalues --   -1.17143  -1.13699  -1.12646  -1.12020  -1.11294
 Alpha  occ. eigenvalues --   -1.10291  -1.09219  -1.07222  -1.06153  -1.06086
 Alpha  occ. eigenvalues --   -1.05597  -1.05111  -1.04608  -1.04091  -1.03904
 Alpha  occ. eigenvalues --   -0.95132  -0.95041  -0.91211  -0.91059  -0.90716
 Alpha  occ. eigenvalues --   -0.90594  -0.90392  -0.89955  -0.89247  -0.88726
 Alpha  occ. eigenvalues --   -0.88398  -0.88014  -0.87595  -0.87539  -0.86460
 Alpha  occ. eigenvalues --   -0.85986  -0.85785  -0.85611  -0.84688  -0.84319
 Alpha  occ. eigenvalues --   -0.83654  -0.83574  -0.83376  -0.82954  -0.82247
 Alpha  occ. eigenvalues --   -0.82047  -0.80095  -0.79939  -0.79265  -0.79158
 Alpha  occ. eigenvalues --   -0.78735  -0.78699  -0.78446  -0.77825  -0.77439
 Alpha  occ. eigenvalues --   -0.76862  -0.74679  -0.74322  -0.73983  -0.73729
 Alpha  occ. eigenvalues --   -0.72174  -0.71236  -0.70872  -0.70865  -0.70369
 Alpha  occ. eigenvalues --   -0.70084  -0.68826  -0.68184  -0.67693  -0.67190
 Alpha  occ. eigenvalues --   -0.67157  -0.66862  -0.66583  -0.66281  -0.66186
 Alpha  occ. eigenvalues --   -0.66126  -0.64434  -0.64350  -0.62479  -0.62241
 Alpha  occ. eigenvalues --   -0.61628  -0.61600  -0.61145  -0.61028  -0.60823
 Alpha  occ. eigenvalues --   -0.60646  -0.60155  -0.59879  -0.59721  -0.59202
 Alpha  occ. eigenvalues --   -0.58123  -0.58111  -0.58103  -0.57635  -0.57532
 Alpha  occ. eigenvalues --   -0.57281  -0.56881  -0.56365  -0.56194  -0.56150
 Alpha  occ. eigenvalues --   -0.55715  -0.55625  -0.55464  -0.54988  -0.54896
 Alpha  occ. eigenvalues --   -0.54499  -0.54314  -0.54302  -0.54203  -0.54056
 Alpha  occ. eigenvalues --   -0.54002  -0.53711  -0.53484  -0.53155  -0.52884
 Alpha  occ. eigenvalues --   -0.52714  -0.52655  -0.52646  -0.52237  -0.52063
 Alpha  occ. eigenvalues --   -0.51945  -0.51905  -0.51620  -0.51492  -0.51319
 Alpha  occ. eigenvalues --   -0.51253  -0.51250  -0.51211  -0.51184  -0.50905
 Alpha  occ. eigenvalues --   -0.50752  -0.50477  -0.50264  -0.50178  -0.50077
 Alpha  occ. eigenvalues --   -0.50074  -0.49898  -0.49561  -0.49270  -0.49192
 Alpha  occ. eigenvalues --   -0.48821  -0.48550  -0.48546  -0.48466  -0.48378
 Alpha  occ. eigenvalues --   -0.48167  -0.48081  -0.47919  -0.47755  -0.47680
 Alpha  occ. eigenvalues --   -0.47536  -0.47295  -0.47166  -0.46942  -0.46896
 Alpha  occ. eigenvalues --   -0.46723  -0.46617  -0.46571  -0.46465  -0.46120
 Alpha  occ. eigenvalues --   -0.45870  -0.45795  -0.45291  -0.45203  -0.45155
 Alpha  occ. eigenvalues --   -0.45014  -0.44910  -0.44882  -0.44852  -0.44647
 Alpha  occ. eigenvalues --   -0.44628  -0.44353  -0.44266  -0.44175  -0.44052
 Alpha  occ. eigenvalues --   -0.44048  -0.43951  -0.43789  -0.43573  -0.43547
 Alpha  occ. eigenvalues --   -0.43336  -0.42957  -0.42852  -0.42487  -0.42145
 Alpha  occ. eigenvalues --   -0.42116  -0.41761  -0.41598  -0.41495  -0.41323
 Alpha  occ. eigenvalues --   -0.40842  -0.40297  -0.39857  -0.39599  -0.39563
 Alpha  occ. eigenvalues --   -0.39461  -0.39168  -0.39155  -0.38985  -0.38639
 Alpha  occ. eigenvalues --   -0.38381  -0.37757  -0.37178  -0.36739  -0.36311
 Alpha  occ. eigenvalues --   -0.35944  -0.35572  -0.35473  -0.33669  -0.33536
 Alpha  occ. eigenvalues --   -0.33236  -0.33021  -0.33016  -0.32504  -0.32444
 Alpha  occ. eigenvalues --   -0.32022  -0.31764  -0.31509  -0.26068  -0.25731
 Alpha  occ. eigenvalues --   -0.22904  -0.22636
 Alpha virt. eigenvalues --   -0.06790  -0.06506   0.00025   0.00114   0.02237
 Alpha virt. eigenvalues --    0.02343   0.04106   0.04715   0.04925   0.05581
 Alpha virt. eigenvalues --    0.06103   0.07493   0.07807   0.08000   0.08222

 Mulliken charges:
               1
     1  Mg   0.965643
     2  C   -0.025713
     3  C   -0.077140
     4  C   -0.087996
     5  C   -0.117583
     6  N   -0.288199
     7  C   -0.035928
     8  C   -0.084160
     9  C   -0.089677
    10  C    0.019717
    11  C    0.040476
    12  C    0.000274
    13  C   -0.089366
    14  H    0.044118
    15  N   -0.478681
    16  C    0.175862
    17  C   -0.189484
    18  C   -0.081169
    19  C    0.188991
    20  C    0.062687
    21  C    0.065009
    22  O   -0.213708
    23  C   -0.007605
    24  N   -0.342030
    25  C    0.014353
    26  C   -0.099170
    27  C   -0.054373
    28  C    0.091150
    29  C    0.035492
    30  C   -0.009975
    31  C   -0.072569
    32  N   -0.486659
    33  C    0.144409
    34  C   -0.184393
    35  C   -0.031027
    36  C    0.180624
    37  C    0.067917
    38  C    0.153357
    39  O   -0.233737
    40  C   -0.147683
    41  C    0.243066
    42  O   -0.185859
    43  O   -0.368671
    44  C    0.110546
    45  H    0.003769
    46  H    0.009609
    47  H   -0.005486
    48  H    0.019527
    49  H    0.022936
    50  H    0.039834
    51  H    0.043879
    52  H    0.040354
    53  H    0.025784
    54  H    0.065952
    55  H    0.042737
    56  H    0.038156
    57  H    0.058978
    58  H    0.057718
    59  H    0.030187
    60  H    0.058188
    61  H    0.020663
    62  H    0.069332
    63  H    0.047934
    64  H    0.031230
    65  H    0.046320
    66  H    0.047903
    67  H    0.054226
    68  H    0.029214
    69  H    0.040699
    70  H    0.032779
    71  H    0.032894
    72  H    0.039574
    73  H    0.062271
    74  H    0.042948
    75  H    0.047404
    76  H    0.085728
    77  H    0.070099
    78  H    0.062602
    79  H    0.062919
    80  Mg   0.986831
    81  C   -0.108938
    82  C   -0.085575
    83  C   -0.110582
    84  C   -0.096032
    85  N   -0.341879
    86  C   -0.038189
    87  C   -0.062453
    88  C   -0.058529
    89  C    0.026502
    90  C    0.027360
    91  C   -0.015210
    92  C   -0.118723
    93  H    0.036888
    94  N   -0.448607
    95  C    0.153361
    96  C   -0.157661
    97  C   -0.113668
    98  C    0.206837
    99  C    0.095242
   100  C    0.069648
   101  O   -0.226548
   102  C   -0.026067
   103  N   -0.421780
   104  C    0.079401
   105  C   -0.103179
   106  C   -0.075556
   107  C    0.085637
   108  C    0.009849
   109  C   -0.024380
   110  C   -0.038117
   111  N   -0.406275
   112  C    0.119856
   113  C   -0.211602
   114  C   -0.096392
   115  C    0.263248
   116  C    0.092504
   117  C    0.145479
   118  O   -0.217845
   119  C   -0.059329
   120  C    0.315804
   121  O   -0.277636
   122  O   -0.382218
   123  C    0.152255
   124  H   -0.009116
   125  H   -0.035073
   126  H   -0.015844
   127  H    0.049486
   128  H    0.045655
   129  H    0.043689
   130  H    0.040420
   131  H    0.046393
   132  H    0.038353
   133  H    0.048340
   134  H    0.063103
   135  H    0.056427
   136  H    0.065402
   137  H    0.023025
   138  H    0.044127
   139  H    0.073617
   140  H    0.060912
   141  H    0.052762
   142  H    0.044428
   143  H    0.036123
   144  H    0.037590
   145  H    0.038509
   146  H    0.031773
   147  H    0.048529
   148  H    0.025122
   149  H    0.051622
   150  H    0.041622
   151  H    0.037710
   152  H    0.034759
   153  H    0.054941
   154  H    0.066689
   155  H    0.059818
   156  H    0.069371
   157  H    0.033768
   158  H    0.052218
 Sum of Mulliken charges =  -0.00000

 Dipole moment (field-independent basis, Debye):
    X=             -0.0017    Y=              4.6212    Z=             -1.9318  Tot=              5.0088
 Quadrupole moment (field-independent basis, Debye-Ang):
   XX=           -232.2965   YY=           -554.8409   ZZ=           -471.8438
   XY=            -80.7933   XZ=             48.9557   YZ=            -32.2901

 Normal termination of Gaussian 16 at Sun Sep 19 00:54:12 2021.
