 Gaussian 16, Revision A.03,
 Gaussian 16:  ES64L-G16RevA.03 25-Dec-2016

 --------------------------------
 #p wB97XD/Def2SVP td=(nstates=5)
 --------------------------------

 --------------------------------
 TDDFT excited states in gaussian
 --------------------------------
 Symbolic Z-matrix:
 Charge =  0 Multiplicity = 1

                         Standard orientation:
 ---------------------------------------------------------------------
 Center     Atomic      Atomic             Coordinates (Angstroms)
 Number     Number       Type             X           Y           Z
 ---------------------------------------------------------------------
      1         12           0        9.453497   -0.298872    0.650872
      2          6           0        8.989795    1.881298   -1.995895
      3          6           0        6.509691    0.836892    2.067842
      4          6           0        9.568894   -2.931436    2.760641
      5          6           0       12.229928   -1.545754   -1.130802
      6          7           0        7.772204    1.000423   -0.058613
      7          6           0        7.944213    1.882466   -1.047163
      8          6           0        6.660561    2.752725   -1.216196
      9          6           0        6.003114    2.609752    0.236996
     10          6           0        6.856299    1.437880    0.857029
     11          6           0        5.966740    3.946363    1.016517
     12          6           0        5.750896    2.153230   -2.264303
     13          6           0        5.077037    3.149727   -3.194636
     14          1           0        3.599867    2.970484   -3.711328
     15          7           0        8.251203   -0.829804    2.333535
     16          6           0        7.070226   -0.316825    2.719419
     17          6           0        6.663129   -1.013559    3.896278
     18          6           0        7.629469   -2.009728    4.232011
     19          6           0        8.581867   -1.955036    3.116039
     20          6           0        5.507097   -0.559559    4.708554
     21          6           0        7.476102   -2.978756    5.349992
     22          8           0        6.528873   -2.889422    6.113338
     23          6           0        8.517909   -4.057714    5.620305
     24          7           0       10.841169   -2.015876    0.831878
     25          6           0       10.572241   -2.968681    1.767879
     26          6           0       11.419688   -4.179278    1.546758
     27          6           0       12.273017   -3.714377    0.273549
     28          6           0       11.839989   -2.303423   -0.038664
     29          6           0       12.238527   -4.627331    2.771850
     30          6           0       12.207114   -4.671744   -0.997688
     31          6           0       13.505613   -5.171961   -1.673187
     32          7           0       10.435142    0.068754   -1.132933
     33          6           0       11.565868   -0.456078   -1.675392
     34          6           0       12.039789    0.374222   -2.692020
     35          6           0       11.079805    1.359271   -2.877840
     36          6           0       10.094643    1.088442   -1.961606
     37          6           0       13.330368    0.106785   -3.520676
     38          6           0       10.721155    2.491177   -3.595907
     39          8           0       11.278451    2.971934   -4.576440
     40          6           0        9.258480    2.943509   -3.116241
     41          6           0        9.273151    4.221797   -2.501689
     42          8           0        9.648934    4.575263   -1.381445
     43          8           0        8.732958    5.101188   -3.435028
     44          6           0        8.598107    6.515975   -3.133295
     45          1           0        5.671919    1.294324    2.597831
     46          1           0        9.737005   -3.826070    3.364585
     47          1           0       13.152246   -1.955715   -1.547855
     48          1           0        6.973695    3.755382   -1.505954
     49          1           0        5.007717    2.166793    0.232377
     50          1           0        6.492573    4.739279    0.485012
     51          1           0        6.409673    3.804203    2.002782
     52          1           0        4.919810    4.198750    1.183283
     53          1           0        4.968305    1.474001   -1.925609
     54          1           0        6.383668    1.441084   -2.793942
     55          1           0        5.754453    3.289866   -4.036823
     56          1           0        5.128321    4.059760   -2.596904
     57          1           0        5.984565    0.018769    5.499321
     58          1           0        4.935771   -1.402239    5.098355
     59          1           0        4.809092    0.065039    4.150983
     60          1           0        8.308853   -4.852952    4.904607
     61          1           0        8.252732   -4.484132    6.587442
     62          1           0        9.525954   -3.650677    5.542204
     63          1           0       10.647193   -4.903740    1.290900
     64          1           0       13.343555   -3.743488    0.476610
     65          1           0       11.746173   -5.525762    3.145483
     66          1           0       12.311448   -3.856450    3.539700
     67          1           0       13.236416   -4.923567    2.449400
     68          1           0       11.652310   -4.157150   -1.782086
     69          1           0       11.704628   -5.616822   -0.790514
     70          1           0       13.649422   -4.370780   -2.398005
     71          1           0       13.319585   -6.101005   -2.210491
     72          1           0       14.451482   -5.142726   -1.132444
     73          1           0       13.131930   -0.711765   -4.211377
     74          1           0       14.198303   -0.239651   -2.959295
     75          1           0       13.610042    0.986904   -4.100368
     76          1           0        8.624479    2.874540   -4.000337
     77          1           0        8.705214    7.052623   -4.075468
     78          1           0        9.243172    6.884629   -2.335301
     79          1           0        7.560080    6.691820   -2.850667
     80         12           0       -9.603766   -0.756749   -0.171196
     81          6           0       -8.204165    2.195145    1.136630
     82          6           0       -6.382428   -1.741441   -1.033724
     83          6           0      -10.998557   -3.366079   -1.679018
     84          6           0      -12.846447    0.775591   -0.005553
     85          7           0       -7.563557    0.124025    0.003803
     86          6           0       -7.247528    1.299993    0.698568
     87          6           0       -5.770954    1.289297    1.048415
     88          6           0       -5.147890    0.198188    0.131909
     89          6           0       -6.447982   -0.527665   -0.328243
     90          6           0       -4.197436    0.701717   -0.999388
     91          6           0       -5.461206    1.103486    2.574299
     92          6           0       -4.130516    1.828676    3.062241
     93          1           0       -3.289842    2.561340    2.013203
     94          7           0       -8.813556   -2.341156   -1.067315
     95          6           0       -7.470039   -2.612481   -1.260947
     96          6           0       -7.291918   -3.917621   -1.828932
     97          6           0       -8.612904   -4.367688   -2.148345
     98          6           0       -9.517732   -3.373838   -1.598837
     99          6           0       -5.898319   -4.533282   -2.160660
    100          6           0       -9.029577   -5.598364   -2.885346
    101          8           0      -10.221234   -5.784562   -3.229238
    102          6           0       -8.152025   -6.768230   -3.419999
    103          7           0      -11.586789   -1.133249   -1.012553
    104          6           0      -11.922892   -2.345327   -1.492953
    105          6           0      -13.463305   -2.483696   -1.585930
    106          6           0      -14.058725   -1.165431   -1.078566
    107          6           0      -12.710541   -0.458308   -0.612224
    108          6           0      -13.899500   -2.979283   -2.930954
    109          6           0      -15.126274   -1.256357    0.032923
    110          6           0      -14.664372   -1.947010    1.339761
    111          7           0      -10.433570    1.135984    0.376998
    112          6           0      -11.725865    1.507999    0.529840
    113          6           0      -11.714381    2.765594    1.275510
    114          6           0      -10.368484    3.108113    1.585656
    115          6           0       -9.596790    2.095181    0.966087
    116          6           0      -12.946369    3.517178    1.772729
    117          6           0       -9.517260    4.059703    2.225445
    118          8           0       -9.717738    5.036238    2.942769
    119          6           0       -7.981923    3.510794    1.889484
    120          6           0       -7.185705    4.625794    1.237984
    121          8           0       -7.275082    4.917081    0.061390
    122          8           0       -6.293402    5.176460    2.129629
    123          6           0       -5.716883    6.484261    1.834951
    124          1           0       -5.328244   -2.004531   -1.141264
    125          1           0      -11.400931   -4.290802   -2.097192
    126          1           0      -13.874870    1.115126    0.132012
    127          1           0       -5.332521    2.252394    0.787439
    128          1           0       -4.587893   -0.476172    0.779143
    129          1           0       -4.658917    0.283148   -1.893150
    130          1           0       -3.217043    0.231154   -0.916025
    131          1           0       -4.064318    1.771849   -1.157954
    132          1           0       -5.274826    0.058067    2.818229
    133          1           0       -6.330967    1.424602    3.146008
    134          1           0       -3.444501    1.051739    3.400019
    135          1           0       -4.411455    2.512724    3.862653
    136          1           0       -5.995492   -5.075290   -3.102136
    137          1           0       -5.570249   -5.254722   -1.413091
    138          1           0       -5.009556   -3.908988   -2.251395
    139          1           0       -7.561993   -7.205475   -2.614033
    140          1           0       -7.520528   -6.468140   -4.256173
    141          1           0       -8.703992   -7.684018   -3.628237
    142          1           0      -13.712015   -3.350784   -0.975393
    143          1           0      -14.329756   -0.619851   -1.983127
    144          1           0      -14.158252   -4.038288   -2.928358
    145          1           0      -13.132086   -2.760902   -3.673750
    146          1           0      -14.767251   -2.459704   -3.338858
    147          1           0      -15.901106   -1.875343   -0.419858
    148          1           0      -15.527037   -0.266036    0.251173
    149          1           0      -14.785585   -1.193597    2.117814
    150          1           0      -13.619601   -2.222801    1.196331
    151          1           0      -15.168964   -2.889536    1.552770
    152          1           0      -12.833046    3.878290    2.794517
    153          1           0      -13.809664    2.857528    1.855560
    154          1           0      -13.189005    4.288587    1.041354
    155          1           0       -7.544283    3.330189    2.871628
    156          1           0       -5.503925    6.494090    0.765677
    157          1           0       -4.784550    6.701715    2.356190
    158          1           0       -6.455761    7.209902    2.175050
 ---------------------------------------------------------------------

 SCF Done:  E(RwB97XD) =  -4070.59437310     A.U. after   20 cycles

 Excitation energies and oscillator strengths:

 Excited State   1:      Singlet-A      1.6020 eV  773.93 nm  f=0.4021  <S**2>=0.000
     310 -> 316        0.17285
     312 -> 314        0.68551
     310 <- 316        0.11416
 This state for optimization and/or second-order correction.
 Total Energy, E(TD-HF/TD-DFT) =  -4070.53550023
 Copying the excited state density for this state as the 1-particle RhoCI density.

 Excited State   2:      Singlet-A      1.6373 eV  757.24 nm  f=0.3960  <S**2>=0.000
     309 -> 315       -0.19088
     311 -> 313        0.68243
     309 <- 315       -0.11964

 Excited State   3:      Singlet-A      2.1363 eV  580.37 nm  f=0.1583  <S**2>=0.000
     310 -> 314        0.65402
     312 -> 316       -0.24793

 Excited State   4:      Singlet-A      2.1726 eV  570.68 nm  f=0.0945  <S**2>=0.000
     309 -> 313        0.63372
     311 -> 315        0.29634

 Excited State   5:      Singlet-A      3.4462 eV  359.77 nm  f=0.0000  <S**2>=0.000
     312 -> 313        0.70677

 The electronic state is 1-A.
 Alpha  occ. eigenvalues --  -46.96194 -46.95260 -19.30007 -19.29504 -19.25267
 Alpha  occ. eigenvalues --  -19.24470 -19.24405 -19.24201 -19.23542 -19.23423
 Alpha  occ. eigenvalues --  -14.47181 -14.47094 -14.46772 -14.45986 -14.44900
 Alpha  occ. eigenvalues --  -14.44582 -14.43975 -14.43956 -10.43585 -10.42974
 Alpha  occ. eigenvalues --  -10.39611 -10.39489 -10.39401 -10.38747 -10.35738
 Alpha  occ. eigenvalues --  -10.35644 -10.35605 -10.35543 -10.35420 -10.35304
 Alpha  occ. eigenvalues --  -10.35157 -10.35052 -10.34963 -10.34802 -10.34768
 Alpha  occ. eigenvalues --  -10.34552 -10.34343 -10.33964 -10.33834 -10.33733
 Alpha  occ. eigenvalues --  -10.33598 -10.33267 -10.33020 -10.32976 -10.32908
 Alpha  occ. eigenvalues --  -10.32654 -10.32639 -10.32541 -10.32497 -10.32415
 Alpha  occ. eigenvalues --  -10.32406 -10.32329 -10.32312 -10.32212 -10.32107
 Alpha  occ. eigenvalues --  -10.32079 -10.32068 -10.32052 -10.32039 -10.31817
 Alpha  occ. eigenvalues --  -10.31628 -10.31603 -10.31581 -10.31473 -10.31428
 Alpha  occ. eigenvalues --  -10.31234 -10.30893 -10.30885 -10.30871 -10.30870
 Alpha  occ. eigenvalues --  -10.30643 -10.30580 -10.30580 -10.30206 -10.30171
 Alpha  occ. eigenvalues --  -10.30147 -10.30128 -10.30073 -10.29865 -10.29859
 Alpha  occ. eigenvalues --  -10.29435 -10.29414 -10.29318 -10.29028 -10.29023
 Alpha  occ. eigenvalues --  -10.28742  -3.21983  -3.21271  -1.95580  -1.95095
 Alpha  occ. eigenvalues --   -1.94941  -1.94831  -1.94395  -1.94251  -1.18037
 Alpha  occ. eigenvalues --   -1.17631  -1.12431  -1.12369  -1.11682  -1.10638
 Alpha  occ. eigenvalues --   -1.09843  -1.09661  -1.07725  -1.06359  -1.06256
 Alpha  occ. eigenvalues --   -1.06031  -1.05482  -1.05233  -1.04829  -1.04128
 Alpha  occ. eigenvalues --   -0.96059  -0.94151  -0.91565  -0.91181  -0.91041
 Alpha  occ. eigenvalues --   -0.90421  -0.90414  -0.90113  -0.89997  -0.89281
 Alpha  occ. eigenvalues --   -0.89010  -0.88782  -0.88345  -0.87521  -0.87248
 Alpha  occ. eigenvalues --   -0.86691  -0.85707  -0.85228  -0.85101  -0.84330
 Alpha  occ. eigenvalues --   -0.84097  -0.83611  -0.82995  -0.82909  -0.82583
 Alpha  occ. eigenvalues --   -0.81964  -0.80669  -0.80289  -0.79705  -0.78856
 Alpha  occ. eigenvalues --   -0.78687  -0.78664  -0.78574  -0.77773  -0.77292
 Alpha  occ. eigenvalues --   -0.76940  -0.75661  -0.74546  -0.74511  -0.73044
 Alpha  occ. eigenvalues --   -0.71996  -0.71824  -0.71352  -0.71121  -0.70330
 Alpha  occ. eigenvalues --   -0.70261  -0.69526  -0.69525  -0.68251  -0.68014
 Alpha  occ. eigenvalues --   -0.67651  -0.67213  -0.67027  -0.66863  -0.66147
 Alpha  occ. eigenvalues --   -0.66057  -0.64848  -0.63646  -0.62934  -0.62640
 Alpha  occ. eigenvalues --   -0.62084  -0.61454  -0.61260  -0.61211  -0.60797
 Alpha  occ. eigenvalues --   -0.60331  -0.60169  -0.60048  -0.59398  -0.58922
 Alpha  occ. eigenvalues --   -0.58500  -0.58253  -0.57895  -0.57674  -0.57631
 Alpha  occ. eigenvalues --   -0.56935  -0.56797  -0.56739  -0.56457  -0.55867
 Alpha  occ. eigenvalues --   -0.55670  -0.55499  -0.55408  -0.54995  -0.54750
 Alpha  occ. eigenvalues --   -0.54681  -0.54492  -0.54410  -0.54276  -0.54211
 Alpha  occ. eigenvalues --   -0.54159  -0.53964  -0.53918  -0.53597  -0.53386
 Alpha  occ. eigenvalues --   -0.53275  -0.52958  -0.52611  -0.52454  -0.52245
 Alpha  occ. eigenvalues --   -0.52067  -0.51995  -0.51679  -0.51578  -0.51495
 Alpha  occ. eigenvalues --   -0.51168  -0.51137  -0.51117  -0.51073  -0.50935
 Alpha  occ. eigenvalues --   -0.50674  -0.50559  -0.50499  -0.50366  -0.50138
 Alpha  occ. eigenvalues --   -0.49825  -0.49678  -0.49582  -0.49352  -0.48992
 Alpha  occ. eigenvalues --   -0.48860  -0.48816  -0.48691  -0.48612  -0.48321
 Alpha  occ. eigenvalues --   -0.48257  -0.48246  -0.48049  -0.47908  -0.47784
 Alpha  occ. eigenvalues --   -0.47587  -0.47425  -0.47390  -0.47242  -0.47142
 Alpha  occ. eigenvalues --   -0.46829  -0.46678  -0.46645  -0.46412  -0.46152
 Alpha  occ. eigenvalues --   -0.46005  -0.45985  -0.45898  -0.45706  -0.45528
 Alpha  occ. eigenvalues --   -0.45391  -0.45240  -0.45120  -0.44997  -0.44963
 Alpha  occ. eigenvalues --   -0.44519  -0.44300  -0.44281  -0.44170  -0.44012
 Alpha  occ. eigenvalues --   -0.43971  -0.43863  -0.43797  -0.43566  -0.43506
 Alpha  occ. eigenvalues --   -0.43479  -0.43078  -0.42658  -0.42535  -0.42352
 Alpha  occ. eigenvalues --   -0.41994  -0.41802  -0.41512  -0.41161  -0.40563
 Alpha  occ. eigenvalues --   -0.40469  -0.40301  -0.40063  -0.39763  -0.39590
 Alpha  occ. eigenvalues --   -0.39574  -0.39413  -0.38904  -0.38406  -0.38267
 Alpha  occ. eigenvalues --   -0.37993  -0.37751  -0.36966  -0.36661  -0.36040
 Alpha  occ. eigenvalues --   -0.35929  -0.35704  -0.35255  -0.34195  -0.33680
 Alpha  occ. eigenvalues --   -0.33421  -0.32964  -0.32840  -0.32791  -0.32768
 Alpha  occ. eigenvalues --   -0.32243  -0.31815  -0.31645  -0.26646  -0.26036
 Alpha  occ. eigenvalues --   -0.23512  -0.23188
 Alpha virt. eigenvalues --   -0.07714  -0.07605  -0.00538   0.00519   0.01735
 Alpha virt. eigenvalues --    0.02007   0.04083   0.04281   0.04682   0.05526
 Alpha virt. eigenvalues --    0.06083   0.07008   0.07359   0.07757   0.07959

 Mulliken charges:
               1
     1  Mg   0.939317
     2  C   -0.063867
     3  C   -0.088508
     4  C   -0.039839
     5  C   -0.124046
     6  N   -0.332487
     7  C    0.013285
     8  C   -0.124582
     9  C   -0.102887
    10  C    0.083809
    11  C    0.035947
    12  C    0.029885
    13  C   -0.116611
    14  H    0.044334
    15  N   -0.455779
    16  C    0.158117
    17  C   -0.182684
    18  C   -0.057191
    19  C    0.198225
    20  C    0.076449
    21  C    0.004548
    22  O   -0.236368
    23  C    0.003005
    24  N   -0.354101
    25  C   -0.009410
    26  C   -0.086532
    27  C   -0.051344
    28  C    0.062299
    29  C    0.022933
    30  C   -0.053347
    31  C   -0.067792
    32  N   -0.434203
    33  C    0.194478
    34  C   -0.187140
    35  C    0.053690
    36  C    0.162366
    37  C    0.075234
    38  C    0.056481
    39  O   -0.206507
    40  C   -0.077504
    41  C    0.295451
    42  O   -0.257242
    43  O   -0.388855
    44  C    0.139627
    45  H   -0.000492
    46  H   -0.030076
    47  H   -0.003306
    48  H    0.037411
    49  H    0.044831
    50  H    0.049331
    51  H    0.034199
    52  H    0.035678
    53  H    0.036252
    54  H    0.027158
    55  H    0.056245
    56  H    0.044757
    57  H    0.061034
    58  H    0.064872
    59  H    0.023583
    60  H    0.059139
    61  H    0.052060
    62  H    0.063930
    63  H    0.052837
    64  H    0.024366
    65  H    0.042334
    66  H    0.053276
    67  H    0.040648
    68  H    0.043506
    69  H    0.030873
    70  H    0.022400
    71  H    0.048082
    72  H    0.040378
    73  H    0.047631
    74  H    0.038076
    75  H    0.062531
    76  H    0.083115
    77  H    0.057208
    78  H    0.069014
    79  H    0.036465
    80  Mg   0.972253
    81  C    0.006903
    82  C   -0.061678
    83  C   -0.062908
    84  C   -0.062953
    85  N   -0.337698
    86  C   -0.003190
    87  C   -0.035528
    88  C   -0.097845
    89  C    0.010248
    90  C    0.027416
    91  C   -0.006744
    92  C   -0.128861
    93  H    0.032910
    94  N   -0.495078
    95  C    0.189916
    96  C   -0.136926
    97  C   -0.054380
    98  C    0.137720
    99  C    0.058992
   100  C    0.036268
   101  O   -0.271628
   102  C   -0.007007
   103  N   -0.340790
   104  C    0.077628
   105  C   -0.129571
   106  C   -0.020267
   107  C    0.012661
   108  C    0.021353
   109  C   -0.019401
   110  C   -0.045936
   111  N   -0.429038
   112  C    0.150710
   113  C   -0.205222
   114  C    0.004368
   115  C    0.122964
   116  C    0.072258
   117  C    0.116791
   118  O   -0.207621
   119  C   -0.128574
   120  C    0.274753
   121  O   -0.237607
   122  O   -0.379783
   123  C    0.133713
   124  H   -0.002955
   125  H    0.023076
   126  H   -0.004362
   127  H    0.030549
   128  H    0.033358
   129  H    0.030740
   130  H    0.034614
   131  H    0.058126
   132  H    0.030195
   133  H    0.037406
   134  H    0.054889
   135  H    0.069330
   136  H    0.037128
   137  H    0.051331
   138  H    0.045604
   139  H    0.031040
   140  H    0.073481
   141  H    0.048600
   142  H    0.037243
   143  H    0.038758
   144  H    0.043498
   145  H    0.041836
   146  H    0.022296
   147  H    0.033281
   148  H    0.039368
   149  H    0.046953
   150  H    0.038563
   151  H    0.043047
   152  H    0.057661
   153  H    0.018554
   154  H    0.059374
   155  H    0.065631
   156  H    0.060038
   157  H    0.053460
   158  H    0.064701
 Sum of Mulliken charges =  -0.00000

 Dipole moment (field-independent basis, Debye):
    X=              3.9653    Y=             -6.1774    Z=              1.3929  Tot=              7.4716
 Quadrupole moment (field-independent basis, Debye-Ang):
   XX=           -496.6560   YY=           -500.8973   ZZ=           -551.2789
   XY=            -18.8907   XZ=              1.6316   YZ=              2.5633

 Normal termination of Gaussian 16 at Sun Sep 19 03:01:52 2021.
