 Gaussian 16, Revision A.03,
 Gaussian 16:  ES64L-G16RevA.03 25-Dec-2016

 --------------------------------
 #p wB97XD/Def2SVP td=(nstates=5)
 --------------------------------

 --------------------------------
 TDDFT excited states in gaussian
 --------------------------------
 Symbolic Z-matrix:
 Charge =  0 Multiplicity = 1

                         Standard orientation:
 ---------------------------------------------------------------------
 Center     Atomic      Atomic             Coordinates (Angstroms)
 Number     Number       Type             X           Y           Z
 ---------------------------------------------------------------------
      1         12           0        9.790694   -0.189693    0.574273
      2          6           0        8.719810    1.496536   -2.354305
      3          6           0        6.726850    0.424219    1.902275
      4          6           0       10.533928   -2.477301    2.977153
      5          6           0       12.638961   -1.155617   -1.148256
      6          7           0        7.932146    0.735496   -0.318134
      7          6           0        7.713918    1.450387   -1.465910
      8          6           0        6.366442    2.070681   -1.488081
      9          6           0        5.899005    1.978018    0.040185
     10          6           0        6.877819    0.991268    0.578753
     11          6           0        5.938796    3.332930    0.728383
     12          6           0        5.531087    1.310378   -2.530071
     13          6           0        4.834530    2.160113   -3.674918
     14          1           0        3.300287    2.068170   -3.932500
     15          7           0        8.841654   -0.928566    2.248770
     16          6           0        7.588902   -0.459796    2.668156
     17          6           0        7.339436   -0.994763    3.972965
     18          6           0        8.411919   -1.881627    4.326339
     19          6           0        9.361986   -1.729952    3.191918
     20          6           0        6.098484   -0.589907    4.758156
     21          6           0        8.573436   -2.731804    5.566649
     22          8           0        7.676715   -2.529743    6.435867
     23          6           0        9.606621   -3.859931    5.845345
     24          7           0       11.385797   -1.640646    0.903523
     25          6           0       11.477095   -2.440282    1.988953
     26          6           0       12.710908   -3.380575    1.953313
     27          6           0       13.446247   -2.865434    0.668175
     28          6           0       12.376602   -1.838116    0.065372
     29          6           0       13.509890   -3.223483    3.234676
     30          6           0       13.796433   -3.919121   -0.337749
     31          6           0       15.275190   -4.158778   -0.478353
     32          7           0       10.653339    0.193334   -1.220449
     33          6           0       11.852543   -0.204047   -1.825234
     34          6           0       12.109335    0.502636   -2.974464
     35          6           0       10.917996    1.218759   -3.210047
     36          6           0       10.045077    0.934731   -2.162303
     37          6           0       13.459988    0.532755   -3.657969
     38          6           0       10.293097    2.224837   -4.109407
     39          8           0       10.746538    2.761523   -5.072133
     40          6           0        8.818292    2.320022   -3.563363
     41          6           0        8.420733    3.778933   -3.619627
     42          8           0        7.671965    4.268132   -4.465486
     43          8           0        8.989637    4.486212   -2.532725
     44          6           0        8.533557    5.874521   -2.470886
     45          1           0        5.843197    0.797082    2.424857
     46          1           0       10.860841   -3.148512    3.774807
     47          1           0       13.382485   -1.580520   -1.824870
     48          1           0        6.451799    3.111581   -1.800332
     49          1           0        4.869863    1.620347    0.058301
     50          1           0        6.781677    3.948562    0.417308
     51          1           0        6.099764    3.169563    1.794504
     52          1           0        5.007920    3.894310    0.648563
     53          1           0        4.760045    0.766569   -1.984490
     54          1           0        6.063515    0.486920   -3.006036
     55          1           0        5.352729    1.757375   -4.545576
     56          1           0        5.189488    3.189924   -3.660520
     57          1           0        5.198031   -0.703735    4.154539
     58          1           0        6.218659    0.469213    4.985702
     59          1           0        5.846375   -1.178706    5.641187
     60          1           0       10.545559   -3.315935    5.943053
     61          1           0        9.627975   -4.530184    4.985962
     62          1           0        9.357136   -4.447558    6.729235
     63          1           0       12.461744   -4.438435    1.873869
     64          1           0       14.287680   -2.233307    0.950747
     65          1           0       12.818517   -3.333844    4.070266
     66          1           0       13.944278   -2.223294    3.242342
     67          1           0       14.398322   -3.834481    3.389726
     68          1           0       13.473858   -3.680636   -1.351246
     69          1           0       13.355987   -4.904863   -0.189311
     70          1           0       15.456623   -5.222407   -0.328829
     71          1           0       15.858729   -3.668589    0.300941
     72          1           0       15.698876   -3.802722   -1.418008
     73          1           0       13.446694    1.407665   -4.308735
     74          1           0       13.642500   -0.361328   -4.253652
     75          1           0       14.179482    0.607797   -2.842923
     76          1           0        8.249757    1.875556   -4.381077
     77          1           0        8.572934    6.244149   -1.446139
     78          1           0        7.471231    5.954391   -2.697107
     79          1           0        9.074449    6.533131   -3.150978
     80         12           0       -9.904533   -0.731665   -0.036804
     81          6           0       -8.453718    2.136330    1.358614
     82          6           0       -6.736430   -1.546940   -1.391220
     83          6           0      -11.346554   -3.325387   -1.686853
     84          6           0      -13.017079    0.562228    0.710807
     85          7           0       -7.865264    0.116822    0.145870
     86          6           0       -7.525249    1.215956    0.939778
     87          6           0       -5.973207    1.213551    1.184374
     88          6           0       -5.488503    0.110730    0.236122
     89          6           0       -6.786095   -0.464067   -0.431946
     90          6           0       -4.507726    0.694244   -0.816409
     91          6           0       -5.715254    0.989541    2.669392
     92          6           0       -4.440540    1.561824    3.267544
     93          1           0       -3.336818    2.053229    2.303847
     94          7           0       -9.190619   -2.255161   -1.349332
     95          6           0       -7.865793   -2.395897   -1.804415
     96          6           0       -7.756898   -3.517388   -2.720822
     97          6           0       -9.066039   -4.136125   -2.804167
     98          6           0       -9.935199   -3.224466   -1.943088
     99          6           0       -6.434324   -4.035998   -3.299684
    100          6           0       -9.534096   -5.374541   -3.544088
    101          8           0      -10.699709   -5.738600   -3.463395
    102          6           0       -8.520776   -6.244531   -4.182885
    103          7           0      -11.930156   -1.314236   -0.358686
    104          6           0      -12.250746   -2.475601   -0.994189
    105          6           0      -13.773130   -2.741639   -0.861526
    106          6           0      -14.323620   -1.520191   -0.027872
    107          6           0      -13.017317   -0.729381    0.241655
    108          6           0      -14.414763   -2.886299   -2.253107
    109          6           0      -14.997380   -1.897805    1.318073
    110          6           0      -16.512944   -1.845123    1.151928
    111          7           0      -10.694674    1.036172    0.755709
    112          6           0      -11.958368    1.485519    0.948440
    113          6           0      -11.864641    2.909321    1.353126
    114          6           0      -10.554796    3.174825    1.626558
    115          6           0       -9.878274    2.004320    1.197796
    116          6           0      -13.107622    3.748614    1.596682
    117          6           0       -9.584694    4.144915    2.151698
    118          8           0       -9.773531    5.283777    2.561789
    119          6           0       -8.238221    3.452544    2.065628
    120          6           0       -7.347925    4.407629    1.387166
    121          8           0       -7.248720    4.695809    0.186814
    122          8           0       -6.615545    5.053409    2.362174
    123          6           0       -5.715596    6.095060    1.916997
    124          1           0       -5.729566   -1.808395   -1.722687
    125          1           0      -11.710461   -4.239824   -2.160034
    126          1           0      -14.035022    0.938827    0.831521
    127          1           0       -5.719969    2.216102    0.837493
    128          1           0       -4.860821   -0.544467    0.840057
    129          1           0       -4.889819    0.718059   -1.837108
    130          1           0       -3.725299   -0.053262   -0.944235
    131          1           0       -4.193121    1.707977   -0.569239
    132          1           0       -5.799336   -0.090527    2.793523
    133          1           0       -6.569729    1.361212    3.233703
    134          1           0       -4.024514    0.831715    3.960465
    135          1           0       -4.839847    2.384153    3.862242
    136          1           0       -5.578621   -3.392858   -3.093276
    137          1           0       -6.516327   -4.131442   -4.383221
    138          1           0       -6.282706   -5.058146   -2.954816
    139          1           0       -7.890772   -6.672892   -3.402933
    140          1           0       -8.037840   -5.736920   -5.017838
    141          1           0       -8.972882   -7.126137   -4.637383
    142          1           0      -13.895035   -3.703397   -0.363795
    143          1           0      -14.949514   -0.961847   -0.725237
    144          1           0      -15.231367   -2.204029   -2.487472
    145          1           0      -14.835427   -3.885598   -2.143164
    146          1           0      -13.732447   -2.723652   -3.086956
    147          1           0      -14.862442   -1.096437    2.044722
    148          1           0      -14.701417   -2.875437    1.698995
    149          1           0      -16.851951   -2.777727    1.602695
    150          1           0      -16.854566   -1.946206    0.122079
    151          1           0      -17.006326   -0.991634    1.617770
    152          1           0      -14.040922    3.315405    1.236051
    153          1           0      -13.027955    4.748695    1.172309
    154          1           0      -13.298206    3.768139    2.670293
    155          1           0       -7.911701    3.238394    3.082767
    156          1           0       -6.285360    6.771010    1.278861
    157          1           0       -4.861919    5.720999    1.351403
    158          1           0       -5.595660    6.741550    2.785683
 ---------------------------------------------------------------------

 SCF Done:  E(RwB97XD) =  -4070.60255471     A.U. after   19 cycles

 Excitation energies and oscillator strengths:

 Excited State   1:      Singlet-A      1.6245 eV  763.19 nm  f=0.3294  <S**2>=0.000
     309 -> 315        0.17901
     311 -> 313        0.68194
     309 <- 315        0.11704
 This state for optimization and/or second-order correction.
 Total Energy, E(TD-HF/TD-DFT) =  -4070.54285370
 Copying the excited state density for this state as the 1-particle RhoCI density.

 Excited State   2:      Singlet-A      1.6262 eV  762.42 nm  f=0.4245  <S**2>=0.000
     310 -> 316        0.17817
     312 -> 314        0.68181
     310 <- 316        0.11297

 Excited State   3:      Singlet-A      2.1420 eV  578.82 nm  f=0.1275  <S**2>=0.000
     310 -> 314        0.64115
     312 -> 316       -0.27574

 Excited State   4:      Singlet-A      2.1636 eV  573.06 nm  f=0.1500  <S**2>=0.000
     309 -> 313        0.64443
     311 -> 315       -0.26951

 Excited State   5:      Singlet-A      3.3270 eV  372.66 nm  f=0.0000  <S**2>=0.000
     312 -> 313        0.70686

 The electronic state is 1-A.
 Alpha  occ. eigenvalues --  -46.95484 -46.95451 -19.30956 -19.29699 -19.26066
 Alpha  occ. eigenvalues --  -19.24994 -19.24748 -19.24317 -19.24273 -19.23491
 Alpha  occ. eigenvalues --  -14.47112 -14.46945 -14.46791 -14.46328 -14.44826
 Alpha  occ. eigenvalues --  -14.44757 -14.43749 -14.43736 -10.44350 -10.43222
 Alpha  occ. eigenvalues --  -10.39802 -10.39605 -10.39474 -10.39387 -10.36184
 Alpha  occ. eigenvalues --  -10.36085 -10.35488 -10.35312 -10.35271 -10.35244
 Alpha  occ. eigenvalues --  -10.35111 -10.35003 -10.34858 -10.34831 -10.34721
 Alpha  occ. eigenvalues --  -10.34681 -10.34665 -10.34037 -10.33777 -10.33291
 Alpha  occ. eigenvalues --  -10.33188 -10.33056 -10.32993 -10.32832 -10.32725
 Alpha  occ. eigenvalues --  -10.32723 -10.32555 -10.32554 -10.32536 -10.32480
 Alpha  occ. eigenvalues --  -10.32429 -10.32404 -10.32290 -10.32241 -10.32148
 Alpha  occ. eigenvalues --  -10.31983 -10.31827 -10.31825 -10.31764 -10.31687
 Alpha  occ. eigenvalues --  -10.31635 -10.31597 -10.31590 -10.31518 -10.31460
 Alpha  occ. eigenvalues --  -10.31378 -10.31212 -10.31079 -10.30935 -10.30742
 Alpha  occ. eigenvalues --  -10.30585 -10.30521 -10.30479 -10.30382 -10.30329
 Alpha  occ. eigenvalues --  -10.30286 -10.30199 -10.29982 -10.29458 -10.29426
 Alpha  occ. eigenvalues --  -10.29320 -10.29254 -10.29116 -10.29105 -10.28796
 Alpha  occ. eigenvalues --  -10.28753  -3.21490  -3.21301  -1.95059  -1.94902
 Alpha  occ. eigenvalues --   -1.94617  -1.94463  -1.94381  -1.94300  -1.17970
 Alpha  occ. eigenvalues --   -1.17853  -1.14392  -1.12709  -1.12214  -1.10270
 Alpha  occ. eigenvalues --   -1.09981  -1.09064  -1.07381  -1.06421  -1.06298
 Alpha  occ. eigenvalues --   -1.05521  -1.04932  -1.04791  -1.04644  -1.03698
 Alpha  occ. eigenvalues --   -0.95410  -0.95329  -0.91892  -0.91382  -0.91138
 Alpha  occ. eigenvalues --   -0.91085  -0.90623  -0.89926  -0.89903  -0.89090
 Alpha  occ. eigenvalues --   -0.89036  -0.88800  -0.88037  -0.87516  -0.86899
 Alpha  occ. eigenvalues --   -0.86322  -0.86259  -0.85753  -0.84690  -0.84634
 Alpha  occ. eigenvalues --   -0.84328  -0.83994  -0.82844  -0.82788  -0.82563
 Alpha  occ. eigenvalues --   -0.81993  -0.80092  -0.79897  -0.79489  -0.79194
 Alpha  occ. eigenvalues --   -0.78960  -0.78722  -0.78537  -0.77863  -0.77588
 Alpha  occ. eigenvalues --   -0.76486  -0.75648  -0.74511  -0.74337  -0.72990
 Alpha  occ. eigenvalues --   -0.71502  -0.71048  -0.71036  -0.70399  -0.69879
 Alpha  occ. eigenvalues --   -0.69799  -0.69382  -0.69088  -0.68360  -0.67805
 Alpha  occ. eigenvalues --   -0.67502  -0.67320  -0.67067  -0.66846  -0.66649
 Alpha  occ. eigenvalues --   -0.65890  -0.65222  -0.64122  -0.62652  -0.62198
 Alpha  occ. eigenvalues --   -0.62149  -0.61733  -0.61606  -0.61091  -0.61064
 Alpha  occ. eigenvalues --   -0.60757  -0.60340  -0.60209  -0.59643  -0.58937
 Alpha  occ. eigenvalues --   -0.58357  -0.57902  -0.57850  -0.57754  -0.57721
 Alpha  occ. eigenvalues --   -0.57029  -0.56964  -0.56729  -0.56438  -0.55952
 Alpha  occ. eigenvalues --   -0.55637  -0.55551  -0.55492  -0.55324  -0.55286
 Alpha  occ. eigenvalues --   -0.55250  -0.54866  -0.54760  -0.54754  -0.54363
 Alpha  occ. eigenvalues --   -0.54130  -0.53828  -0.53802  -0.53666  -0.53321
 Alpha  occ. eigenvalues --   -0.53168  -0.52952  -0.52698  -0.52590  -0.52372
 Alpha  occ. eigenvalues --   -0.52318  -0.52117  -0.51951  -0.51824  -0.51729
 Alpha  occ. eigenvalues --   -0.51558  -0.51218  -0.51195  -0.50976  -0.50963
 Alpha  occ. eigenvalues --   -0.50673  -0.50577  -0.50392  -0.50071  -0.50063
 Alpha  occ. eigenvalues --   -0.49797  -0.49792  -0.49348  -0.49287  -0.49103
 Alpha  occ. eigenvalues --   -0.48967  -0.48674  -0.48641  -0.48551  -0.48308
 Alpha  occ. eigenvalues --   -0.48083  -0.47963  -0.47960  -0.47830  -0.47806
 Alpha  occ. eigenvalues --   -0.47558  -0.47379  -0.47254  -0.47170  -0.46949
 Alpha  occ. eigenvalues --   -0.46918  -0.46703  -0.46383  -0.46310  -0.46131
 Alpha  occ. eigenvalues --   -0.46108  -0.46019  -0.45772  -0.45523  -0.45354
 Alpha  occ. eigenvalues --   -0.45325  -0.45140  -0.44982  -0.44804  -0.44757
 Alpha  occ. eigenvalues --   -0.44622  -0.44526  -0.44491  -0.44448  -0.44255
 Alpha  occ. eigenvalues --   -0.44100  -0.43784  -0.43744  -0.43603  -0.43535
 Alpha  occ. eigenvalues --   -0.43436  -0.43197  -0.43171  -0.43024  -0.42311
 Alpha  occ. eigenvalues --   -0.42160  -0.41894  -0.41093  -0.40837  -0.40806
 Alpha  occ. eigenvalues --   -0.40342  -0.40283  -0.39907  -0.39905  -0.39883
 Alpha  occ. eigenvalues --   -0.39692  -0.39625  -0.39371  -0.38612  -0.38510
 Alpha  occ. eigenvalues --   -0.38331  -0.37765  -0.37490  -0.36805  -0.36315
 Alpha  occ. eigenvalues --   -0.36057  -0.35604  -0.34873  -0.34109  -0.33547
 Alpha  occ. eigenvalues --   -0.33509  -0.33392  -0.33234  -0.32681  -0.32455
 Alpha  occ. eigenvalues --   -0.32292  -0.32171  -0.32082  -0.26450  -0.25727
 Alpha  occ. eigenvalues --   -0.23588  -0.22739
 Alpha virt. eigenvalues --   -0.07820  -0.07015  -0.00047   0.00462   0.02189
 Alpha virt. eigenvalues --    0.02231   0.03990   0.04314   0.04885   0.05533
 Alpha virt. eigenvalues --    0.06169   0.07301   0.07370   0.07722   0.08014

 Mulliken charges:
               1
     1  Mg   0.972099
     2  C    0.037786
     3  C   -0.077990
     4  C   -0.047491
     5  C   -0.092681
     6  N   -0.359382
     7  C   -0.052039
     8  C   -0.053752
     9  C   -0.081857
    10  C    0.068464
    11  C    0.030583
    12  C    0.005278
    13  C   -0.116199
    14  H    0.047453
    15  N   -0.473432
    16  C    0.150686
    17  C   -0.148931
    18  C   -0.063326
    19  C    0.180326
    20  C    0.070736
    21  C    0.021624
    22  O   -0.276417
    23  C    0.023573
    24  N   -0.303324
    25  C    0.005131
    26  C   -0.045774
    27  C   -0.064871
    28  C    0.055327
    29  C    0.009307
    30  C   -0.002978
    31  C   -0.061566
    32  N   -0.466670
    33  C    0.108478
    34  C   -0.190568
    35  C   -0.079777
    36  C    0.147949
    37  C    0.086694
    38  C    0.122590
    39  O   -0.159131
    40  C   -0.057757
    41  C    0.245688
    42  O   -0.241310
    43  O   -0.390765
    44  C    0.139961
    45  H    0.005421
    46  H   -0.060291
    47  H    0.007129
    48  H    0.035491
    49  H    0.037821
    50  H    0.038329
    51  H    0.024597
    52  H    0.047453
    53  H    0.030595
    54  H    0.047539
    55  H    0.050754
    56  H    0.055277
    57  H    0.033549
    58  H    0.046978
    59  H    0.064900
    60  H    0.063089
    61  H    0.064138
    62  H    0.063567
    63  H    0.043438
    64  H    0.043253
    65  H    0.033466
    66  H    0.024525
    67  H    0.040348
    68  H    0.030921
    69  H    0.026619
    70  H    0.031416
    71  H    0.021004
    72  H    0.040058
    73  H    0.062498
    74  H    0.052163
    75  H    0.046641
    76  H    0.069782
    77  H    0.047358
    78  H    0.044033
    79  H    0.064396
    80  Mg   0.955751
    81  C   -0.016135
    82  C   -0.071819
    83  C   -0.061398
    84  C   -0.075310
    85  N   -0.370165
    86  C   -0.076370
    87  C   -0.019419
    88  C   -0.128142
    89  C    0.112507
    90  C    0.004145
    91  C    0.005535
    92  C   -0.087008
    93  H    0.042827
    94  N   -0.442715
    95  C    0.155605
    96  C   -0.170726
    97  C   -0.084715
    98  C    0.094787
    99  C    0.080250
   100  C    0.059010
   101  O   -0.231310
   102  C   -0.015702
   103  N   -0.372730
   104  C    0.091502
   105  C   -0.107496
   106  C   -0.062925
   107  C    0.055456
   108  C    0.009023
   109  C    0.009697
   110  C   -0.064284
   111  N   -0.405578
   112  C    0.114546
   113  C   -0.207840
   114  C   -0.016097
   115  C    0.137434
   116  C    0.069672
   117  C    0.119922
   118  O   -0.197018
   119  C   -0.033097
   120  C    0.261146
   121  O   -0.260668
   122  O   -0.368909
   123  C    0.150843
   124  H   -0.002637
   125  H    0.022801
   126  H   -0.004975
   127  H    0.035041
   128  H    0.041187
   129  H    0.033539
   130  H    0.028249
   131  H    0.049803
   132  H    0.019105
   133  H    0.026662
   134  H    0.050949
   135  H    0.056950
   136  H    0.044952
   137  H    0.041801
   138  H    0.050649
   139  H    0.068919
   140  H    0.058761
   141  H    0.044927
   142  H    0.042206
   143  H    0.041215
   144  H    0.028446
   145  H    0.042410
   146  H    0.055187
   147  H    0.035721
   148  H    0.040916
   149  H    0.024694
   150  H    0.026489
   151  H    0.047215
   152  H    0.017868
   153  H    0.060224
   154  H    0.049664
   155  H    0.082093
   156  H    0.045009
   157  H    0.058755
   158  H    0.053119
 Sum of Mulliken charges =  -0.00000

 Dipole moment (field-independent basis, Debye):
    X=              4.6797    Y=             -5.8787    Z=              3.6978  Tot=              8.3746
 Quadrupole moment (field-independent basis, Debye-Ang):
   XX=           -457.7261   YY=           -513.8204   ZZ=           -558.8405
   XY=              1.4579   XZ=             24.2605   YZ=             19.1996

 Normal termination of Gaussian 16 at Sun Sep 19 20:29:50 2021.
