 Gaussian 16, Revision A.03,
 Gaussian 16:  ES64L-G16RevA.03 25-Dec-2016

 --------------------------------
 #p wB97XD/Def2SVP td=(nstates=5)
 --------------------------------

 --------------------------------
 TDDFT excited states in gaussian
 --------------------------------
 Symbolic Z-matrix:
 Charge =  0 Multiplicity = 1

                         Standard orientation:
 ---------------------------------------------------------------------
 Center     Atomic      Atomic             Coordinates (Angstroms)
 Number     Number       Type             X           Y           Z
 ---------------------------------------------------------------------
      1         12           0      -25.400560    0.767402    0.409973
      2          6           0      -25.911947   -2.283831   -1.314112
      3          6           0      -25.414980   -1.157307    3.327829
      4          6           0      -24.814956    3.484827    2.157028
      5          6           0      -26.229052    2.510240   -2.482439
      6          7           0      -25.605618   -1.457104    0.890126
      7          6           0      -25.655446   -2.516869    0.035991
      8          6           0      -25.724320   -3.907179    0.690738
      9          6           0      -25.679650   -3.427944    2.229279
     10          6           0      -25.577679   -1.935934    2.112236
     11          6           0      -26.961981   -3.812434    3.068300
     12          6           0      -24.519957   -4.826064    0.303717
     13          6           0      -24.631676   -6.083904   -0.549012
     14          1           0      -23.756997   -7.301380   -0.280335
     15          7           0      -25.068179    1.139837    2.456887
     16          6           0      -25.185328    0.228777    3.516516
     17          6           0      -25.038191    0.975756    4.745719
     18          6           0      -24.703173    2.291409    4.435164
     19          6           0      -24.797132    2.340969    2.963072
     20          6           0      -25.026080    0.227020    6.034599
     21          6           0      -24.422266    3.501622    5.325199
     22          8           0      -24.166772    4.635544    4.908534
     23          6           0      -24.313305    3.254965    6.778385
     24          7           0      -25.597400    2.738723   -0.029868
     25          6           0      -25.094806    3.718973    0.780230
     26          6           0      -24.890594    5.054931   -0.011554
     27          6           0      -25.432093    4.718541   -1.394912
     28          6           0      -25.857837    3.227098   -1.298650
     29          6           0      -25.525860    6.300439    0.688687
     30          6           0      -24.348717    4.982057   -2.451794
     31          6           0      -24.738964    5.675548   -3.706147
     32          7           0      -26.059528    0.284418   -1.495798
     33          6           0      -26.329378    1.084135   -2.577436
     34          6           0      -26.676439    0.306221   -3.728995
     35          6           0      -26.439867   -1.105603   -3.351589
     36          6           0      -26.053507   -1.026924   -1.955768
     37          6           0      -27.134678    0.863549   -5.087577
     38          6           0      -26.450456   -2.528715   -3.774510
     39          8           0      -26.592719   -3.029020   -4.903147
     40          6           0      -26.099135   -3.328456   -2.452949
     41          6           0      -27.319399   -4.187793   -2.339551
     42          8           0      -28.390334   -3.925328   -1.805715
     43          8           0      -27.084884   -5.387995   -2.794944
     44          6           0      -28.201317   -6.354925   -2.929929
     45          1           0      -25.287590   -1.889360    4.127623
     46          1           0      -24.673840    4.464468    2.617670
     47          1           0      -26.416334    3.074107   -3.398247
     48          1           0      -26.699503   -4.334815    0.454485
     49          1           0      -24.821698   -3.718678    2.836281
     50          1           0      -27.848586   -4.113425    2.510905
     51          1           0      -27.274674   -2.963314    3.675006
     52          1           0      -26.697659   -4.627510    3.742258
     53          1           0      -24.088161   -5.173613    1.242400
     54          1           0      -23.766972   -4.252608   -0.235400
     55          1           0      -24.254782   -5.707439   -1.500085
     56          1           0      -25.700851   -6.289430   -0.495856
     57          1           0      -24.075649    0.330553    6.556292
     58          1           0      -25.198706   -0.837226    5.872365
     59          1           0      -25.784858    0.568173    6.738198
     60          1           0      -23.637447    2.418146    6.955060
     61          1           0      -25.238855    2.869456    7.206224
     62          1           0      -23.908105    4.090726    7.347946
     63          1           0      -23.805894    5.157796    0.014472
     64          1           0      -26.249885    5.384347   -1.670129
     65          1           0      -25.881599    6.111952    1.701509
     66          1           0      -26.382013    6.714649    0.157498
     67          1           0      -24.836514    7.142983    0.635697
     68          1           0      -24.003353    3.975900   -2.685989
     69          1           0      -23.515214    5.593469   -2.106917
     70          1           0      -24.416224    5.003190   -4.500706
     71          1           0      -24.322602    6.682657   -3.725641
     72          1           0      -25.813549    5.756564   -3.871278
     73          1           0      -28.220828    0.947338   -5.087467
     74          1           0      -26.775552    0.193810   -5.868825
     75          1           0      -26.758604    1.870893   -5.267591
     76          1           0      -25.218713   -3.930109   -2.677987
     77          1           0      -28.697059   -6.594122   -1.989755
     78          1           0      -27.923746   -7.291982   -3.412207
     79          1           0      -29.023108   -6.068245   -3.585397
     80         12           0       25.282287    0.467118   -0.397305
     81          6           0       26.448182   -1.888433    1.799882
     82          6           0       24.007498   -1.947528   -2.332186
     83          6           0       24.415488    2.885313   -2.579998
     84          6           0       27.131473    2.981969    1.466913
     85          7           0       25.487359   -1.739604   -0.383056
     86          6           0       25.893501   -2.488687    0.649167
     87          6           0       25.621632   -4.053279    0.359631
     88          6           0       24.822576   -3.942356   -0.992474
     89          6           0       24.782217   -2.435648   -1.318041
     90          6           0       25.368241   -4.851305   -2.110960
     91          6           0       24.834830   -4.773658    1.491138
     92          6           0       24.201331   -6.169219    1.181294
     93          1           0       24.933604   -7.446487    1.743125
     94          7           0       24.373653    0.460070   -2.249141
     95          6           0       23.835238   -0.593399   -2.827313
     96          6           0       23.183390   -0.166329   -4.056090
     97          6           0       23.365717    1.237211   -4.240758
     98          6           0       24.074508    1.589844   -2.990947
     99          6           0       22.554693   -1.088219   -5.087841
    100          6           0       22.993405    2.144996   -5.408400
    101          8           0       23.484697    3.264265   -5.521965
    102          6           0       22.020618    1.647572   -6.419532
    103          7           0       25.758889    2.628901   -0.551879
    104          6           0       25.237924    3.384333   -1.511429
    105          6           0       25.501312    4.880884   -1.275925
    106          6           0       26.162382    4.841579    0.099410
    107          6           0       26.389872    3.393655    0.326340
    108          6           0       26.292721    5.650895   -2.343546
    109          6           0       25.454696    5.663001    1.147169
    110          6           0       26.262193    6.870150    1.744469
    111          7           0       26.462305    0.575736    1.268619
    112          6           0       27.085270    1.659227    1.974275
    113          6           0       27.680576    1.203490    3.211194
    114          6           0       27.409032   -0.191247    3.140677
    115          6           0       26.700861   -0.498297    1.972006
    116          6           0       28.266107    1.947312    4.359318
    117          6           0       27.477731   -1.350860    3.993609
    118          8           0       27.770874   -1.532621    5.184778
    119          6           0       27.003325   -2.529237    3.180450
    120          6           0       28.227689   -3.402589    2.828209
    121          8           0       29.348107   -3.021177    2.456433
    122          8           0       27.862211   -4.706018    2.989586
    123          6           0       28.900069   -5.756253    2.740985
    124          1           0       23.444754   -2.621836   -2.981113
    125          1           0       24.355114    3.690730   -3.314925
    126          1           0       27.545374    3.809639    2.045685
    127          1           0       26.618657   -4.462865    0.201622
    128          1           0       23.789604   -4.221325   -0.784633
    129          1           0       24.505413   -5.302953   -2.599282
    130          1           0       25.966952   -5.671424   -1.714512
    131          1           0       25.958532   -4.277661   -2.825620
    132          1           0       23.948132   -4.160425    1.651721
    133          1           0       25.476481   -4.910980    2.361424
    134          1           0       24.275458   -6.315165    0.103165
    135          1           0       23.189241   -6.189271    1.584018
    136          1           0       22.617132   -2.131746   -4.779290
    137          1           0       23.073261   -0.978076   -6.039926
    138          1           0       21.506731   -0.847655   -5.262179
    139          1           0       21.180424    1.264020   -5.840008
    140          1           0       22.261442    0.869443   -7.143201
    141          1           0       21.666613    2.432704   -7.086755
    142          1           0       24.533881    5.375655   -1.197091
    143          1           0       27.143768    5.304315   -0.003275
    144          1           0       25.793020    6.618002   -2.393479
    145          1           0       26.319254    5.092685   -3.279274
    146          1           0       27.359140    5.739539   -2.136433
    147          1           0       25.336192    4.968659    1.978395
    148          1           0       24.504027    6.075724    0.810781
    149          1           0       27.258607    6.906424    1.303273
    150          1           0       26.372214    6.685985    2.813592
    151          1           0       25.763529    7.838158    1.693480
    152          1           0       28.084557    3.015755    4.245849
    153          1           0       29.344127    1.834192    4.250472
    154          1           0       27.780533    1.524558    5.240048
    155          1           0       26.310177   -3.047437    3.843379
    156          1           0       29.478133   -5.629709    1.825274
    157          1           0       28.523154   -6.777963    2.773470
    158          1           0       29.631149   -5.631868    3.539646
 ---------------------------------------------------------------------

 SCF Done:  E(RwB97XD) =  -4070.60528831     A.U. after   19 cycles

 Excitation energies and oscillator strengths:

 Excited State   1:      Singlet-A      1.6636 eV  745.28 nm  f=0.3986  <S**2>=0.000
     310 -> 316       -0.18171
     312 -> 313        0.68163
     310 <- 316       -0.11253
 This state for optimization and/or second-order correction.
 Total Energy, E(TD-HF/TD-DFT) =  -4070.54415208
 Copying the excited state density for this state as the 1-particle RhoCI density.

 Excited State   2:      Singlet-A      1.7237 eV  719.29 nm  f=0.3824  <S**2>=0.000
     309 -> 315       -0.18636
     311 -> 314        0.68177
     309 <- 315       -0.11196

 Excited State   3:      Singlet-A      2.1685 eV  571.75 nm  f=0.1026  <S**2>=0.000
     309 -> 314        0.63395
     311 -> 315        0.29501

 Excited State   4:      Singlet-A      2.2223 eV  557.92 nm  f=0.1096  <S**2>=0.000
     310 -> 313        0.63694
     312 -> 316        0.28924

 Excited State   5:      Singlet-A      3.4478 eV  359.61 nm  f=0.0932  <S**2>=0.000
     299 -> 314       -0.10547
     304 -> 314        0.24561
     305 -> 314       -0.18486
     308 -> 314        0.57295
     309 -> 314       -0.10008
     311 -> 315        0.18465

 The electronic state is 1-A.
 Alpha  occ. eigenvalues --  -46.95539 -46.94895 -19.30842 -19.30485 -19.24705
 Alpha  occ. eigenvalues --  -19.24585 -19.24399 -19.23900 -19.23127 -19.22747
 Alpha  occ. eigenvalues --  -14.47196 -14.46669 -14.46512 -14.46278 -14.44695
 Alpha  occ. eigenvalues --  -14.44486 -14.43889 -14.43570 -10.43417 -10.42472
 Alpha  occ. eigenvalues --  -10.40086 -10.40032 -10.39457 -10.37359 -10.35929
 Alpha  occ. eigenvalues --  -10.35776 -10.35731 -10.35698 -10.35492 -10.35307
 Alpha  occ. eigenvalues --  -10.35009 -10.34918 -10.34893 -10.34517 -10.34494
 Alpha  occ. eigenvalues --  -10.34442 -10.34357 -10.34034 -10.33987 -10.33688
 Alpha  occ. eigenvalues --  -10.33351 -10.33138 -10.32838 -10.32800 -10.32798
 Alpha  occ. eigenvalues --  -10.32742 -10.32735 -10.32674 -10.32442 -10.32388
 Alpha  occ. eigenvalues --  -10.32242 -10.32192 -10.32167 -10.32164 -10.32134
 Alpha  occ. eigenvalues --  -10.32047 -10.32032 -10.31813 -10.31775 -10.31672
 Alpha  occ. eigenvalues --  -10.31584 -10.31553 -10.31085 -10.31057 -10.31021
 Alpha  occ. eigenvalues --  -10.30980 -10.30730 -10.30722 -10.30616 -10.30450
 Alpha  occ. eigenvalues --  -10.30449 -10.30414 -10.30341 -10.30251 -10.30195
 Alpha  occ. eigenvalues --  -10.30126 -10.30046 -10.29924 -10.29754 -10.29725
 Alpha  occ. eigenvalues --  -10.29548 -10.29515 -10.29472 -10.29141 -10.28669
 Alpha  occ. eigenvalues --  -10.28439  -3.21508  -3.20924  -1.95088  -1.94622
 Alpha  occ. eigenvalues --   -1.94515  -1.94491  -1.94048  -1.93901  -1.19970
 Alpha  occ. eigenvalues --   -1.17730  -1.12623  -1.12386  -1.10595  -1.10194
 Alpha  occ. eigenvalues --   -1.08728  -1.08655  -1.07739  -1.07514  -1.06417
 Alpha  occ. eigenvalues --   -1.06139  -1.05914  -1.04992  -1.04802  -1.03354
 Alpha  occ. eigenvalues --   -0.93794  -0.93246  -0.91785  -0.91508  -0.90981
 Alpha  occ. eigenvalues --   -0.90713  -0.90593  -0.90108  -0.89727  -0.89507
 Alpha  occ. eigenvalues --   -0.89090  -0.88957  -0.88702  -0.87064  -0.86229
 Alpha  occ. eigenvalues --   -0.86114  -0.85378  -0.85228  -0.84793  -0.84689
 Alpha  occ. eigenvalues --   -0.84293  -0.84068  -0.83040  -0.82782  -0.82518
 Alpha  occ. eigenvalues --   -0.82010  -0.80814  -0.80502  -0.79481  -0.79430
 Alpha  occ. eigenvalues --   -0.78794  -0.78675  -0.78107  -0.78020  -0.77293
 Alpha  occ. eigenvalues --   -0.77147  -0.74638  -0.74212  -0.73825  -0.73670
 Alpha  occ. eigenvalues --   -0.71370  -0.71247  -0.71069  -0.70135  -0.69705
 Alpha  occ. eigenvalues --   -0.69613  -0.69585  -0.68989  -0.67792  -0.67780
 Alpha  occ. eigenvalues --   -0.67214  -0.66900  -0.66895  -0.66421  -0.66214
 Alpha  occ. eigenvalues --   -0.65911  -0.64626  -0.64385  -0.63036  -0.62739
 Alpha  occ. eigenvalues --   -0.61628  -0.61506  -0.60959  -0.60876  -0.60624
 Alpha  occ. eigenvalues --   -0.60483  -0.59988  -0.59795  -0.59662  -0.59374
 Alpha  occ. eigenvalues --   -0.58767  -0.58317  -0.57649  -0.57562  -0.57087
 Alpha  occ. eigenvalues --   -0.56950  -0.56471  -0.56234  -0.56142  -0.56068
 Alpha  occ. eigenvalues --   -0.55786  -0.55690  -0.55571  -0.55353  -0.54926
 Alpha  occ. eigenvalues --   -0.54745  -0.54607  -0.54511  -0.54488  -0.54122
 Alpha  occ. eigenvalues --   -0.54072  -0.53630  -0.53372  -0.53131  -0.53054
 Alpha  occ. eigenvalues --   -0.52653  -0.52575  -0.52457  -0.52431  -0.51993
 Alpha  occ. eigenvalues --   -0.51882  -0.51868  -0.51740  -0.51690  -0.51606
 Alpha  occ. eigenvalues --   -0.51410  -0.51281  -0.51064  -0.51001  -0.50888
 Alpha  occ. eigenvalues --   -0.50616  -0.50486  -0.50478  -0.50142  -0.50132
 Alpha  occ. eigenvalues --   -0.50033  -0.49764  -0.49751  -0.49625  -0.49352
 Alpha  occ. eigenvalues --   -0.49244  -0.48739  -0.48585  -0.48329  -0.48282
 Alpha  occ. eigenvalues --   -0.48080  -0.48029  -0.47885  -0.47787  -0.47547
 Alpha  occ. eigenvalues --   -0.47414  -0.47083  -0.46991  -0.46916  -0.46681
 Alpha  occ. eigenvalues --   -0.46572  -0.46442  -0.46334  -0.46321  -0.46223
 Alpha  occ. eigenvalues --   -0.46069  -0.45953  -0.45939  -0.45780  -0.45541
 Alpha  occ. eigenvalues --   -0.45192  -0.45025  -0.44847  -0.44768  -0.44721
 Alpha  occ. eigenvalues --   -0.44300  -0.44181  -0.43991  -0.43981  -0.43901
 Alpha  occ. eigenvalues --   -0.43763  -0.43647  -0.43458  -0.43322  -0.43169
 Alpha  occ. eigenvalues --   -0.43108  -0.42728  -0.42719  -0.42355  -0.42341
 Alpha  occ. eigenvalues --   -0.41993  -0.41750  -0.41428  -0.41193  -0.40995
 Alpha  occ. eigenvalues --   -0.40372  -0.40188  -0.39893  -0.39791  -0.39299
 Alpha  occ. eigenvalues --   -0.39185  -0.38725  -0.38690  -0.38385  -0.38214
 Alpha  occ. eigenvalues --   -0.37892  -0.37796  -0.36438  -0.36277  -0.36000
 Alpha  occ. eigenvalues --   -0.35576  -0.35544  -0.35166  -0.34150  -0.33931
 Alpha  occ. eigenvalues --   -0.33843  -0.33338  -0.32797  -0.32628  -0.32509
 Alpha  occ. eigenvalues --   -0.31961  -0.31823  -0.30846  -0.25884  -0.25845
 Alpha  occ. eigenvalues --   -0.23032  -0.22926
 Alpha virt. eigenvalues --   -0.06909  -0.06882   0.00036   0.00146   0.01833
 Alpha virt. eigenvalues --    0.02618   0.04146   0.04606   0.05063   0.05756
 Alpha virt. eigenvalues --    0.07471   0.07678   0.07821   0.08317   0.08518

 Mulliken charges:
               1
     1  Mg   0.972708
     2  C    0.039401
     3  C   -0.094868
     4  C   -0.084745
     5  C   -0.089008
     6  N   -0.280112
     7  C   -0.033589
     8  C   -0.039503
     9  C   -0.125392
    10  C    0.009731
    11  C    0.001845
    12  C   -0.006327
    13  C   -0.125665
    14  H    0.045844
    15  N   -0.445281
    16  C    0.189111
    17  C   -0.135115
    18  C   -0.078187
    19  C    0.174006
    20  C    0.050379
    21  C    0.084218
    22  O   -0.232481
    23  C   -0.006767
    24  N   -0.424772
    25  C    0.030578
    26  C   -0.065400
    27  C   -0.064798
    28  C    0.113747
    29  C    0.012627
    30  C   -0.040719
    31  C   -0.047862
    32  N   -0.454675
    33  C    0.145590
    34  C   -0.198910
    35  C   -0.045528
    36  C    0.123262
    37  C    0.077682
    38  C    0.112857
    39  O   -0.226551
    40  C   -0.112899
    41  C    0.233142
    42  O   -0.268653
    43  O   -0.310212
    44  C    0.148236
    45  H    0.001861
    46  H    0.016047
    47  H   -0.006150
    48  H    0.060653
    49  H    0.045608
    50  H    0.052701
    51  H    0.037791
    52  H    0.037502
    53  H    0.038493
    54  H    0.032691
    55  H    0.062049
    56  H    0.051860
    57  H    0.054675
    58  H    0.035503
    59  H    0.048442
    60  H    0.039611
    61  H    0.049818
    62  H    0.061295
    63  H    0.053966
    64  H    0.031686
    65  H    0.057297
    66  H    0.025286
    67  H    0.035167
    68  H    0.036532
    69  H    0.031238
    70  H    0.037257
    71  H    0.043614
    72  H    0.025496
    73  H    0.056371
    74  H    0.061397
    75  H    0.025340
    76  H    0.075608
    77  H    0.050776
    78  H    0.052457
    79  H    0.053114
    80  Mg   0.970541
    81  C   -0.074865
    82  C   -0.078834
    83  C   -0.049518
    84  C   -0.066333
    85  N   -0.355583
    86  C   -0.026165
    87  C   -0.008686
    88  C   -0.153487
    89  C    0.120051
    90  C    0.024344
    91  C   -0.009771
    92  C   -0.131337
    93  H    0.015029
    94  N   -0.438417
    95  C    0.116734
    96  C   -0.187031
    97  C   -0.059057
    98  C    0.130989
    99  C    0.069631
   100  C    0.087657
   101  O   -0.227296
   102  C   -0.033258
   103  N   -0.274115
   104  C   -0.007277
   105  C   -0.114767
   106  C   -0.055422
   107  C    0.009602
   108  C    0.036088
   109  C    0.000435
   110  C   -0.068107
   111  N   -0.456974
   112  C    0.123448
   113  C   -0.170414
   114  C   -0.077035
   115  C    0.205989
   116  C    0.109171
   117  C    0.102757
   118  O   -0.239426
   119  C   -0.055641
   120  C    0.293587
   121  O   -0.266021
   122  O   -0.365203
   123  C    0.138553
   124  H   -0.019862
   125  H    0.029558
   126  H    0.004088
   127  H    0.040415
   128  H    0.037077
   129  H    0.034007
   130  H    0.041474
   131  H    0.049663
   132  H    0.031937
   133  H    0.073493
   134  H    0.048333
   135  H    0.065639
   136  H    0.031739
   137  H    0.051459
   138  H    0.041236
   139  H    0.048754
   140  H    0.063196
   141  H    0.052464
   142  H    0.038862
   143  H    0.021331
   144  H    0.046529
   145  H    0.044292
   146  H    0.029780
   147  H    0.030500
   148  H    0.036916
   149  H    0.033099
   150  H    0.033426
   151  H    0.041974
   152  H    0.019316
   153  H    0.065421
   154  H    0.081069
   155  H    0.069618
   156  H    0.058582
   157  H    0.063581
   158  H    0.056470
 Sum of Mulliken charges =  -0.00000

 Dipole moment (field-independent basis, Debye):
    X=             -2.1860    Y=             -1.1451    Z=              1.7103  Tot=              3.0025
 Quadrupole moment (field-independent basis, Debye-Ang):
   XX=           -820.5194   YY=           -460.0362   ZZ=           -521.4944
   XY=              2.6936   XZ=           -208.5657   YZ=             -4.5291

 Normal termination of Gaussian 16 at Mon Sep 20 13:21:02 2021.
