 Gaussian 16, Revision A.03,
 Gaussian 16:  ES64L-G16RevA.03 25-Dec-2016

 --------------------------------
 #p wB97XD/Def2SVP td=(nstates=5)
 --------------------------------

 --------------------------------
 TDDFT excited states in gaussian
 --------------------------------
 Symbolic Z-matrix:
 Charge =  0 Multiplicity = 1

                         Standard orientation:
 ---------------------------------------------------------------------
 Center     Atomic      Atomic             Coordinates (Angstroms)
 Number     Number       Type             X           Y           Z
 ---------------------------------------------------------------------
      1         12           0      -21.705616    0.216528   -0.193599
      2          6           0      -18.273022    0.981305   -0.488209
      3          6           0      -21.489175   -1.628113   -3.146247
      4          6           0      -24.638225   -1.287795    0.673119
      5          6           0      -21.549794    1.716642    3.055283
      6          7           0      -20.096309   -0.213823   -1.620289
      7          6           0      -18.804741    0.167598   -1.527055
      8          6           0      -17.945193   -0.476989   -2.662778
      9          6           0      -19.101395   -0.962868   -3.652638
     10          6           0      -20.384414   -0.914285   -2.761237
     11          6           0      -19.425210   -0.173438   -4.941302
     12          6           0      -17.081099   -1.642556   -2.048755
     13          6           0      -15.668999   -1.785173   -2.681455
     14          1           0      -15.175460   -3.269655   -2.923083
     15          7           0      -23.041183   -1.140346   -1.221283
     16          6           0      -22.746978   -1.713289   -2.430079
     17          6           0      -23.875002   -2.481285   -2.798787
     18          6           0      -24.803503   -2.490848   -1.715771
     19          6           0      -24.218565   -1.571232   -0.683255
     20          6           0      -24.016291   -3.245552   -4.093925
     21          6           0      -26.008903   -3.357093   -1.578410
     22          8           0      -26.280955   -4.219320   -2.398349
     23          6           0      -26.922210   -3.326430   -0.465865
     24          7           0      -22.860049    0.154671    1.701473
     25          6           0      -24.135876   -0.428253    1.691629
     26          6           0      -24.878127   -0.091173    2.946912
     27          6           0      -23.888082    0.818492    3.764383
     28          6           0      -22.698966    0.919602    2.824699
     29          6           0      -26.202759    0.588031    2.576381
     30          6           0      -23.684405    0.353887    5.255590
     31          6           0      -23.998066    1.354914    6.325896
     32          7           0      -20.231399    1.215891    1.080265
     33          6           0      -20.364888    1.794935    2.318340
     34          6           0      -19.136056    2.536979    2.676218
     35          6           0      -18.292923    2.158113    1.598050
     36          6           0      -19.016405    1.455940    0.652404
     37          6           0      -18.801927    3.300840    3.947931
     38          6           0      -16.921774    2.195951    1.163667
     39          8           0      -15.923261    2.678592    1.720343
     40          6           0      -16.808563    1.482561   -0.183339
     41          6           0      -16.221102    2.365260   -1.208443
     42          8           0      -15.229138    2.095983   -1.782971
     43          8           0      -17.029009    3.406904   -1.562345
     44          6           0      -16.504693    4.091137   -2.764189
     45          1           0      -21.478506   -2.149803   -4.105988
     46          1           0      -25.620718   -1.730474    0.844331
     47          1           0      -21.302594    2.184773    4.010969
     48          1           0      -17.308073    0.299730   -3.086088
     49          1           0      -19.137327   -2.036925   -3.834149
     50          1           0      -19.138517    0.872638   -4.827575
     51          1           0      -20.457083   -0.216425   -5.290004
     52          1           0      -18.783072   -0.596902   -5.712861
     53          1           0      -17.619574   -2.589540   -2.095373
     54          1           0      -16.984498   -1.382630   -0.994572
     55          1           0      -15.021565   -1.281753   -1.963258
     56          1           0      -15.745718   -1.166418   -3.575797
     57          1           0      -25.033290   -3.479808   -4.408729
     58          1           0      -23.456387   -4.161648   -3.907789
     59          1           0      -23.423327   -2.890937   -4.937004
     60          1           0      -27.354715   -2.325361   -0.442615
     61          1           0      -26.419871   -3.593574    0.464304
     62          1           0      -27.703809   -4.065626   -0.641588
     63          1           0      -24.994887   -0.975743    3.572557
     64          1           0      -24.074498    1.892655    3.767401
     65          1           0      -26.471181    0.465284    1.526823
     66          1           0      -26.164902    1.664548    2.743052
     67          1           0      -27.029389    0.044161    3.032570
     68          1           0      -22.637113    0.055968    5.305982
     69          1           0      -24.355273   -0.446787    5.564825
     70          1           0      -23.109697    1.443730    6.950627
     71          1           0      -24.801030    1.012878    6.979125
     72          1           0      -24.381509    2.297103    5.934173
     73          1           0      -18.459384    2.649779    4.752479
     74          1           0      -19.611911    3.948024    4.286699
     75          1           0      -17.917612    3.851751    3.627885
     76          1           0      -16.071710    0.683445   -0.113266
     77          1           0      -17.184970    4.909504   -3.001419
     78          1           0      -16.429273    3.396841   -3.600953
     79          1           0      -15.564159    4.617939   -2.606760
     80         12           0       20.768016   -0.874995    0.283984
     81          6           0       21.538753    2.492764   -0.331836
     82          6           0       17.887114   -0.023527    1.732056
     83          6           0       20.271019   -4.024825    0.836419
     84          6           0       24.271293   -1.524002   -0.344122
     85          7           0       19.913308    1.052584    0.726929
     86          6           0       20.262978    2.261261    0.269065
     87          6           0       19.334423    3.341115    0.761545
     88          6           0       18.401872    2.553741    1.767107
     89          6           0       18.724856    1.120428    1.391753
     90          6           0       18.555612    2.830234    3.297946
     91          6           0       18.453692    3.928466   -0.456142
     92          6           0       18.419969    5.491310   -0.502290
     93          1           0       17.795693    6.033993   -1.899488
     94          7           0       19.221534   -1.870534    0.913653
     95          6           0       18.055814   -1.356513    1.455536
     96          6           0       17.098660   -2.422208    1.570481
     97          6           0       17.742114   -3.693960    1.278523
     98          6           0       19.129861   -3.250470    0.870082
     99          6           0       15.681089   -2.102534    2.126033
    100          6           0       17.317612   -5.158092    1.273019
    101          8           0       18.005366   -6.124955    0.898276
    102          6           0       15.895107   -5.341296    1.668283
    103          7           0       22.166072   -2.445949    0.382584
    104          6           0       21.616513   -3.674992    0.652176
    105          6           0       22.701548   -4.746487    0.765198
    106          6           0       23.903070   -4.035263    0.089250
    107          6           0       23.472082   -2.567289    0.086736
    108          6           0       22.844137   -5.214942    2.267650
    109          6           0       24.291455   -4.548544   -1.362049
    110          6           0       25.740361   -4.309294   -1.815955
    111          7           0       22.567430    0.213241   -0.271081
    112          6           0       23.848565   -0.201307   -0.475643
    113          6           0       24.675330    0.878196   -0.967001
    114          6           0       23.752772    1.940276   -0.984154
    115          6           0       22.509598    1.512367   -0.496689
    116          6           0       26.163094    0.938400   -1.383083
    117          6           0       23.626189    3.328673   -1.329553
    118          8           0       24.332589    4.101445   -1.922353
    119          6           0       22.187833    3.775255   -0.743598
    120          6           0       21.679839    4.582729   -1.855805
    121          8           0       21.106758    4.207315   -2.909698
    122          8           0       21.971468    5.852144   -1.523553
    123          6           0       21.619729    6.913777   -2.467624
    124          1           0       16.902703    0.240292    2.124589
    125          1           0       20.088915   -5.095859    0.948561
    126          1           0       25.294485   -1.794905   -0.612720
    127          1           0       19.823905    4.201874    1.218024
    128          1           0       17.329382    2.635337    1.589444
    129          1           0       18.991981    1.940772    3.752379
    130          1           0       17.538421    2.974729    3.661592
    131          1           0       19.182218    3.661706    3.618715
    132          1           0       17.430253    3.557984   -0.525504
    133          1           0       18.864055    3.487717   -1.364749
    134          1           0       19.425330    5.898754   -0.397812
    135          1           0       17.777910    5.963907    0.240633
    136          1           0       15.039769   -1.853530    1.281692
    137          1           0       15.621605   -1.148897    2.652007
    138          1           0       15.281297   -2.776556    2.883275
    139          1           0       15.175032   -4.850663    1.014355
    140          1           0       15.895354   -4.961089    2.690551
    141          1           0       15.593757   -6.386073    1.749089
    142          1           0       22.333695   -5.587564    0.177365
    143          1           0       24.798485   -4.196984    0.689330
    144          1           0       23.766233   -4.824571    2.698106
    145          1           0       22.883239   -6.282735    2.481472
    146          1           0       22.111664   -4.824664    2.974547
    147          1           0       23.702951   -3.897453   -2.009026
    148          1           0       24.078309   -5.590147   -1.603290
    149          1           0       25.799356   -3.607554   -2.648943
    150          1           0       26.347557   -5.159759   -2.126667
    151          1           0       26.212548   -3.773413   -0.993759
    152          1           0       26.652135    0.126586   -0.844658
    153          1           0       26.604871    1.901442   -1.123783
    154          1           0       26.188177    0.739250   -2.454390
    155          1           0       22.331093    4.432432    0.114311
    156          1           0       20.806484    7.499840   -2.039887
    157          1           0       21.445785    6.531351   -3.472841
    158          1           0       22.453026    7.614710   -2.515114
 ---------------------------------------------------------------------

 SCF Done:  E(RwB97XD) =  -4070.57556446     A.U. after   20 cycles

 Excitation energies and oscillator strengths:

 Excited State   1:      Singlet-A      1.6192 eV  765.73 nm  f=0.4113  <S**2>=0.000
     309 -> 315        0.17887
     311 -> 313        0.68464
     309 <- 315        0.11647
 This state for optimization and/or second-order correction.
 Total Energy, E(TD-HF/TD-DFT) =  -4070.51606122
 Copying the excited state density for this state as the 1-particle RhoCI density.

 Excited State   2:      Singlet-A      1.6708 eV  742.07 nm  f=0.3747  <S**2>=0.000
     310 -> 316        0.20301
     312 -> 314        0.67877
     310 <- 316        0.12001

 Excited State   3:      Singlet-A      2.1452 eV  577.97 nm  f=0.1102  <S**2>=0.000
     309 -> 313        0.63986
     311 -> 315       -0.28461

 Excited State   4:      Singlet-A      2.1931 eV  565.33 nm  f=0.0609  <S**2>=0.000
     310 -> 314        0.61590
     312 -> 316       -0.33612

 Excited State   5:      Singlet-A      3.2202 eV  385.02 nm  f=0.0034  <S**2>=0.000
     303 -> 313       -0.13533
     306 -> 313       -0.11734
     308 -> 313        0.65570
     308 -> 318       -0.10337

 The electronic state is 1-A.
 Alpha  occ. eigenvalues --  -46.97192 -46.93892 -19.30379 -19.30052 -19.24886
 Alpha  occ. eigenvalues --  -19.24700 -19.24038 -19.23982 -19.23372 -19.22338
 Alpha  occ. eigenvalues --  -14.47638 -14.47309 -14.47151 -14.46282 -14.44512
 Alpha  occ. eigenvalues --  -14.44063 -14.43928 -14.42965 -10.42603 -10.42393
 Alpha  occ. eigenvalues --  -10.39956 -10.38861 -10.38631 -10.37435 -10.36337
 Alpha  occ. eigenvalues --  -10.36043 -10.35915 -10.35728 -10.35611 -10.35166
 Alpha  occ. eigenvalues --  -10.35128 -10.35036 -10.34794 -10.34711 -10.34639
 Alpha  occ. eigenvalues --  -10.34274 -10.34224 -10.34219 -10.34120 -10.33897
 Alpha  occ. eigenvalues --  -10.33555 -10.33425 -10.33192 -10.33146 -10.33141
 Alpha  occ. eigenvalues --  -10.33105 -10.32794 -10.32760 -10.32660 -10.32613
 Alpha  occ. eigenvalues --  -10.32529 -10.32523 -10.32383 -10.32311 -10.32228
 Alpha  occ. eigenvalues --  -10.31960 -10.31875 -10.31853 -10.31763 -10.31746
 Alpha  occ. eigenvalues --  -10.31727 -10.31650 -10.31616 -10.31605 -10.31586
 Alpha  occ. eigenvalues --  -10.31304 -10.31009 -10.30936 -10.30790 -10.30767
 Alpha  occ. eigenvalues --  -10.30730 -10.30491 -10.30417 -10.30327 -10.30322
 Alpha  occ. eigenvalues --  -10.30283 -10.30232 -10.29897 -10.29838 -10.29701
 Alpha  occ. eigenvalues --  -10.29595 -10.29566 -10.29194 -10.29161 -10.29160
 Alpha  occ. eigenvalues --  -10.28448  -3.22836  -3.20135  -1.96429  -1.95928
 Alpha  occ. eigenvalues --   -1.95788  -1.93717  -1.93280  -1.93125  -1.20179
 Alpha  occ. eigenvalues --   -1.18086  -1.12973  -1.11755  -1.11596  -1.11298
 Alpha  occ. eigenvalues --   -1.11257  -1.07689  -1.07208  -1.07168  -1.06281
 Alpha  occ. eigenvalues --   -1.05783  -1.05582  -1.05474  -1.04594  -1.04438
 Alpha  occ. eigenvalues --   -0.94670  -0.94661  -0.91321  -0.91026  -0.90989
 Alpha  occ. eigenvalues --   -0.90156  -0.90091  -0.89993  -0.89867  -0.89344
 Alpha  occ. eigenvalues --   -0.89029  -0.88899  -0.88183  -0.87787  -0.86817
 Alpha  occ. eigenvalues --   -0.86632  -0.86421  -0.85701  -0.84667  -0.84433
 Alpha  occ. eigenvalues --   -0.84358  -0.84136  -0.83201  -0.82927  -0.82558
 Alpha  occ. eigenvalues --   -0.82212  -0.80646  -0.80153  -0.79590  -0.79205
 Alpha  occ. eigenvalues --   -0.78838  -0.78795  -0.78448  -0.77818  -0.77397
 Alpha  occ. eigenvalues --   -0.77290  -0.75191  -0.74743  -0.74533  -0.74083
 Alpha  occ. eigenvalues --   -0.71396  -0.71234  -0.71191  -0.70687  -0.69963
 Alpha  occ. eigenvalues --   -0.69817  -0.69166  -0.68884  -0.68327  -0.67956
 Alpha  occ. eigenvalues --   -0.67688  -0.67433  -0.67046  -0.66848  -0.66687
 Alpha  occ. eigenvalues --   -0.66407  -0.65351  -0.63725  -0.62230  -0.62127
 Alpha  occ. eigenvalues --   -0.62063  -0.61761  -0.61114  -0.61025  -0.60906
 Alpha  occ. eigenvalues --   -0.60588  -0.60316  -0.59957  -0.59089  -0.59077
 Alpha  occ. eigenvalues --   -0.58489  -0.58291  -0.58063  -0.57816  -0.57575
 Alpha  occ. eigenvalues --   -0.57410  -0.57115  -0.56547  -0.56255  -0.55812
 Alpha  occ. eigenvalues --   -0.55531  -0.55352  -0.55346  -0.55143  -0.55129
 Alpha  occ. eigenvalues --   -0.54808  -0.54726  -0.54603  -0.54458  -0.54244
 Alpha  occ. eigenvalues --   -0.54117  -0.53710  -0.53493  -0.53472  -0.53317
 Alpha  occ. eigenvalues --   -0.53305  -0.52948  -0.52859  -0.52645  -0.52281
 Alpha  occ. eigenvalues --   -0.52090  -0.52003  -0.51918  -0.51821  -0.51575
 Alpha  occ. eigenvalues --   -0.51327  -0.51273  -0.51066  -0.50984  -0.50810
 Alpha  occ. eigenvalues --   -0.50600  -0.50368  -0.50358  -0.50140  -0.50051
 Alpha  occ. eigenvalues --   -0.49897  -0.49495  -0.49291  -0.49285  -0.49157
 Alpha  occ. eigenvalues --   -0.48976  -0.48782  -0.48745  -0.48657  -0.48380
 Alpha  occ. eigenvalues --   -0.48304  -0.48284  -0.48226  -0.47809  -0.47715
 Alpha  occ. eigenvalues --   -0.47618  -0.47426  -0.47130  -0.47072  -0.47035
 Alpha  occ. eigenvalues --   -0.46835  -0.46819  -0.46671  -0.46334  -0.46027
 Alpha  occ. eigenvalues --   -0.45931  -0.45657  -0.45563  -0.45471  -0.45383
 Alpha  occ. eigenvalues --   -0.45337  -0.44980  -0.44960  -0.44851  -0.44778
 Alpha  occ. eigenvalues --   -0.44748  -0.44583  -0.44559  -0.44376  -0.44129
 Alpha  occ. eigenvalues --   -0.43992  -0.43841  -0.43733  -0.43333  -0.43226
 Alpha  occ. eigenvalues --   -0.43121  -0.42935  -0.42679  -0.42675  -0.42433
 Alpha  occ. eigenvalues --   -0.42170  -0.42095  -0.41575  -0.41471  -0.41164
 Alpha  occ. eigenvalues --   -0.40696  -0.40620  -0.39958  -0.39738  -0.39695
 Alpha  occ. eigenvalues --   -0.39431  -0.39276  -0.38972  -0.38915  -0.38367
 Alpha  occ. eigenvalues --   -0.37483  -0.37185  -0.36943  -0.36166  -0.36123
 Alpha  occ. eigenvalues --   -0.35942  -0.35787  -0.34927  -0.33747  -0.33688
 Alpha  occ. eigenvalues --   -0.33470  -0.33014  -0.32642  -0.32588  -0.32432
 Alpha  occ. eigenvalues --   -0.31942  -0.31742  -0.31362  -0.26461  -0.26087
 Alpha  occ. eigenvalues --   -0.23400  -0.22900
 Alpha virt. eigenvalues --   -0.07790  -0.06755  -0.00375  -0.00364   0.01784
 Alpha virt. eigenvalues --    0.02297   0.04380   0.04516   0.04592   0.06250
 Alpha virt. eigenvalues --    0.07241   0.07406   0.07632   0.07969   0.08175

 Mulliken charges:
               1
     1  Mg   0.930297
     2  C   -0.012494
     3  C   -0.078849
     4  C   -0.029733
     5  C   -0.055207
     6  N   -0.359330
     7  C   -0.011303
     8  C   -0.090452
     9  C   -0.100352
    10  C    0.079424
    11  C    0.032984
    12  C    0.011783
    13  C   -0.106980
    14  H    0.041696
    15  N   -0.446520
    16  C    0.131798
    17  C   -0.166285
    18  C   -0.071300
    19  C    0.121588
    20  C    0.092310
    21  C   -0.000469
    22  O   -0.245855
    23  C    0.011444
    24  N   -0.354162
    25  C    0.049164
    26  C   -0.068710
    27  C   -0.054117
    28  C    0.053396
    29  C    0.028785
    30  C   -0.008419
    31  C   -0.059099
    32  N   -0.367857
    33  C    0.038720
    34  C   -0.158708
    35  C   -0.038458
    36  C    0.117473
    37  C    0.062064
    38  C    0.094474
    39  O   -0.225796
    40  C   -0.017489
    41  C    0.221555
    42  O   -0.212655
    43  O   -0.366511
    44  C    0.140042
    45  H    0.006094
    46  H   -0.031074
    47  H   -0.001370
    48  H    0.037975
    49  H    0.035494
    50  H    0.032296
    51  H    0.046146
    52  H    0.040172
    53  H    0.042489
    54  H    0.036081
    55  H    0.065920
    56  H    0.053281
    57  H    0.070813
    58  H    0.039826
    59  H    0.017368
    60  H    0.051104
    61  H    0.064292
    62  H    0.052298
    63  H    0.048004
    64  H    0.037682
    65  H    0.035152
    66  H    0.041440
    67  H    0.037095
    68  H    0.041940
    69  H    0.039589
    70  H    0.042321
    71  H    0.030783
    72  H    0.033003
    73  H    0.064805
    74  H    0.051581
    75  H    0.065741
    76  H    0.062021
    77  H    0.046771
    78  H    0.053350
    79  H    0.057628
    80  Mg   0.994346
    81  C    0.048612
    82  C   -0.082980
    83  C   -0.068772
    84  C   -0.108764
    85  N   -0.341542
    86  C    0.045955
    87  C   -0.121761
    88  C   -0.075804
    89  C    0.029370
    90  C    0.026871
    91  C    0.024072
    92  C   -0.140411
    93  H    0.018731
    94  N   -0.559132
    95  C    0.189842
    96  C   -0.126386
    97  C   -0.130532
    98  C    0.181182
    99  C    0.043780
   100  C    0.089152
   101  O   -0.240705
   102  C   -0.020764
   103  N   -0.364083
   104  C    0.073073
   105  C   -0.083646
   106  C   -0.059650
   107  C    0.063215
   108  C    0.017238
   109  C   -0.011428
   110  C   -0.064780
   111  N   -0.360450
   112  C    0.130719
   113  C   -0.202747
   114  C   -0.018005
   115  C    0.092248
   116  C    0.097865
   117  C    0.101717
   118  O   -0.185155
   119  C   -0.133284
   120  C    0.263432
   121  O   -0.285007
   122  O   -0.350095
   123  C    0.138310
   124  H   -0.014377
   125  H    0.026612
   126  H   -0.019376
   127  H    0.037164
   128  H    0.028962
   129  H    0.042184
   130  H    0.037631
   131  H    0.042974
   132  H    0.031595
   133  H    0.058103
   134  H    0.053220
   135  H    0.056622
   136  H    0.054161
   137  H    0.028174
   138  H    0.054191
   139  H    0.074622
   140  H    0.050209
   141  H    0.047512
   142  H    0.043282
   143  H    0.027303
   144  H    0.021154
   145  H    0.043972
   146  H    0.041031
   147  H    0.036423
   148  H    0.043284
   149  H    0.035198
   150  H    0.044599
   151  H    0.027529
   152  H    0.034162
   153  H    0.066230
   154  H    0.064413
   155  H    0.073456
   156  H    0.048568
   157  H    0.075969
   158  H    0.049397
 Sum of Mulliken charges =  -0.00000

 Dipole moment (field-independent basis, Debye):
    X=             -6.6524    Y=              2.1297    Z=              5.6898  Tot=              9.0091
 Quadrupole moment (field-independent basis, Debye-Ang):
   XX=           -453.9229   YY=           -522.3248   ZZ=           -490.2368
   XY=            -99.3710   XZ=             19.4868   YZ=             -1.4418

 Normal termination of Gaussian 16 at Sat Sep 18 22:10:47 2021.
