 Gaussian 16, Revision A.03,
 Gaussian 16:  ES64L-G16RevA.03 25-Dec-2016

 --------------------------------
 #p wB97XD/Def2SVP td=(nstates=5)
 --------------------------------

 --------------------------------
 TDDFT excited states in gaussian
 --------------------------------
 Symbolic Z-matrix:
 Charge =  0 Multiplicity = 1

                         Standard orientation:
 ---------------------------------------------------------------------
 Center     Atomic      Atomic             Coordinates (Angstroms)
 Number     Number       Type             X           Y           Z
 ---------------------------------------------------------------------
      1         12           0      -32.449972   -0.277871   -0.189898
      2          6           0      -29.430708    1.476054    0.053148
      3          6           0      -30.814219   -2.861247    1.426009
      4          6           0      -35.366999   -1.895149   -0.058122
      5          6           0      -34.087174    2.698257   -1.016107
      6          7           0      -30.273515   -0.531548    0.852507
      7          6           0      -29.215393    0.285379    0.688546
      8          6           0      -27.950142   -0.228232    1.332726
      9          6           0      -28.415196   -1.727786    1.472703
     10          6           0      -29.930249   -1.756584    1.299149
     11          6           0      -27.776327   -2.587434    0.349474
     12          6           0      -27.586776    0.588241    2.579448
     13          6           0      -28.698465    1.055403    3.541938
     14          1           0      -28.456291    0.783906    5.021980
     15          7           0      -33.011126   -2.098995    0.553988
     16          6           0      -32.158280   -3.041716    1.063938
     17          6           0      -32.816156   -4.353923    1.014568
     18          6           0      -34.218296   -4.102171    0.732642
     19          6           0      -34.226250   -2.650066    0.378020
     20          6           0      -32.144867   -5.667111    1.571892
     21          6           0      -35.364757   -5.114544    0.794258
     22          8           0      -35.141366   -6.280448    0.966079
     23          6           0      -36.781041   -4.658807    0.591975
     24          7           0      -34.500692    0.434707   -0.300922
     25          6           0      -35.584728   -0.462213   -0.328187
     26          6           0      -36.969496    0.249113   -0.637580
     27          6           0      -36.483336    1.731715   -1.003823
     28          6           0      -34.902826    1.619756   -0.802868
     29          6           0      -37.986187   -0.382559   -1.714213
     30          6           0      -37.143544    2.942891   -0.199980
     31          6           0      -37.274939    4.240729   -1.140384
     32          7           0      -31.921859    1.719863   -0.502323
     33          6           0      -32.685890    2.789994   -0.921451
     34          6           0      -31.816763    3.938478   -1.147010
     35          6           0      -30.496590    3.508850   -0.854578
     36          6           0      -30.624563    2.152307   -0.383883
     37          6           0      -32.212752    5.257700   -1.756705
     38          6           0      -29.046507    3.858369   -0.703197
     39          8           0      -28.483973    4.925415   -0.808408
     40          6           0      -28.354086    2.532047   -0.171853
     41          6           0      -27.349806    2.125227   -1.214915
     42          8           0      -26.232034    2.678500   -1.367477
     43          8           0      -27.786658    0.976309   -1.858278
     44          6           0      -26.831404    0.349052   -2.709190
     45          1           0      -30.276780   -3.710910    1.852457
     46          1           0      -36.334303   -2.365279   -0.248412
     47          1           0      -34.581679    3.562211   -1.465281
     48          1           0      -27.118757   -0.250245    0.628410
     49          1           0      -28.198507   -2.244006    2.406956
     50          1           0      -28.512623   -3.354348    0.107813
     51          1           0      -26.796778   -2.951411    0.656252
     52          1           0      -27.640387   -2.152085   -0.641021
     53          1           0      -27.165704    1.520667    2.204706
     54          1           0      -26.831244    0.034576    3.137009
     55          1           0      -29.619806    0.526851    3.298513
     56          1           0      -28.791964    2.137065    3.449535
     57          1           0      -32.145582   -5.761369    2.658149
     58          1           0      -31.118773   -5.732878    1.209926
     59          1           0      -32.541620   -6.606895    1.189568
     60          1           0      -37.499523   -5.448597    0.813747
     61          1           0      -36.976023   -4.298746   -0.418390
     62          1           0      -36.895510   -3.931428    1.396103
     63          1           0      -37.411252    0.213522    0.357545
     64          1           0      -36.632794    1.941079   -2.062642
     65          1           0      -38.644714   -1.060013   -1.171863
     66          1           0      -37.454004   -0.910763   -2.504858
     67          1           0      -38.539975    0.431363   -2.182582
     68          1           0      -36.482891    3.292641    0.593232
     69          1           0      -38.094525    2.647881    0.244221
     70          1           0      -36.695016    5.072831   -0.740933
     71          1           0      -38.320300    4.543197   -1.194965
     72          1           0      -36.873487    4.203573   -2.152495
     73          1           0      -32.990791    5.702033   -1.136883
     74          1           0      -32.616468    5.091915   -2.755750
     75          1           0      -31.386221    5.967609   -1.783310
     76          1           0      -27.771767    2.868854    0.685510
     77          1           0      -27.244499   -0.587852   -3.082204
     78          1           0      -25.860953    0.265149   -2.219714
     79          1           0      -26.684929    0.901634   -3.637213
     80         12           0       32.447015    0.317070   -0.294746
     81          6           0       29.731851   -1.728150    0.352163
     82          6           0       30.867397    2.899132    1.379028
     83          6           0       35.383905    1.981255   -0.293586
     84          6           0       34.011517   -2.536713   -1.653386
     85          7           0       30.623876    0.462197    0.998847
     86          6           0       29.639785   -0.437666    0.917413
     87          6           0       28.438157    0.002339    1.809698
     88          6           0       28.689708    1.581211    1.900959
     89          6           0       30.149891    1.703727    1.319146
     90          6           0       27.581087    2.409485    1.207830
     91          6           0       28.541833   -0.625057    3.181208
     92          6           0       27.232201   -1.116791    3.777590
     93          1           0       26.894535   -0.995881    5.311374
     94          7           0       32.962217    2.297139    0.315703
     95          6           0       32.237440    3.171534    1.034655
     96          6           0       33.021676    4.353327    1.191185
     97          6           0       34.289478    4.184867    0.556219
     98          6           0       34.269672    2.784880    0.114528
     99          6           0       32.445889    5.600482    1.752781
    100          6           0       35.386785    5.187934    0.603052
    101          8           0       35.200783    6.276554    1.120961
    102          6           0       36.739652    4.922626   -0.046520
    103          7           0       34.475838   -0.221012   -1.002451
    104          6           0       35.489482    0.665206   -0.794122
    105          6           0       36.813425    0.022412   -1.052182
    106          6           0       36.348856   -1.447793   -1.485811
    107          6           0       34.840498   -1.443732   -1.460868
    108          6           0       37.706485    0.765740   -2.063127
    109          6           0       36.972931   -2.651447   -0.649936
    110          6           0       37.658707   -3.836210   -1.370120
    111          7           0       32.004932   -1.677424   -0.622300
    112          6           0       32.695362   -2.674507   -1.236614
    113          6           0       31.836226   -3.727530   -1.553729
    114          6           0       30.611106   -3.426271   -0.975158
    115          6           0       30.784698   -2.211382   -0.360919
    116          6           0       32.269727   -5.030022   -2.288152
    117          6           0       29.302882   -3.843459   -0.775247
    118          8           0       28.802537   -4.925202   -1.062717
    119          6           0       28.577727   -2.773265    0.174981
    120          6           0       27.504274   -2.120417   -0.483348
    121          8           0       27.501713   -1.228205   -1.334846
    122          8           0       26.340489   -2.678777    0.036362
    123          6           0       25.034393   -2.238382   -0.423005
    124          1           0       30.317391    3.759682    1.764958
    125          1           0       36.393972    2.391298   -0.364350
    126          1           0       34.562801   -3.325488   -2.169710
    127          1           0       27.521085   -0.310621    1.311335
    128          1           0       28.835119    1.949726    2.915899
    129          1           0       26.869899    1.773267    0.681378
    130          1           0       28.035731    3.113565    0.510200
    131          1           0       27.093272    3.009399    1.975757
    132          1           0       29.037127   -0.050096    3.963907
    133          1           0       29.275838   -1.421347    3.057802
    134          1           0       27.113031   -2.148648    3.447619
    135          1           0       26.511677   -0.523090    3.215063
    136          1           0       32.192402    6.169202    0.858324
    137          1           0       33.162708    6.122610    2.386832
    138          1           0       31.555362    5.428321    2.357380
    139          1           0       37.285347    4.295272    0.658444
    140          1           0       37.265490    5.876880   -0.026562
    141          1           0       36.614640    4.470924   -1.030528
    142          1           0       37.233066    0.049238   -0.047076
    143          1           0       36.708283   -1.703688   -2.482538
    144          1           0       38.493906    1.236475   -1.473575
    145          1           0       37.157339    1.494315   -2.660442
    146          1           0       38.190560    0.040944   -2.717231
    147          1           0       36.178631   -3.097037   -0.051245
    148          1           0       37.767619   -2.331535    0.024389
    149          1           0       36.796671   -4.491132   -1.496228
    150          1           0       38.372813   -4.321316   -0.705931
    151          1           0       37.998083   -3.729541   -2.400349
    152          1           0       32.845319   -5.640828   -1.593832
    153          1           0       32.945519   -4.902147   -3.133983
    154          1           0       31.399856   -5.602447   -2.611452
    155          1           0       28.290579   -3.322815    1.071575
    156          1           0       24.367014   -3.096600   -0.350750
    157          1           0       25.025126   -1.748134   -1.396852
    158          1           0       24.644566   -1.542793    0.320293
 ---------------------------------------------------------------------

 SCF Done:  E(RwB97XD) =  -4070.58429785     A.U. after   20 cycles

 Excitation energies and oscillator strengths:

 Excited State   1:      Singlet-A      1.6376 eV  757.11 nm  f=0.3996  <S**2>=0.000
     309 -> 315       -0.19098
     311 -> 313        0.68256
     309 <- 315       -0.11967
 This state for optimization and/or second-order correction.
 Total Energy, E(TD-HF/TD-DFT) =  -4070.52411757
 Copying the excited state density for this state as the 1-particle RhoCI density.

 Excited State   2:      Singlet-A      1.6941 eV  731.86 nm  f=0.3578  <S**2>=0.000
     310 -> 316        0.19921
     312 -> 314        0.67862
     310 <- 316        0.11862

 Excited State   3:      Singlet-A      2.1723 eV  570.76 nm  f=0.0980  <S**2>=0.000
     309 -> 313        0.63451
     311 -> 315        0.29676

 Excited State   4:      Singlet-A      2.1842 eV  567.64 nm  f=0.1012  <S**2>=0.000
     310 -> 314        0.63340
     312 -> 316       -0.30083

 Excited State   5:      Singlet-A      3.2599 eV  380.33 nm  f=0.0048  <S**2>=0.000
     308 -> 313        0.67170
     311 -> 315       -0.12897

 The electronic state is 1-A.
 Alpha  occ. eigenvalues --  -46.96739 -46.96033 -19.31246 -19.29882 -19.25134
 Alpha  occ. eigenvalues --  -19.24984 -19.24567 -19.24322 -19.24074 -19.23369
 Alpha  occ. eigenvalues --  -14.46925 -14.46841 -14.46613 -14.46408 -14.45129
 Alpha  occ. eigenvalues --  -14.44423 -14.44043 -14.43816 -10.43847 -10.43453
 Alpha  occ. eigenvalues --  -10.39805 -10.39286 -10.39255 -10.38577 -10.36953
 Alpha  occ. eigenvalues --  -10.35949 -10.35702 -10.35567 -10.35441 -10.35390
 Alpha  occ. eigenvalues --  -10.35312 -10.35181 -10.35152 -10.34958 -10.34890
 Alpha  occ. eigenvalues --  -10.34559 -10.34195 -10.33956 -10.33807 -10.33799
 Alpha  occ. eigenvalues --  -10.33556 -10.33433 -10.33249 -10.33018 -10.32803
 Alpha  occ. eigenvalues --  -10.32761 -10.32588 -10.32500 -10.32491 -10.32480
 Alpha  occ. eigenvalues --  -10.32477 -10.32445 -10.32393 -10.32349 -10.32242
 Alpha  occ. eigenvalues --  -10.32228 -10.32164 -10.32140 -10.32036 -10.31918
 Alpha  occ. eigenvalues --  -10.31910 -10.31904 -10.31891 -10.31814 -10.31730
 Alpha  occ. eigenvalues --  -10.31624 -10.31434 -10.31076 -10.30815 -10.30740
 Alpha  occ. eigenvalues --  -10.30731 -10.30707 -10.30443 -10.30327 -10.30278
 Alpha  occ. eigenvalues --  -10.30151 -10.30115 -10.30112 -10.29986 -10.29930
 Alpha  occ. eigenvalues --  -10.29909 -10.29783 -10.29727 -10.29698 -10.28869
 Alpha  occ. eigenvalues --  -10.28827  -3.22584  -3.21822  -1.96127  -1.95717
 Alpha  occ. eigenvalues --   -1.95534  -1.95419  -1.94934  -1.94779  -1.18627
 Alpha  occ. eigenvalues --   -1.17909  -1.13749  -1.12881  -1.12286  -1.12195
 Alpha  occ. eigenvalues --   -1.09713  -1.09246  -1.07564  -1.06795  -1.06089
 Alpha  occ. eigenvalues --   -1.05960  -1.05873  -1.04950  -1.04669  -1.03904
 Alpha  occ. eigenvalues --   -0.95904  -0.94464  -0.91409  -0.91007  -0.90893
 Alpha  occ. eigenvalues --   -0.90296  -0.90266  -0.89835  -0.89587  -0.89262
 Alpha  occ. eigenvalues --   -0.88851  -0.88175  -0.87977  -0.87667  -0.87373
 Alpha  occ. eigenvalues --   -0.86759  -0.86534  -0.85247  -0.84951  -0.84613
 Alpha  occ. eigenvalues --   -0.84164  -0.83804  -0.83456  -0.82750  -0.82749
 Alpha  occ. eigenvalues --   -0.82342  -0.80136  -0.79556  -0.79494  -0.79220
 Alpha  occ. eigenvalues --   -0.78632  -0.78506  -0.78426  -0.78322  -0.77279
 Alpha  occ. eigenvalues --   -0.77128  -0.75504  -0.74791  -0.74387  -0.74039
 Alpha  occ. eigenvalues --   -0.71858  -0.71839  -0.71333  -0.71204  -0.70221
 Alpha  occ. eigenvalues --   -0.70096  -0.69357  -0.69205  -0.68098  -0.67847
 Alpha  occ. eigenvalues --   -0.67825  -0.67492  -0.66868  -0.66851  -0.66842
 Alpha  occ. eigenvalues --   -0.66619  -0.65691  -0.64711  -0.62488  -0.62078
 Alpha  occ. eigenvalues --   -0.61926  -0.61267  -0.61100  -0.61065  -0.60940
 Alpha  occ. eigenvalues --   -0.60171  -0.60154  -0.60007  -0.59713  -0.59334
 Alpha  occ. eigenvalues --   -0.58338  -0.58265  -0.58107  -0.58019  -0.57476
 Alpha  occ. eigenvalues --   -0.57465  -0.57002  -0.56791  -0.56318  -0.56209
 Alpha  occ. eigenvalues --   -0.55652  -0.55515  -0.55335  -0.55136  -0.55017
 Alpha  occ. eigenvalues --   -0.54760  -0.54592  -0.54258  -0.54052  -0.54007
 Alpha  occ. eigenvalues --   -0.53847  -0.53811  -0.53622  -0.53447  -0.53352
 Alpha  occ. eigenvalues --   -0.53218  -0.53027  -0.52645  -0.52477  -0.52300
 Alpha  occ. eigenvalues --   -0.52084  -0.52009  -0.51930  -0.51905  -0.51678
 Alpha  occ. eigenvalues --   -0.51523  -0.51497  -0.51423  -0.50978  -0.50925
 Alpha  occ. eigenvalues --   -0.50884  -0.50593  -0.50333  -0.50297  -0.50203
 Alpha  occ. eigenvalues --   -0.49506  -0.49439  -0.49268  -0.49173  -0.48881
 Alpha  occ. eigenvalues --   -0.48838  -0.48709  -0.48650  -0.48628  -0.48535
 Alpha  occ. eigenvalues --   -0.48257  -0.48080  -0.48004  -0.47897  -0.47759
 Alpha  occ. eigenvalues --   -0.47620  -0.47451  -0.47423  -0.47261  -0.47247
 Alpha  occ. eigenvalues --   -0.47113  -0.47092  -0.46828  -0.46664  -0.46490
 Alpha  occ. eigenvalues --   -0.46175  -0.45894  -0.45837  -0.45807  -0.45599
 Alpha  occ. eigenvalues --   -0.45559  -0.45389  -0.45378  -0.45231  -0.45085
 Alpha  occ. eigenvalues --   -0.44929  -0.44831  -0.44698  -0.44242  -0.44168
 Alpha  occ. eigenvalues --   -0.44145  -0.44008  -0.43925  -0.43858  -0.43803
 Alpha  occ. eigenvalues --   -0.43633  -0.43331  -0.43124  -0.42920  -0.42261
 Alpha  occ. eigenvalues --   -0.42204  -0.41819  -0.41630  -0.41005  -0.40851
 Alpha  occ. eigenvalues --   -0.40298  -0.40146  -0.40077  -0.39909  -0.39409
 Alpha  occ. eigenvalues --   -0.39350  -0.39243  -0.39227  -0.38789  -0.38282
 Alpha  occ. eigenvalues --   -0.38243  -0.37586  -0.36834  -0.36674  -0.36499
 Alpha  occ. eigenvalues --   -0.36401  -0.35765  -0.35386  -0.34037  -0.33556
 Alpha  occ. eigenvalues --   -0.33272  -0.33225  -0.32926  -0.32814  -0.32677
 Alpha  occ. eigenvalues --   -0.32626  -0.31858  -0.31648  -0.26484  -0.25955
 Alpha  occ. eigenvalues --   -0.23351  -0.23212
 Alpha virt. eigenvalues --   -0.07552  -0.06985  -0.00378  -0.00175   0.01892
 Alpha virt. eigenvalues --    0.02185   0.03929   0.04147   0.04444   0.05676
 Alpha virt. eigenvalues --    0.06223   0.06661   0.07184   0.07902   0.08128

 Mulliken charges:
               1
     1  Mg   0.954780
     2  C    0.126812
     3  C   -0.086865
     4  C   -0.102692
     5  C   -0.086883
     6  N   -0.280313
     7  C   -0.106281
     8  C    0.024738
     9  C   -0.115358
    10  C    0.019691
    11  C    0.018023
    12  C    0.021176
    13  C   -0.133129
    14  H    0.032702
    15  N   -0.458870
    16  C    0.175478
    17  C   -0.148418
    18  C   -0.099917
    19  C    0.211658
    20  C    0.047962
    21  C    0.038212
    22  O   -0.200613
    23  C   -0.012898
    24  N   -0.368033
    25  C    0.007590
    26  C   -0.062987
    27  C   -0.084132
    28  C    0.069802
    29  C    0.005028
    30  C   -0.009883
    31  C   -0.094125
    32  N   -0.439713
    33  C    0.138916
    34  C   -0.213552
    35  C   -0.016274
    36  C    0.078874
    37  C    0.071698
    38  C    0.139941
    39  O   -0.173445
    40  C   -0.210991
    41  C    0.295897
    42  O   -0.266928
    43  O   -0.352096
    44  C    0.141292
    45  H    0.007242
    46  H   -0.025101
    47  H   -0.020859
    48  H    0.029493
    49  H    0.028319
    50  H    0.024565
    51  H    0.050169
    52  H    0.027418
    53  H    0.036949
    54  H    0.046187
    55  H    0.070673
    56  H    0.060467
    57  H    0.063270
    58  H    0.025780
    59  H    0.056054
    60  H    0.047000
    61  H    0.080165
    62  H    0.053747
    63  H    0.053704
    64  H    0.040267
    65  H    0.049439
    66  H    0.047503
    67  H    0.050474
    68  H    0.049740
    69  H    0.043980
    70  H    0.038444
    71  H    0.044452
    72  H    0.040063
    73  H    0.037447
    74  H    0.051956
    75  H    0.058890
    76  H    0.085117
    77  H    0.049519
    78  H    0.054979
    79  H    0.046613
    80  Mg   0.939205
    81  C   -0.063567
    82  C   -0.088085
    83  C   -0.039716
    84  C   -0.124238
    85  N   -0.332287
    86  C    0.013175
    87  C   -0.124626
    88  C   -0.103017
    89  C    0.083757
    90  C    0.035809
    91  C    0.029619
    92  C   -0.116565
    93  H    0.044721
    94  N   -0.456042
    95  C    0.158312
    96  C   -0.182113
    97  C   -0.057379
    98  C    0.198391
    99  C    0.076188
   100  C    0.004831
   101  O   -0.236050
   102  C    0.002763
   103  N   -0.354068
   104  C   -0.009465
   105  C   -0.086562
   106  C   -0.051296
   107  C    0.062252
   108  C    0.022925
   109  C   -0.053223
   110  C   -0.067801
   111  N   -0.433982
   112  C    0.194520
   113  C   -0.187347
   114  C    0.053609
   115  C    0.162129
   116  C    0.075183
   117  C    0.056254
   118  O   -0.207018
   119  C   -0.077428
   120  C    0.295337
   121  O   -0.257317
   122  O   -0.388854
   123  C    0.139757
   124  H   -0.000084
   125  H   -0.030097
   126  H   -0.003637
   127  H    0.037131
   128  H    0.045716
   129  H    0.048965
   130  H    0.034010
   131  H    0.036046
   132  H    0.037197
   133  H    0.027161
   134  H    0.055792
   135  H    0.044475
   136  H    0.060700
   137  H    0.065596
   138  H    0.024415
   139  H    0.059382
   140  H    0.052012
   141  H    0.063664
   142  H    0.053040
   143  H    0.024102
   144  H    0.042377
   145  H    0.053162
   146  H    0.040433
   147  H    0.043622
   148  H    0.030908
   149  H    0.022319
   150  H    0.047993
   151  H    0.040148
   152  H    0.047477
   153  H    0.037847
   154  H    0.062242
   155  H    0.083019
   156  H    0.056865
   157  H    0.068870
   158  H    0.036439
 Sum of Mulliken charges =  -0.00000

 Dipole moment (field-independent basis, Debye):
    X=             -2.0063    Y=             -3.3372    Z=             -1.6921  Tot=              4.2456
 Quadrupole moment (field-independent basis, Debye-Ang):
   XX=            -43.4931   YY=           -586.0546   ZZ=           -505.5542
   XY=             -8.0704   XZ=             45.8569   YZ=              0.4841

 Normal termination of Gaussian 16 at Sun Sep 19 18:44:25 2021.
