 Gaussian 16, Revision A.03,
 Gaussian 16:  ES64L-G16RevA.03 25-Dec-2016

 --------------------------------
 #p wB97XD/Def2SVP td=(nstates=5)
 --------------------------------

 --------------------------------
 TDDFT excited states in gaussian
 --------------------------------
 Symbolic Z-matrix:
 Charge =  0 Multiplicity = 1

                         Standard orientation:
 ---------------------------------------------------------------------
 Center     Atomic      Atomic             Coordinates (Angstroms)
 Number     Number       Type             X           Y           Z
 ---------------------------------------------------------------------
      1         12           0       24.588698   -0.434234    0.167497
      2          6           0       23.369707    2.722492    0.732228
      3          6           0       24.874024    0.339824   -3.160694
      4          6           0       25.716021   -3.657123   -0.441010
      5          6           0       23.866041   -1.303132    3.445170
      6          7           0       24.121651    1.336620   -1.129002
      7          6           0       23.713042    2.530861   -0.607225
      8          6           0       23.597879    3.540826   -1.643797
      9          6           0       23.857025    2.810955   -2.952290
     10          6           0       24.289892    1.372118   -2.428703
     11          6           0       22.708106    2.739373   -4.016619
     12          6           0       24.565474    4.746318   -1.388690
     13          6           0       24.077713    6.162252   -1.852576
     14          1           0       23.106156    6.215778   -3.047920
     15          7           0       25.314571   -1.450301   -1.570228
     16          6           0       25.356099   -0.919181   -2.847962
     17          6           0       25.896804   -1.937731   -3.770825
     18          6           0       26.159664   -3.134896   -2.974901
     19          6           0       25.756881   -2.783893   -1.601917
     20          6           0       26.081493   -1.738638   -5.266341
     21          6           0       26.830064   -4.411869   -3.425139
     22          8           0       27.047900   -5.306416   -2.589211
     23          6           0       27.229428   -4.710036   -4.821800
     24          7           0       24.700111   -2.259153    1.304058
     25          6           0       25.242945   -3.387193    0.837143
     26          6           0       25.382977   -4.429930    1.958666
     27          6           0       25.022991   -3.615683    3.318129
     28          6           0       24.572308   -2.269181    2.649857
     29          6           0       24.489162   -5.679278    1.688124
     30          6           0       26.211392   -3.377841    4.289697
     31          6           0       26.139884   -4.131564    5.626175
     32          7           0       23.715520    0.463946    1.790798
     33          6           0       23.464642   -0.011994    3.079818
     34          6           0       22.839172    1.047924    3.901465
     35          6           0       22.785905    2.115296    2.974264
     36          6           0       23.315540    1.710371    1.719846
     37          6           0       22.458849    1.000758    5.298832
     38          6           0       22.466315    3.552719    2.852497
     39          8           0       22.083438    4.357347    3.659789
     40          6           0       22.796833    3.977908    1.377489
     41          6           0       21.599342    4.604216    0.794802
     42          8           0       20.610016    3.913193    0.502825
     43          8           0       21.733273    5.924182    0.489977
     44          6           0       20.675711    6.578040   -0.274345
     45          1           0       24.953640    0.618530   -4.213525
     46          1           0       26.038621   -4.677361   -0.660062
     47          1           0       23.775980   -1.581840    4.497056
     48          1           0       22.571641    3.909724   -1.637571
     49          1           0       24.780105    3.153271   -3.421544
     50          1           0       21.743518    3.222028   -3.856080
     51          1           0       22.505111    1.687750   -4.217576
     52          1           0       23.012334    3.078021   -5.007312
     53          1           0       25.551134    4.515782   -1.793131
     54          1           0       24.855072    4.746295   -0.338033
     55          1           0       24.935042    6.791222   -2.093996
     56          1           0       23.471242    6.668855   -1.102395
     57          1           0       25.898528   -0.715126   -5.591706
     58          1           0       25.377813   -2.348858   -5.833227
     59          1           0       27.133486   -1.845874   -5.530144
     60          1           0       27.760367   -5.661022   -4.791465
     61          1           0       27.860611   -3.940709   -5.268519
     62          1           0       26.345719   -4.706372   -5.460108
     63          1           0       26.445324   -4.658829    2.044072
     64          1           0       24.172155   -4.043509    3.848242
     65          1           0       25.021448   -6.624947    1.791370
     66          1           0       24.087530   -5.656646    0.674702
     67          1           0       23.660986   -5.565238    2.387972
     68          1           0       26.350701   -2.329550    4.551202
     69          1           0       27.165735   -3.649211    3.837846
     70          1           0       25.567696   -5.049937    5.494169
     71          1           0       25.612357   -3.499143    6.339524
     72          1           0       27.165682   -4.241206    5.975634
     73          1           0       22.345122    1.991035    5.739318
     74          1           0       23.158881    0.439648    5.917562
     75          1           0       21.430228    0.643144    5.347455
     76          1           0       23.615866    4.678075    1.545436
     77          1           0       19.725055    6.658661    0.253479
     78          1           0       20.566072    6.122299   -1.258363
     79          1           0       20.952121    7.615739   -0.460452
     80         12           0      -23.627881   -0.773868    0.158773
     81          6           0      -25.479673    2.146429    0.617966
     82          6           0      -21.856369    0.720460   -2.229868
     83          6           0      -22.898424   -3.879589   -1.069024
     84          6           0      -25.543239   -2.309388    2.630584
     85          7           0      -23.557122    1.287977   -0.600315
     86          6           0      -24.377166    2.273206   -0.255290
     87          6           0      -23.896864    3.601538   -0.944195
     88          6           0      -22.816384    3.086912   -1.925239
     89          6           0      -22.732769    1.598037   -1.602518
     90          6           0      -23.232851    3.198527   -3.475282
     91          6           0      -23.317370    4.710794    0.046294
     92          6           0      -23.770100    6.083951   -0.314792
     93          1           0      -22.743607    7.196154   -0.464982
     94          7           0      -22.507336   -1.462928   -1.418175
     95          6           0      -21.817428   -0.674119   -2.300220
     96          6           0      -20.886545   -1.522036   -3.057870
     97          6           0      -21.202525   -2.864784   -2.709011
     98          6           0      -22.288617   -2.762006   -1.720253
     99          6           0      -19.885862   -0.957968   -4.116406
    100          6           0      -20.610465   -4.185981   -3.285818
    101          8           0      -20.942639   -5.307285   -2.918136
    102          6           0      -19.560417   -4.080435   -4.326257
    103          7           0      -24.145308   -2.742985    0.652811
    104          6           0      -23.786030   -3.909813   -0.028482
    105          6           0      -24.584634   -5.110680    0.542544
    106          6           0      -24.873093   -4.662601    2.042159
    107          6           0      -24.831901   -3.138644    1.735611
    108          6           0      -25.818211   -5.481761   -0.308296
    109          6           0      -23.853812   -5.038345    3.079884
    110          6           0      -22.574383   -4.268867    3.223347
    111          7           0      -25.054254   -0.217514    1.544978
    112          6           0      -25.780957   -0.938213    2.464295
    113          6           0      -26.735311   -0.097173    3.190388
    114          6           0      -26.736459    1.150991    2.419042
    115          6           0      -25.690901    0.988887    1.428681
    116          6           0      -27.639106   -0.522649    4.230661
    117          6           0      -27.358146    2.459614    2.256788
    118          8           0      -28.275892    2.972283    2.778845
    119          6           0      -26.489217    3.192809    1.107214
    120          6           0      -27.313498    3.847940    0.027899
    121          8           0      -27.648051    3.318169   -1.027606
    122          8           0      -27.543046    5.175098    0.389300
    123          6           0      -28.310066    6.014727   -0.548680
    124          1           0      -21.068303    1.077465   -2.896709
    125          1           0      -22.635827   -4.836637   -1.525438
    126          1           0      -26.037884   -2.825783    3.455440
    127          1           0      -24.679815    4.055686   -1.552028
    128          1           0      -21.846736    3.582692   -1.879940
    129          1           0      -22.856307    4.157200   -3.832596
    130          1           0      -24.304681    3.229964   -3.669263
    131          1           0      -22.734093    2.391472   -4.013219
    132          1           0      -22.227300    4.721922    0.046025
    133          1           0      -23.549255    4.566029    1.101554
    134          1           0      -24.357399    6.383195    0.552899
    135          1           0      -24.419584    6.196487   -1.182445
    136          1           0      -20.423845   -0.969501   -5.063905
    137          1           0      -18.951578   -1.519842   -4.126005
    138          1           0      -19.724110    0.118178   -4.045839
    139          1           0      -19.619752   -3.342999   -5.126583
    140          1           0      -19.449730   -5.038974   -4.832655
    141          1           0      -18.581027   -4.091045   -3.847091
    142          1           0      -23.853268   -5.918365    0.547723
    143          1           0      -25.841141   -5.012732    2.400032
    144          1           0      -26.774624   -5.528714    0.212480
    145          1           0      -25.656147   -6.338610   -0.962628
    146          1           0      -25.993065   -4.712618   -1.060383
    147          1           0      -23.501786   -6.066832    3.009647
    148          1           0      -24.341512   -4.987087    4.053449
    149          1           0      -22.819442   -3.562671    4.016451
    150          1           0      -22.273780   -3.677798    2.357982
    151          1           0      -21.777447   -4.949961    3.523594
    152          1           0      -27.711692    0.318498    4.920322
    153          1           0      -27.167626   -1.362642    4.740174
    154          1           0      -28.619066   -0.746000    3.810043
    155          1           0      -25.920015    3.982734    1.597263
    156          1           0      -29.234193    5.479681   -0.769010
    157          1           0      -27.772760    6.136426   -1.488841
    158          1           0      -28.578510    7.032417   -0.264745
 ---------------------------------------------------------------------

 SCF Done:  E(RwB97XD) =  -4070.65617773     A.U. after   19 cycles

 Excitation energies and oscillator strengths:

 Excited State   1:      Singlet-A      1.6238 eV  763.56 nm  f=0.3760  <S**2>=0.000
     309 -> 316        0.18260
     312 -> 313        0.68421
     309 <- 316        0.11752
 This state for optimization and/or second-order correction.
 Total Energy, E(TD-HF/TD-DFT) =  -4070.59650552
 Copying the excited state density for this state as the 1-particle RhoCI density.

 Excited State   2:      Singlet-A      1.6697 eV  742.57 nm  f=0.3882  <S**2>=0.000
     310 -> 315       -0.19470
     311 -> 314        0.68027
     310 <- 315       -0.11869

 Excited State   3:      Singlet-A      2.1969 eV  564.36 nm  f=0.0795  <S**2>=0.000
     310 -> 314        0.62398
     311 -> 315        0.31815

 Excited State   4:      Singlet-A      2.1999 eV  563.58 nm  f=0.1051  <S**2>=0.000
     309 -> 313        0.63103
     312 -> 316       -0.30763

 Excited State   5:      Singlet-A      3.3922 eV  365.50 nm  f=0.0179  <S**2>=0.000
     307 -> 313        0.66085
     312 -> 316        0.17979

 The electronic state is 1-A.
 Alpha  occ. eigenvalues --  -46.95243 -46.94251 -19.31208 -19.30263 -19.25041
 Alpha  occ. eigenvalues --  -19.24747 -19.24280 -19.24171 -19.24107 -19.23427
 Alpha  occ. eigenvalues --  -14.46751 -14.46426 -14.46308 -14.46016 -14.44138
 Alpha  occ. eigenvalues --  -14.43898 -14.43850 -14.43786 -10.43552 -10.43439
 Alpha  occ. eigenvalues --  -10.39583 -10.39541 -10.38952 -10.38891 -10.36094
 Alpha  occ. eigenvalues --  -10.35541 -10.35356 -10.34941 -10.34711 -10.34684
 Alpha  occ. eigenvalues --  -10.34606 -10.34551 -10.34439 -10.34140 -10.34090
 Alpha  occ. eigenvalues --  -10.34013 -10.33970 -10.33870 -10.33795 -10.33522
 Alpha  occ. eigenvalues --  -10.33366 -10.33363 -10.33312 -10.32901 -10.32837
 Alpha  occ. eigenvalues --  -10.32695 -10.32539 -10.32456 -10.32368 -10.32349
 Alpha  occ. eigenvalues --  -10.32347 -10.32223 -10.32078 -10.31984 -10.31925
 Alpha  occ. eigenvalues --  -10.31911 -10.31697 -10.31676 -10.31603 -10.31458
 Alpha  occ. eigenvalues --  -10.31452 -10.31450 -10.31349 -10.31273 -10.31137
 Alpha  occ. eigenvalues --  -10.31051 -10.30813 -10.30728 -10.30543 -10.30177
 Alpha  occ. eigenvalues --  -10.30149 -10.30118 -10.29987 -10.29969 -10.29949
 Alpha  occ. eigenvalues --  -10.29948 -10.29945 -10.29785 -10.29652 -10.29466
 Alpha  occ. eigenvalues --  -10.29379 -10.29371 -10.29361 -10.29334 -10.29177
 Alpha  occ. eigenvalues --  -10.28350  -3.21112  -3.20372  -1.94722  -1.94218
 Alpha  occ. eigenvalues --   -1.94088  -1.93969  -1.93473  -1.93375  -1.18636
 Alpha  occ. eigenvalues --   -1.17327  -1.15219  -1.13208  -1.12335  -1.11152
 Alpha  occ. eigenvalues --   -1.09658  -1.09333  -1.07159  -1.07135  -1.06077
 Alpha  occ. eigenvalues --   -1.05563  -1.05415  -1.04886  -1.04168  -1.03024
 Alpha  occ. eigenvalues --   -0.94473  -0.93846  -0.91030  -0.90881  -0.90458
 Alpha  occ. eigenvalues --   -0.90187  -0.89936  -0.89612  -0.89148  -0.89132
 Alpha  occ. eigenvalues --   -0.88809  -0.88679  -0.88229  -0.88204  -0.86047
 Alpha  occ. eigenvalues --   -0.85905  -0.85480  -0.85468  -0.84438  -0.84227
 Alpha  occ. eigenvalues --   -0.83809  -0.83755  -0.83173  -0.82944  -0.82530
 Alpha  occ. eigenvalues --   -0.82322  -0.80423  -0.80180  -0.79508  -0.79263
 Alpha  occ. eigenvalues --   -0.79157  -0.78671  -0.78170  -0.77751  -0.76838
 Alpha  occ. eigenvalues --   -0.76777  -0.74616  -0.74243  -0.73508  -0.73424
 Alpha  occ. eigenvalues --   -0.71188  -0.71130  -0.70498  -0.70286  -0.70039
 Alpha  occ. eigenvalues --   -0.69672  -0.68944  -0.68691  -0.67795  -0.67630
 Alpha  occ. eigenvalues --   -0.67359  -0.67066  -0.66606  -0.66349  -0.66232
 Alpha  occ. eigenvalues --   -0.66025  -0.64731  -0.63798  -0.62124  -0.61857
 Alpha  occ. eigenvalues --   -0.61583  -0.61537  -0.61235  -0.60868  -0.60735
 Alpha  occ. eigenvalues --   -0.60235  -0.60091  -0.59746  -0.59297  -0.59201
 Alpha  occ. eigenvalues --   -0.58062  -0.57852  -0.57781  -0.57471  -0.57372
 Alpha  occ. eigenvalues --   -0.57290  -0.56747  -0.56692  -0.56045  -0.55935
 Alpha  occ. eigenvalues --   -0.55511  -0.55416  -0.55301  -0.54896  -0.54854
 Alpha  occ. eigenvalues --   -0.54745  -0.54419  -0.54362  -0.54167  -0.54082
 Alpha  occ. eigenvalues --   -0.53691  -0.53569  -0.53540  -0.53432  -0.53299
 Alpha  occ. eigenvalues --   -0.53256  -0.53197  -0.53091  -0.52322  -0.52152
 Alpha  occ. eigenvalues --   -0.52113  -0.52000  -0.51930  -0.51829  -0.51540
 Alpha  occ. eigenvalues --   -0.51422  -0.51313  -0.51036  -0.50949  -0.50515
 Alpha  occ. eigenvalues --   -0.50475  -0.50398  -0.50219  -0.50035  -0.49890
 Alpha  occ. eigenvalues --   -0.49871  -0.49716  -0.49425  -0.49178  -0.49082
 Alpha  occ. eigenvalues --   -0.48882  -0.48762  -0.48661  -0.48501  -0.48203
 Alpha  occ. eigenvalues --   -0.48176  -0.48031  -0.47831  -0.47737  -0.47648
 Alpha  occ. eigenvalues --   -0.47465  -0.47411  -0.47175  -0.47122  -0.46863
 Alpha  occ. eigenvalues --   -0.46861  -0.46541  -0.46491  -0.46276  -0.46267
 Alpha  occ. eigenvalues --   -0.46085  -0.45776  -0.45644  -0.45578  -0.45418
 Alpha  occ. eigenvalues --   -0.45250  -0.45190  -0.45112  -0.44977  -0.44702
 Alpha  occ. eigenvalues --   -0.44581  -0.44563  -0.44092  -0.43814  -0.43776
 Alpha  occ. eigenvalues --   -0.43503  -0.43432  -0.43395  -0.43350  -0.43155
 Alpha  occ. eigenvalues --   -0.43074  -0.42857  -0.42601  -0.42369  -0.42263
 Alpha  occ. eigenvalues --   -0.42105  -0.41882  -0.41431  -0.41028  -0.40583
 Alpha  occ. eigenvalues --   -0.40105  -0.39948  -0.39591  -0.39441  -0.39222
 Alpha  occ. eigenvalues --   -0.38933  -0.38798  -0.38725  -0.38641  -0.38587
 Alpha  occ. eigenvalues --   -0.37953  -0.37830  -0.36415  -0.36267  -0.36042
 Alpha  occ. eigenvalues --   -0.35937  -0.35383  -0.35054  -0.33390  -0.33298
 Alpha  occ. eigenvalues --   -0.33267  -0.33118  -0.32912  -0.32721  -0.32250
 Alpha  occ. eigenvalues --   -0.32176  -0.31756  -0.31719  -0.25894  -0.25816
 Alpha  occ. eigenvalues --   -0.22624  -0.22574
 Alpha virt. eigenvalues --   -0.06801  -0.06673   0.00166   0.00549   0.02494
 Alpha virt. eigenvalues --    0.02569   0.04550   0.04666   0.05922   0.06101
 Alpha virt. eigenvalues --    0.06590   0.06739   0.07919   0.08085   0.08645

 Mulliken charges:
               1
     1  Mg   0.952596
     2  C   -0.030031
     3  C   -0.087551
     4  C   -0.053759
     5  C   -0.079034
     6  N   -0.317128
     7  C   -0.009074
     8  C   -0.053995
     9  C   -0.041580
    10  C   -0.008984
    11  C    0.019995
    12  C    0.021036
    13  C   -0.115104
    14  H    0.015611
    15  N   -0.461405
    16  C    0.197281
    17  C   -0.169558
    18  C   -0.061137
    19  C    0.119965
    20  C    0.061143
    21  C    0.038449
    22  O   -0.262806
    23  C    0.013473
    24  N   -0.333167
    25  C    0.064218
    26  C   -0.091839
    27  C   -0.099031
    28  C    0.041263
    29  C    0.031125
    30  C   -0.015240
    31  C   -0.053810
    32  N   -0.449317
    33  C    0.129749
    34  C   -0.162237
    35  C   -0.055575
    36  C    0.145227
    37  C    0.075978
    38  C    0.096426
    39  O   -0.183891
    40  C   -0.042151
    41  C    0.280638
    42  O   -0.276085
    43  O   -0.352453
    44  C    0.141016
    45  H   -0.023835
    46  H    0.028214
    47  H   -0.002387
    48  H    0.045924
    49  H    0.034466
    50  H    0.048862
    51  H    0.031133
    52  H    0.026861
    53  H    0.018662
    54  H    0.024820
    55  H    0.055088
    56  H    0.067003
    57  H    0.025622
    58  H    0.064216
    59  H    0.051458
    60  H    0.063686
    61  H    0.041624
    62  H    0.053072
    63  H    0.040564
    64  H    0.038368
    65  H    0.048253
    66  H    0.046057
    67  H    0.029721
    68  H    0.031761
    69  H    0.025746
    70  H    0.040598
    71  H    0.032174
    72  H    0.041555
    73  H    0.049757
    74  H    0.047520
    75  H    0.057486
    76  H    0.066901
    77  H    0.067201
    78  H    0.052479
    79  H    0.050125
    80  Mg   0.984030
    81  C    0.016668
    82  C   -0.089801
    83  C   -0.082538
    84  C   -0.106092
    85  N   -0.316679
    86  C    0.009601
    87  C   -0.040534
    88  C   -0.128974
    89  C    0.104064
    90  C   -0.004712
    91  C    0.028225
    92  C   -0.147931
    93  H    0.026127
    94  N   -0.453005
    95  C    0.111665
    96  C   -0.155668
    97  C   -0.103337
    98  C    0.123568
    99  C    0.045720
   100  C    0.084723
   101  O   -0.233054
   102  C   -0.023313
   103  N   -0.364632
   104  C    0.051529
   105  C   -0.053093
   106  C   -0.060138
   107  C    0.046815
   108  C    0.044664
   109  C   -0.025406
   110  C   -0.034970
   111  N   -0.448182
   112  C    0.163668
   113  C   -0.168932
   114  C   -0.084429
   115  C    0.117571
   116  C    0.077044
   117  C    0.137570
   118  O   -0.142215
   119  C   -0.138907
   120  C    0.283399
   121  O   -0.249093
   122  O   -0.383378
   123  C    0.147029
   124  H   -0.013072
   125  H    0.021624
   126  H   -0.009719
   127  H    0.043014
   128  H    0.044054
   129  H    0.031204
   130  H    0.051224
   131  H    0.038055
   132  H    0.037921
   133  H    0.036950
   134  H    0.053925
   135  H    0.051451
   136  H    0.057689
   137  H    0.063583
   138  H    0.032739
   139  H    0.059302
   140  H    0.038662
   141  H    0.062595
   142  H    0.024388
   143  H    0.023864
   144  H    0.039144
   145  H    0.044478
   146  H    0.032092
   147  H    0.026716
   148  H    0.023448
   149  H    0.026968
   150  H    0.051693
   151  H    0.040176
   152  H    0.057379
   153  H    0.036646
   154  H    0.074594
   155  H    0.075985
   156  H    0.054236
   157  H    0.040556
   158  H    0.061769
 Sum of Mulliken charges =  -0.00000

 Dipole moment (field-independent basis, Debye):
    X=              5.5695    Y=              1.9889    Z=             -3.5463  Tot=              6.8958
 Quadrupole moment (field-independent basis, Debye-Ang):
   XX=           -565.8113   YY=           -504.2730   ZZ=           -472.6145
   XY=             17.0017   XZ=            -57.9434   YZ=            -47.3412

 Normal termination of Gaussian 16 at Sun Sep 19 21:56:14 2021.
