 Gaussian 16, Revision A.03,
 Gaussian 16:  ES64L-G16RevA.03 25-Dec-2016

 --------------------------------
 #p wB97XD/Def2SVP td=(nstates=5)
 --------------------------------

 --------------------------------
 TDDFT excited states in gaussian
 --------------------------------
 Symbolic Z-matrix:
 Charge =  0 Multiplicity = 1

                         Standard orientation:
 ---------------------------------------------------------------------
 Center     Atomic      Atomic             Coordinates (Angstroms)
 Number     Number       Type             X           Y           Z
 ---------------------------------------------------------------------
      1         12           0        8.255302   -1.015405   -0.214370
      2          6           0       10.601606    1.687648   -0.190382
      3          6           0        5.876650    1.237216    0.739978
      4          6           0        6.272680   -3.453495    0.211716
      5          6           0       10.977598   -3.185158   -0.050252
      6          7           0        8.349568    1.159141    0.189497
      7          6           0        9.296497    2.088249    0.104329
      8          6           0        8.756740    3.538745    0.283485
      9          6           0        7.434601    3.214620    1.113479
     10          6           0        7.183291    1.798362    0.626674
     11          6           0        7.654806    3.183514    2.622467
     12          6           0        8.421083    4.221476   -1.085071
     13          6           0        8.201347    5.735825   -1.023283
     14          1           0        8.646771    6.554255   -2.140922
     15          7           0        6.284072   -1.057199   -0.090451
     16          6           0        5.475537   -0.043043    0.300758
     17          6           0        4.095661   -0.569098    0.224013
     18          6           0        4.180244   -2.028433   -0.061085
     19          6           0        5.601035   -2.245984    0.035881
     20          6           0        2.877893    0.291745    0.364523
     21          6           0        3.143942   -3.064813   -0.361295
     22          8           0        3.409106   -4.315454   -0.348649
     23          6           0        1.771710   -2.575696   -0.586652
     24          7           0        8.557588   -3.024412    0.265369
     25          6           0        7.531647   -3.880022    0.331397
     26          6           0        8.008933   -5.300002    0.407520
     27          6           0        9.581409   -5.253095    0.133898
     28          6           0        9.755942   -3.718338    0.022859
     29          6           0        7.743153   -6.025184    1.733975
     30          6           0       10.122224   -6.141900   -1.014128
     31          6           0        9.615952   -5.627804   -2.343223
     32          7           0       10.415554   -0.828482   -0.311399
     33          6           0       11.357157   -1.861581   -0.198412
     34          6           0       12.691289   -1.234034   -0.216936
     35          6           0       12.431007    0.130795   -0.323423
     36          6           0       11.023061    0.344413   -0.342124
     37          6           0       13.933942   -1.913823   -0.082261
     38          6           0       13.014500    1.460224   -0.400948
     39          8           0       14.159395    1.899170   -0.519412
     40          6           0       11.852997    2.529991   -0.195187
     41          6           0       11.996585    3.569759   -1.272951
     42          8           0       11.801709    3.280337   -2.471126
     43          8           0       12.105276    4.782491   -0.709030
     44          6           0       12.221315    5.863039   -1.724463
     45          1           0        5.103306    1.802007    1.264278
     46          1           0        5.626328   -4.332739    0.251678
     47          1           0       11.874983   -3.805418   -0.088087
     48          1           0        9.406292    4.197398    0.860271
     49          1           0        6.606998    3.864930    0.830827
     50          1           0        8.712776    3.261968    2.872399
     51          1           0        7.255046    2.225424    2.955256
     52          1           0        7.054085    3.947023    3.117407
     53          1           0        7.431113    3.903549   -1.412092
     54          1           0        9.189526    3.998618   -1.826121
     55          1           0        8.556120    6.151887   -0.079917
     56          1           0        7.127896    5.925174   -1.016203
     57          1           0        3.130234    1.285586    0.732148
     58          1           0        2.269320   -0.144383    1.156444
     59          1           0        2.300404    0.339607   -0.558812
     60          1           0        1.432201   -2.036109    0.297727
     61          1           0        1.185395   -3.447344   -0.875293
     62          1           0        1.784417   -1.851384   -1.401612
     63          1           0        7.531850   -5.914322   -0.354994
     64          1           0       10.157687   -5.564635    1.005403
     65          1           0        7.168837   -6.945217    1.622597
     66          1           0        7.239813   -5.328654    2.403891
     67          1           0        8.636458   -6.270523    2.307762
     68          1           0        9.759196   -7.163401   -0.906001
     69          1           0       11.210955   -6.179232   -1.053155
     70          1           0        8.628128   -6.080868   -2.419177
     71          1           0       10.263521   -5.965151   -3.153200
     72          1           0        9.478021   -4.546535   -2.325416
     73          1           0       14.601716   -1.478873   -0.825810
     74          1           0       13.816941   -2.986588   -0.234210
     75          1           0       14.190593   -1.663409    0.946952
     76          1           0       11.987607    2.951231    0.800583
     77          1           0       13.135002    6.414766   -1.503089
     78          1           0       11.280135    6.412620   -1.701071
     79          1           0       12.417070    5.543165   -2.748524
     80         12           0       -8.774967   -0.447848   -0.219456
     81          6           0       -7.060896    2.542263    0.571836
     82          6           0      -11.067551    1.433778   -1.931945
     83          6           0      -10.703780   -3.133970   -0.399048
     84          6           0       -6.624917   -2.141892    1.962048
     85          7           0       -9.117806    1.764811   -0.492860
     86          6           0       -8.203453    2.768168   -0.161236
     87          6           0       -8.579556    4.084477   -0.885198
     88          6           0       -9.887527    3.702781   -1.670029
     89          6           0      -10.059261    2.180944   -1.407342
     90          6           0      -11.093827    4.607392   -1.488303
     91          6           0       -7.499465    4.705636   -1.784539
     92          6           0       -7.165733    6.183117   -1.439929
     93          1           0       -7.309891    7.165625   -2.580924
     94          7           0      -10.602113   -0.794760   -1.138918
     95          6           0      -11.427595    0.089564   -1.768975
     96          6           0      -12.499304   -0.665372   -2.373369
     97          6           0      -12.486315   -2.008697   -1.800696
     98          6           0      -11.232985   -1.980050   -1.062472
     99          6           0      -13.655222    0.028527   -3.263811
    100          6           0      -13.532097   -3.032064   -1.681170
    101          8           0      -13.432939   -4.122726   -1.195498
    102          6           0      -14.903925   -2.649438   -2.228623
    103          7           0       -8.763748   -2.325131    0.851629
    104          6           0       -9.650723   -3.288227    0.533953
    105          6           0       -9.225898   -4.632904    1.128670
    106          6           0       -7.772527   -4.371561    1.555449
    107          6           0       -7.667844   -2.868421    1.425142
    108          6           0      -10.154812   -5.045425    2.360974
    109          6           0       -6.791657   -5.093333    0.497873
    110          6           0       -6.700043   -4.424985   -0.901108
    111          7           0       -7.073187   -0.016214    0.962773
    112          6           0       -6.327519   -0.798437    1.759836
    113          6           0       -5.283160    0.008886    2.330862
    114          6           0       -5.503271    1.289021    1.858170
    115          6           0       -6.654027    1.266916    1.065415
    116          6           0       -4.171170   -0.395243    3.280040
    117          6           0       -4.967550    2.646623    1.989389
    118          8           0       -4.129590    3.223999    2.622970
    119          6           0       -5.904463    3.505696    1.099680
    120          6           0       -6.470135    4.540248    2.000836
    121          8           0       -7.041915    4.242519    3.019354
    122          8           0       -6.194222    5.836519    1.596510
    123          6           0       -6.467994    6.919846    2.599105
    124          1           0      -11.665846    2.010099   -2.640885
    125          1           0      -11.238679   -4.078332   -0.522731
    126          1           0       -5.790289   -2.618164    2.480772
    127          1           0       -8.893937    4.814343   -0.138879
    128          1           0       -9.696387    3.857291   -2.732138
    129          1           0      -10.980778    5.243273   -0.611497
    130          1           0      -12.040692    4.070264   -1.427668
    131          1           0      -11.084785    5.286974   -2.340097
    132          1           0       -7.697978    4.768222   -2.854494
    133          1           0       -6.575467    4.130403   -1.730492
    134          1           0       -6.202291    6.268272   -0.937413
    135          1           0       -7.900313    6.521856   -0.710457
    136          1           0      -13.771830   -0.560151   -4.173667
    137          1           0      -13.452691    1.040087   -3.613671
    138          1           0      -14.636785    0.186539   -2.817032
    139          1           0      -14.712453   -2.486776   -3.289533
    140          1           0      -15.162850   -1.729246   -1.705835
    141          1           0      -15.658264   -3.433655   -2.157652
    142          1           0       -9.192272   -5.441722    0.397976
    143          1           0       -7.446383   -4.600990    2.570134
    144          1           0      -10.166537   -6.135140    2.395300
    145          1           0      -11.201155   -4.738286    2.352032
    146          1           0       -9.625155   -4.656537    3.230508
    147          1           0       -7.026432   -6.148101    0.356230
    148          1           0       -5.757745   -4.975065    0.822418
    149          1           0       -6.177666   -5.002804   -1.662834
    150          1           0       -6.155377   -3.488444   -0.780328
    151          1           0       -7.717120   -4.199780   -1.223599
    152          1           0       -3.471847   -1.123130    2.869294
    153          1           0       -4.702305   -0.856399    4.112295
    154          1           0       -3.644720    0.461360    3.700933
    155          1           0       -5.216636    3.973757    0.395697
    156          1           0       -6.949241    7.638739    1.936012
    157          1           0       -5.560171    7.355472    3.016052
    158          1           0       -7.088851    6.717721    3.471549
 ---------------------------------------------------------------------

 SCF Done:  E(RwB97XD) =  -4070.62480999     A.U. after   19 cycles

 Excitation energies and oscillator strengths:

 Excited State   1:      Singlet-A      1.6140 eV  768.18 nm  f=0.6841  <S**2>=0.000
     310 -> 315        0.16151
     311 -> 313       -0.30085
     312 -> 314        0.61467
     310 <- 315        0.10242
 This state for optimization and/or second-order correction.
 Total Energy, E(TD-HF/TD-DFT) =  -4070.56549665
 Copying the excited state density for this state as the 1-particle RhoCI density.

 Excited State   2:      Singlet-A      1.6492 eV  751.77 nm  f=0.1439  <S**2>=0.000
     309 -> 316        0.16434
     311 -> 313        0.61550
     312 -> 314        0.29854
     309 <- 316        0.10542

 Excited State   3:      Singlet-A      2.1342 eV  580.94 nm  f=0.0451  <S**2>=0.000
     309 -> 313        0.59981
     310 -> 314       -0.25756
     311 -> 316       -0.22981
     312 -> 315        0.11200

 Excited State   4:      Singlet-A      2.1391 eV  579.62 nm  f=0.1769  <S**2>=0.000
     309 -> 313        0.26298
     310 -> 314        0.58417
     311 -> 316       -0.10239
     312 -> 315       -0.25817

 Excited State   5:      Singlet-A      3.2627 eV  380.01 nm  f=0.0000  <S**2>=0.000
     312 -> 313        0.70646

 The electronic state is 1-A.
 Alpha  occ. eigenvalues --  -46.96062 -46.94064 -19.31436 -19.30594 -19.24909
 Alpha  occ. eigenvalues --  -19.24429 -19.23931 -19.23865 -19.23561 -19.23161
 Alpha  occ. eigenvalues --  -14.46975 -14.46906 -14.46689 -14.45987 -14.44538
 Alpha  occ. eigenvalues --  -14.44009 -14.43961 -14.43097 -10.42875 -10.42859
 Alpha  occ. eigenvalues --  -10.39429 -10.39413 -10.38460 -10.38349 -10.35785
 Alpha  occ. eigenvalues --  -10.35754 -10.35376 -10.35371 -10.34974 -10.34965
 Alpha  occ. eigenvalues --  -10.34914 -10.34835 -10.34541 -10.34492 -10.34448
 Alpha  occ. eigenvalues --  -10.34175 -10.34137 -10.34001 -10.33843 -10.33768
 Alpha  occ. eigenvalues --  -10.33539 -10.33375 -10.33179 -10.33012 -10.32729
 Alpha  occ. eigenvalues --  -10.32492 -10.32379 -10.32279 -10.32265 -10.32226
 Alpha  occ. eigenvalues --  -10.32188 -10.32108 -10.32078 -10.32049 -10.31802
 Alpha  occ. eigenvalues --  -10.31722 -10.31711 -10.31651 -10.31514 -10.31507
 Alpha  occ. eigenvalues --  -10.31448 -10.31435 -10.31297 -10.31263 -10.31125
 Alpha  occ. eigenvalues --  -10.31108 -10.30847 -10.30753 -10.30671 -10.30552
 Alpha  occ. eigenvalues --  -10.30530 -10.30342 -10.30286 -10.30049 -10.29971
 Alpha  occ. eigenvalues --  -10.29959 -10.29949 -10.29931 -10.29623 -10.29585
 Alpha  occ. eigenvalues --  -10.29308 -10.29242 -10.29057 -10.28803 -10.28749
 Alpha  occ. eigenvalues --  -10.28448  -3.21925  -3.20223  -1.95492  -1.95059
 Alpha  occ. eigenvalues --   -1.94885  -1.93800  -1.93367  -1.93204  -1.18760
 Alpha  occ. eigenvalues --   -1.18068  -1.14180  -1.13426  -1.10790  -1.10046
 Alpha  occ. eigenvalues --   -1.09415  -1.08774  -1.07383  -1.06511  -1.06499
 Alpha  occ. eigenvalues --   -1.06048  -1.05708  -1.05195  -1.04373  -1.04189
 Alpha  occ. eigenvalues --   -0.94548  -0.93861  -0.91357  -0.90961  -0.90927
 Alpha  occ. eigenvalues --   -0.90858  -0.90324  -0.90120  -0.89843  -0.89726
 Alpha  occ. eigenvalues --   -0.89518  -0.89165  -0.88719  -0.88443  -0.86801
 Alpha  occ. eigenvalues --   -0.86529  -0.85767  -0.85557  -0.84859  -0.84557
 Alpha  occ. eigenvalues --   -0.84494  -0.83457  -0.83329  -0.83010  -0.82493
 Alpha  occ. eigenvalues --   -0.82278  -0.80700  -0.80506  -0.79530  -0.79073
 Alpha  occ. eigenvalues --   -0.78911  -0.78776  -0.78250  -0.77775  -0.77319
 Alpha  occ. eigenvalues --   -0.76757  -0.75296  -0.74684  -0.73920  -0.73561
 Alpha  occ. eigenvalues --   -0.71751  -0.71430  -0.71383  -0.70759  -0.70244
 Alpha  occ. eigenvalues --   -0.69590  -0.69424  -0.69103  -0.67599  -0.67453
 Alpha  occ. eigenvalues --   -0.67312  -0.67143  -0.66772  -0.66638  -0.66526
 Alpha  occ. eigenvalues --   -0.66171  -0.64496  -0.64216  -0.62590  -0.62376
 Alpha  occ. eigenvalues --   -0.61884  -0.61677  -0.61486  -0.60911  -0.60906
 Alpha  occ. eigenvalues --   -0.60427  -0.60302  -0.59719  -0.59482  -0.59213
 Alpha  occ. eigenvalues --   -0.58223  -0.58168  -0.57791  -0.57543  -0.57438
 Alpha  occ. eigenvalues --   -0.57302  -0.57208  -0.56763  -0.56412  -0.56321
 Alpha  occ. eigenvalues --   -0.55729  -0.55548  -0.55186  -0.55136  -0.55096
 Alpha  occ. eigenvalues --   -0.54811  -0.54762  -0.54616  -0.54466  -0.54280
 Alpha  occ. eigenvalues --   -0.54230  -0.54016  -0.53773  -0.53679  -0.53457
 Alpha  occ. eigenvalues --   -0.53424  -0.53065  -0.52873  -0.52473  -0.52213
 Alpha  occ. eigenvalues --   -0.51915  -0.51887  -0.51830  -0.51639  -0.51467
 Alpha  occ. eigenvalues --   -0.51402  -0.51382  -0.51141  -0.51104  -0.50934
 Alpha  occ. eigenvalues --   -0.50515  -0.50442  -0.50372  -0.50340  -0.50330
 Alpha  occ. eigenvalues --   -0.50046  -0.49713  -0.49569  -0.49548  -0.49170
 Alpha  occ. eigenvalues --   -0.49160  -0.48629  -0.48572  -0.48396  -0.48287
 Alpha  occ. eigenvalues --   -0.48246  -0.48224  -0.48043  -0.48005  -0.47670
 Alpha  occ. eigenvalues --   -0.47655  -0.47403  -0.47256  -0.47052  -0.46649
 Alpha  occ. eigenvalues --   -0.46439  -0.46358  -0.46164  -0.45991  -0.45919
 Alpha  occ. eigenvalues --   -0.45879  -0.45759  -0.45560  -0.45440  -0.45314
 Alpha  occ. eigenvalues --   -0.45254  -0.45207  -0.45043  -0.44895  -0.44596
 Alpha  occ. eigenvalues --   -0.44552  -0.44512  -0.44459  -0.44217  -0.44091
 Alpha  occ. eigenvalues --   -0.43857  -0.43651  -0.43549  -0.43428  -0.43348
 Alpha  occ. eigenvalues --   -0.42971  -0.42964  -0.42823  -0.42670  -0.42396
 Alpha  occ. eigenvalues --   -0.42377  -0.42043  -0.41820  -0.41338  -0.41113
 Alpha  occ. eigenvalues --   -0.40417  -0.40306  -0.40196  -0.39992  -0.39613
 Alpha  occ. eigenvalues --   -0.39329  -0.39299  -0.39114  -0.38652  -0.38561
 Alpha  occ. eigenvalues --   -0.38398  -0.38128  -0.36584  -0.36250  -0.36220
 Alpha  occ. eigenvalues --   -0.35834  -0.35718  -0.35282  -0.34011  -0.33490
 Alpha  occ. eigenvalues --   -0.33314  -0.33144  -0.32750  -0.32559  -0.32371
 Alpha  occ. eigenvalues --   -0.31941  -0.31558  -0.31418  -0.26282  -0.25940
 Alpha  occ. eigenvalues --   -0.23573  -0.22858
 Alpha virt. eigenvalues --   -0.07719  -0.07042   0.00238   0.00309   0.02037
 Alpha virt. eigenvalues --    0.02394   0.04368   0.04390   0.04621   0.06317
 Alpha virt. eigenvalues --    0.07174   0.07319   0.07352   0.07727   0.08856

 Mulliken charges:
               1
     1  Mg   0.978129
     2  C   -0.019860
     3  C   -0.100971
     4  C   -0.061565
     5  C   -0.071165
     6  N   -0.323172
     7  C   -0.008641
     8  C   -0.058083
     9  C   -0.138185
    10  C    0.061640
    11  C    0.058153
    12  C    0.013973
    13  C   -0.126936
    14  H    0.052044
    15  N   -0.518322
    16  C    0.183161
    17  C   -0.195692
    18  C   -0.037470
    19  C    0.166952
    20  C    0.060588
    21  C    0.056499
    22  O   -0.280688
    23  C    0.001586
    24  N   -0.410016
    25  C    0.066150
    26  C   -0.084835
    27  C   -0.063875
    28  C    0.089673
    29  C    0.031905
    30  C   -0.016632
    31  C   -0.058074
    32  N   -0.398636
    33  C    0.097218
    34  C   -0.188092
    35  C   -0.040080
    36  C    0.126133
    37  C    0.081474
    38  C    0.128782
    39  O   -0.224879
    40  C   -0.076785
    41  C    0.275743
    42  O   -0.284652
    43  O   -0.335531
    44  C    0.120653
    45  H    0.009130
    46  H    0.010268
    47  H   -0.017541
    48  H    0.026012
    49  H    0.023236
    50  H    0.046907
    51  H    0.037921
    52  H    0.040838
    53  H    0.035443
    54  H    0.067468
    55  H    0.039068
    56  H    0.041010
    57  H    0.031380
    58  H    0.049855
    59  H    0.062119
    60  H    0.058153
    61  H    0.060221
    62  H    0.053309
    63  H    0.042625
    64  H    0.035621
    65  H    0.044969
    66  H    0.034420
    67  H    0.025718
    68  H    0.032396
    69  H    0.029399
    70  H    0.028973
    71  H    0.042067
    72  H    0.049774
    73  H    0.070775
    74  H    0.031258
    75  H    0.069375
    76  H    0.065949
    77  H    0.061194
    78  H    0.062921
    79  H    0.070151
    80  Mg   0.946277
    81  C   -0.040702
    82  C   -0.093335
    83  C   -0.064936
    84  C   -0.068258
    85  N   -0.372050
    86  C    0.009003
    87  C   -0.037880
    88  C   -0.103235
    89  C    0.075554
    90  C    0.021363
    91  C    0.015671
    92  C   -0.142211
    93  H    0.026119
    94  N   -0.445414
    95  C    0.174882
    96  C   -0.128192
    97  C   -0.081338
    98  C    0.149953
    99  C    0.018134
   100  C    0.023501
   101  O   -0.209935
   102  C   -0.005890
   103  N   -0.331258
   104  C    0.048724
   105  C   -0.089509
   106  C   -0.066709
   107  C    0.055690
   108  C    0.021602
   109  C   -0.041415
   110  C   -0.066525
   111  N   -0.411635
   112  C    0.080329
   113  C   -0.176698
   114  C   -0.085586
   115  C    0.178001
   116  C    0.073121
   117  C    0.146458
   118  O   -0.175869
   119  C   -0.066373
   120  C    0.252445
   121  O   -0.230957
   122  O   -0.382275
   123  C    0.126144
   124  H   -0.009661
   125  H    0.026407
   126  H   -0.003852
   127  H    0.040995
   128  H    0.034147
   129  H    0.030363
   130  H    0.043582
   131  H    0.031590
   132  H    0.042908
   133  H    0.032352
   134  H    0.067241
   135  H    0.036639
   136  H    0.049381
   137  H    0.027210
   138  H    0.054185
   139  H    0.041908
   140  H    0.056538
   141  H    0.050100
   142  H    0.042628
   143  H    0.040253
   144  H    0.040335
   145  H    0.057737
   146  H    0.036823
   147  H    0.045922
   148  H    0.027935
   149  H    0.049025
   150  H    0.040251
   151  H    0.039306
   152  H    0.050452
   153  H    0.042722
   154  H    0.059628
   155  H    0.061876
   156  H    0.053318
   157  H    0.061105
   158  H    0.073864
 Sum of Mulliken charges =  -0.00000

 Dipole moment (field-independent basis, Debye):
    X=             -4.7075    Y=              1.6416    Z=             -1.1003  Tot=              5.1055
 Quadrupole moment (field-independent basis, Debye-Ang):
   XX=           -580.2127   YY=           -469.9643   ZZ=           -513.9086
   XY=            -45.8221   XZ=             54.3304   YZ=            -10.6180

 Normal termination of Gaussian 16 at Sun Sep 19 09:48:48 2021.
