 Gaussian 16, Revision A.03,
 Gaussian 16:  ES64L-G16RevA.03 25-Dec-2016

 --------------------------------
 #p wB97XD/Def2SVP td=(nstates=5)
 --------------------------------

 --------------------------------
 TDDFT excited states in gaussian
 --------------------------------
 Symbolic Z-matrix:
 Charge =  0 Multiplicity = 1

                         Standard orientation:
 ---------------------------------------------------------------------
 Center     Atomic      Atomic             Coordinates (Angstroms)
 Number     Number       Type             X           Y           Z
 ---------------------------------------------------------------------
      1         12           0       25.312392   -0.629833    0.379138
      2          6           0       25.487820    1.921643   -1.876709
      3          6           0       24.137424    1.686469    2.780828
      4          6           0       25.345289   -3.055170    2.687794
      5          6           0       26.396507   -2.798747   -2.053819
      6          7           0       25.161670    1.580718    0.553276
      7          6           0       25.181670    2.407564   -0.577204
      8          6           0       24.834740    3.881959   -0.225413
      9          6           0       24.491533    3.697829    1.276752
     10          6           0       24.663676    2.225283    1.602796
     11          6           0       25.169192    4.592425    2.400360
     12          6           0       23.649352    4.555295   -1.047619
     13          6           0       23.373589    6.010304   -0.582445
     14          1           0       23.826172    7.063918   -1.594330
     15          7           0       24.749284   -0.677075    2.485286
     16          6           0       24.084979    0.320266    3.166269
     17          6           0       23.899074   -0.183678    4.521954
     18          6           0       24.263692   -1.567963    4.482556
     19          6           0       24.792937   -1.847663    3.184894
     20          6           0       23.337843    0.680125    5.584725
     21          6           0       24.220531   -2.500890    5.742862
     22          8           0       24.729779   -3.639471    5.777904
     23          6           0       23.604837   -2.004521    7.025058
     24          7           0       25.800341   -2.522919    0.337604
     25          6           0       25.752204   -3.400008    1.457505
     26          6           0       26.465537   -4.699060    1.158328
     27          6           0       26.326241   -4.729974   -0.362471
     28          6           0       26.109848   -3.275313   -0.754713
     29          6           0       27.957042   -4.701726    1.634413
     30          6           0       25.096740   -5.538020   -0.834355
     31          6           0       25.239133   -7.026795   -1.003938
     32          7           0       25.903282   -0.563384   -1.594933
     33          6           0       26.169564   -1.513769   -2.505405
     34          6           0       26.449612   -0.896907   -3.768297
     35          6           0       26.181525    0.444640   -3.597399
     36          6           0       25.805313    0.601533   -2.254345
     37          6           0       26.834491   -1.679785   -4.974907
     38          6           0       26.148067    1.672083   -4.271054
     39          8           0       26.361649    1.964202   -5.431842
     40          6           0       25.680853    2.720064   -3.155264
     41          6           0       26.717528    3.783265   -3.065072
     42          8           0       27.848530    3.666931   -2.660002
     43          8           0       26.207228    4.982730   -3.359616
     44          6           0       27.152880    6.159812   -3.252460
     45          1           0       23.635539    2.421355    3.413457
     46          1           0       25.355074   -3.857755    3.427991
     47          1           0       26.619783   -3.440912   -2.907938
     48          1           0       25.738434    4.482585   -0.329283
     49          1           0       23.424091    3.862097    1.427023
     50          1           0       24.534489    4.875674    3.240438
     51          1           0       25.723961    5.408644    1.937290
     52          1           0       25.892906    3.924087    2.866713
     53          1           0       22.822964    3.858902   -0.910816
     54          1           0       23.920338    4.546887   -2.103284
     55          1           0       23.769434    6.160733    0.421937
     56          1           0       22.290628    6.113195   -0.520419
     57          1           0       24.129708    0.877863    6.307439
     58          1           0       22.434297    0.176676    5.928626
     59          1           0       22.979553    1.621983    5.168983
     60          1           0       23.607134   -2.800573    7.769643
     61          1           0       22.553832   -1.861920    6.770031
     62          1           0       24.012038   -1.086344    7.447611
     63          1           0       25.969969   -5.541301    1.641971
     64          1           0       27.213221   -5.107104   -0.871118
     65          1           0       28.578258   -4.088861    0.982434
     66          1           0       28.338652   -5.722195    1.677121
     67          1           0       27.935881   -4.297604    2.645909
     68          1           0       24.661502   -5.149508   -1.754201
     69          1           0       24.264245   -5.362001   -0.152984
     70          1           0       24.514453   -7.486146   -0.332282
     71          1           0       26.209856   -7.231949   -0.552329
     72          1           0       25.191747   -7.372613   -2.036667
     73          1           0       25.962637   -1.862356   -5.601906
     74          1           0       27.440020   -2.576608   -4.840409
     75          1           0       27.470641   -1.009638   -5.553368
     76          1           0       24.730941    3.152578   -3.470270
     77          1           0       27.622362    6.101111   -2.270256
     78          1           0       26.645978    7.124121   -3.296581
     79          1           0       27.890622    6.065779   -4.049629
     80         12           0      -25.245574   -0.835453   -0.403624
     81          6           0      -26.360855    2.006251    1.625728
     82          6           0      -23.391402    1.488471   -2.257635
     83          6           0      -24.488441   -3.242488   -2.467725
     84          6           0      -26.990377   -2.947892    1.659187
     85          7           0      -25.081837    1.469804   -0.454485
     86          6           0      -25.516135    2.438985    0.544002
     87          6           0      -25.090954    3.889517    0.230324
     88          6           0      -24.296610    3.632049   -1.177948
     89          6           0      -24.239765    2.102448   -1.358654
     90          6           0      -24.909638    4.348038   -2.365746
     91          6           0      -24.276219    4.491348    1.415031
     92          6           0      -23.558739    5.773137    1.115491
     93          1           0      -23.597728    6.907111    2.115618
     94          7           0      -24.103361   -0.900709   -2.170649
     95          6           0      -23.407850    0.150993   -2.777915
     96          6           0      -22.690367   -0.345751   -3.950582
     97          6           0      -22.994231   -1.766011   -4.036972
     98          6           0      -23.901771   -2.065289   -2.868252
     99          6           0      -21.717870    0.510272   -4.842189
    100          6           0      -22.609088   -2.795311   -5.037569
    101          8           0      -22.910205   -3.979973   -4.977116
    102          6           0      -21.705198   -2.444275   -6.145777
    103          7           0      -25.585805   -2.770760   -0.360631
    104          6           0      -25.286051   -3.571972   -1.384598
    105          6           0      -25.729264   -5.034854   -1.148252
    106          6           0      -26.104580   -4.990120    0.318437
    107          6           0      -26.312701   -3.446427    0.570080
    108          6           0      -26.882103   -5.467430   -2.046790
    109          6           0      -25.243334   -5.584638    1.402516
    110          6           0      -23.883428   -4.934928    1.544139
    111          7           0      -26.512599   -0.571550    1.228170
    112          6           0      -27.076815   -1.577657    2.033069
    113          6           0      -27.812698   -0.957418    3.107144
    114          6           0      -27.459740    0.409942    2.971830
    115          6           0      -26.683192    0.612062    1.814953
    116          6           0      -28.573123   -1.612388    4.223080
    117          6           0      -27.634949    1.716919    3.677679
    118          8           0      -28.148359    1.986978    4.784485
    119          6           0      -26.953224    2.758263    2.792931
    120          6           0      -27.945225    3.864051    2.426214
    121          8           0      -29.010819    3.813575    1.743690
    122          8           0      -27.403636    5.039239    2.856302
    123          6           0      -28.171975    6.260396    2.524205
    124          1           0      -22.665420    2.172584   -2.699728
    125          1           0      -24.300724   -4.049623   -3.178818
    126          1           0      -27.588484   -3.556086    2.341135
    127          1           0      -26.022815    4.453100    0.185344
    128          1           0      -23.247723    3.895858   -1.042364
    129          1           0      -24.156752    5.008188   -2.797354
    130          1           0      -25.729130    4.947680   -1.971151
    131          1           0      -25.492733    3.752415   -3.067791
    132          1           0      -23.654566    3.674841    1.784040
    133          1           0      -24.961234    4.687454    2.239984
    134          1           0      -23.873118    6.320479    0.227149
    135          1           0      -22.488406    5.577547    1.057132
    136          1           0      -20.744900    0.032349   -4.724473
    137          1           0      -21.637367    1.549257   -4.522970
    138          1           0      -22.097329    0.434570   -5.861278
    139          1           0      -21.941298   -1.493021   -6.623165
    140          1           0      -21.849731   -3.256212   -6.857630
    141          1           0      -20.749019   -2.270831   -5.653014
    142          1           0      -24.868395   -5.666564   -1.367514
    143          1           0      -27.043600   -5.507564    0.516895
    144          1           0      -26.695484   -6.487980   -2.379085
    145          1           0      -26.960586   -4.826885   -2.924575
    146          1           0      -27.799927   -5.557501   -1.464655
    147          1           0      -25.195605   -6.661419    1.237832
    148          1           0      -25.664935   -5.387129    2.387945
    149          1           0      -23.085531   -5.671714    1.629356
    150          1           0      -23.792173   -4.342532    2.454821
    151          1           0      -23.601491   -4.295275    0.707709
    152          1           0      -28.229809   -1.218482    5.179362
    153          1           0      -28.569843   -2.696201    4.338748
    154          1           0      -29.620619   -1.340255    4.091804
    155          1           0      -26.181882    3.251688    3.384942
    156          1           0      -27.726470    6.751395    1.659268
    157          1           0      -28.090993    6.771424    3.483587
    158          1           0      -29.237641    6.062234    2.402404
 ---------------------------------------------------------------------

 SCF Done:  E(RwB97XD) =  -4070.64336541     A.U. after   19 cycles

 Excitation energies and oscillator strengths:

 Excited State   1:      Singlet-A      1.5970 eV  776.37 nm  f=0.3802  <S**2>=0.000
     309 -> 316       -0.16562
     312 -> 314        0.68823
     309 <- 316       -0.11236
 This state for optimization and/or second-order correction.
 Total Energy, E(TD-HF/TD-DFT) =  -4070.58467808
 Copying the excited state density for this state as the 1-particle RhoCI density.

 Excited State   2:      Singlet-A      1.6109 eV  769.67 nm  f=0.4083  <S**2>=0.000
     310 -> 315       -0.17047
     311 -> 313        0.68647
     310 <- 315       -0.11382

 Excited State   3:      Singlet-A      2.1162 eV  585.89 nm  f=0.1333  <S**2>=0.000
     310 -> 313        0.64980
     311 -> 315        0.25749

 Excited State   4:      Singlet-A      2.1950 eV  564.86 nm  f=0.1057  <S**2>=0.000
     309 -> 314        0.63719
     312 -> 316        0.28947

 Excited State   5:      Singlet-A      3.2155 eV  385.58 nm  f=0.0019  <S**2>=0.000
     308 -> 314        0.67733

 The electronic state is 1-A.
 Alpha  occ. eigenvalues --  -46.94125 -46.93889 -19.30999 -19.30185 -19.24622
 Alpha  occ. eigenvalues --  -19.24524 -19.23873 -19.23732 -19.23582 -19.23508
 Alpha  occ. eigenvalues --  -14.47370 -14.47163 -14.46793 -14.46398 -14.44632
 Alpha  occ. eigenvalues --  -14.43514 -14.43467 -14.43445 -10.43839 -10.42412
 Alpha  occ. eigenvalues --  -10.39198 -10.39036 -10.38757 -10.38661 -10.36172
 Alpha  occ. eigenvalues --  -10.36101 -10.36032 -10.35660 -10.35594 -10.35534
 Alpha  occ. eigenvalues --  -10.35436 -10.35173 -10.34820 -10.34763 -10.34614
 Alpha  occ. eigenvalues --  -10.34558 -10.34059 -10.33573 -10.33499 -10.33288
 Alpha  occ. eigenvalues --  -10.33232 -10.33067 -10.33056 -10.33050 -10.33011
 Alpha  occ. eigenvalues --  -10.32932 -10.32898 -10.32708 -10.32684 -10.32640
 Alpha  occ. eigenvalues --  -10.32620 -10.32611 -10.32466 -10.32304 -10.32182
 Alpha  occ. eigenvalues --  -10.31902 -10.31827 -10.31634 -10.31582 -10.31550
 Alpha  occ. eigenvalues --  -10.31437 -10.31425 -10.31386 -10.31190 -10.31026
 Alpha  occ. eigenvalues --  -10.31010 -10.30808 -10.30759 -10.30700 -10.30442
 Alpha  occ. eigenvalues --  -10.30411 -10.30162 -10.30121 -10.29816 -10.29810
 Alpha  occ. eigenvalues --  -10.29755 -10.29709 -10.29619 -10.29574 -10.29544
 Alpha  occ. eigenvalues --  -10.29525 -10.29503 -10.29134 -10.28926 -10.28715
 Alpha  occ. eigenvalues --  -10.28382  -3.20280  -3.20074  -1.93880  -1.93673
 Alpha  occ. eigenvalues --   -1.93418  -1.93258  -1.93218  -1.93049  -1.19134
 Alpha  occ. eigenvalues --   -1.18197  -1.12767  -1.12670  -1.10488  -1.10010
 Alpha  occ. eigenvalues --   -1.09389  -1.07966  -1.07551  -1.07072  -1.05965
 Alpha  occ. eigenvalues --   -1.05128  -1.04825  -1.04374  -1.04009  -1.02632
 Alpha  occ. eigenvalues --   -0.95391  -0.94268  -0.91570  -0.90975  -0.90840
 Alpha  occ. eigenvalues --   -0.90703  -0.90583  -0.90578  -0.89906  -0.89283
 Alpha  occ. eigenvalues --   -0.89149  -0.89015  -0.88516  -0.87813  -0.86695
 Alpha  occ. eigenvalues --   -0.86316  -0.85947  -0.85876  -0.84880  -0.84453
 Alpha  occ. eigenvalues --   -0.84299  -0.83533  -0.83386  -0.83201  -0.82611
 Alpha  occ. eigenvalues --   -0.82062  -0.80547  -0.80375  -0.79510  -0.79205
 Alpha  occ. eigenvalues --   -0.79177  -0.78727  -0.78182  -0.77907  -0.77467
 Alpha  occ. eigenvalues --   -0.77168  -0.75263  -0.74754  -0.73938  -0.73817
 Alpha  occ. eigenvalues --   -0.72231  -0.71462  -0.71425  -0.70963  -0.70252
 Alpha  occ. eigenvalues --   -0.69646  -0.69186  -0.68084  -0.67803  -0.67060
 Alpha  occ. eigenvalues --   -0.66910  -0.66679  -0.66673  -0.66295  -0.66188
 Alpha  occ. eigenvalues --   -0.65824  -0.64138  -0.63933  -0.62267  -0.62243
 Alpha  occ. eigenvalues --   -0.62056  -0.61167  -0.61161  -0.61098  -0.60905
 Alpha  occ. eigenvalues --   -0.60354  -0.60311  -0.60030  -0.59690  -0.59408
 Alpha  occ. eigenvalues --   -0.58563  -0.58320  -0.58031  -0.57888  -0.57480
 Alpha  occ. eigenvalues --   -0.57238  -0.57052  -0.56734  -0.56720  -0.56251
 Alpha  occ. eigenvalues --   -0.56244  -0.55452  -0.55418  -0.55358  -0.55060
 Alpha  occ. eigenvalues --   -0.54862  -0.54722  -0.54682  -0.54417  -0.54260
 Alpha  occ. eigenvalues --   -0.54110  -0.53762  -0.53624  -0.53304  -0.53098
 Alpha  occ. eigenvalues --   -0.52818  -0.52723  -0.52322  -0.52315  -0.52208
 Alpha  occ. eigenvalues --   -0.52119  -0.51961  -0.51864  -0.51715  -0.51712
 Alpha  occ. eigenvalues --   -0.51545  -0.51208  -0.50912  -0.50768  -0.50742
 Alpha  occ. eigenvalues --   -0.50717  -0.50560  -0.50440  -0.50199  -0.50051
 Alpha  occ. eigenvalues --   -0.50014  -0.49719  -0.49683  -0.49560  -0.49470
 Alpha  occ. eigenvalues --   -0.49116  -0.48944  -0.48869  -0.48715  -0.48481
 Alpha  occ. eigenvalues --   -0.48454  -0.48439  -0.48108  -0.47985  -0.47951
 Alpha  occ. eigenvalues --   -0.47884  -0.47605  -0.47477  -0.47401  -0.47253
 Alpha  occ. eigenvalues --   -0.46844  -0.46685  -0.46493  -0.46288  -0.46208
 Alpha  occ. eigenvalues --   -0.46126  -0.45874  -0.45713  -0.45702  -0.45518
 Alpha  occ. eigenvalues --   -0.45400  -0.45303  -0.45175  -0.44839  -0.44617
 Alpha  occ. eigenvalues --   -0.44482  -0.44143  -0.43940  -0.43865  -0.43753
 Alpha  occ. eigenvalues --   -0.43742  -0.43569  -0.43563  -0.43248  -0.43133
 Alpha  occ. eigenvalues --   -0.42858  -0.42843  -0.42582  -0.42417  -0.42322
 Alpha  occ. eigenvalues --   -0.41993  -0.41897  -0.41767  -0.41172  -0.41016
 Alpha  occ. eigenvalues --   -0.40814  -0.40344  -0.40066  -0.39423  -0.39329
 Alpha  occ. eigenvalues --   -0.39160  -0.39066  -0.38810  -0.38697  -0.38601
 Alpha  occ. eigenvalues --   -0.38496  -0.38128  -0.36320  -0.36286  -0.36079
 Alpha  occ. eigenvalues --   -0.36028  -0.35497  -0.35317  -0.33745  -0.33712
 Alpha  occ. eigenvalues --   -0.33322  -0.33277  -0.32840  -0.32606  -0.32461
 Alpha  occ. eigenvalues --   -0.32310  -0.31311  -0.31276  -0.26571  -0.26199
 Alpha  occ. eigenvalues --   -0.23301  -0.22956
 Alpha virt. eigenvalues --   -0.07670  -0.07455   0.00238   0.00340   0.02353
 Alpha virt. eigenvalues --    0.02416   0.04280   0.04442   0.06236   0.06345
 Alpha virt. eigenvalues --    0.06667   0.07268   0.07676   0.07968   0.08358

 Mulliken charges:
               1
     1  Mg   0.971084
     2  C   -0.006153
     3  C   -0.072413
     4  C   -0.076444
     5  C   -0.099554
     6  N   -0.340959
     7  C   -0.009269
     8  C   -0.022457
     9  C   -0.153785
    10  C    0.065419
    11  C    0.013331
    12  C   -0.006032
    13  C   -0.111473
    14  H    0.047905
    15  N   -0.435323
    16  C    0.162675
    17  C   -0.218422
    18  C   -0.077979
    19  C    0.134542
    20  C    0.083710
    21  C    0.066547
    22  O   -0.256617
    23  C   -0.006727
    24  N   -0.468420
    25  C    0.098816
    26  C   -0.069482
    27  C   -0.080571
    28  C    0.140135
    29  C    0.040748
    30  C   -0.043655
    31  C   -0.003972
    32  N   -0.428017
    33  C    0.106754
    34  C   -0.178806
    35  C    0.017648
    36  C    0.136889
    37  C    0.064619
    38  C    0.098755
    39  O   -0.191654
    40  C   -0.123659
    41  C    0.249387
    42  O   -0.247085
    43  O   -0.362916
    44  C    0.139195
    45  H   -0.004166
    46  H    0.019936
    47  H   -0.001768
    48  H    0.044543
    49  H    0.034714
    50  H    0.042245
    51  H    0.043411
    52  H    0.037665
    53  H    0.035407
    54  H    0.054650
    55  H    0.050975
    56  H    0.052963
    57  H    0.065772
    58  H    0.049311
    59  H    0.025683
    60  H    0.051281
    61  H    0.045757
    62  H    0.060820
    63  H    0.028071
    64  H    0.023090
    65  H    0.041817
    66  H    0.042134
    67  H    0.041583
    68  H    0.022322
    69  H    0.020609
    70  H    0.035332
    71  H    0.017919
    72  H    0.051252
    73  H    0.062377
    74  H    0.045056
    75  H    0.051506
    76  H    0.073849
    77  H    0.057990
    78  H    0.059955
    79  H    0.069630
    80  Mg   0.974979
    81  C   -0.025808
    82  C   -0.091635
    83  C   -0.091464
    84  C   -0.077697
    85  N   -0.366162
    86  C   -0.005887
    87  C   -0.064686
    88  C   -0.111873
    89  C    0.088918
    90  C    0.051909
    91  C   -0.006010
    92  C   -0.128095
    93  H    0.029123
    94  N   -0.467427
    95  C    0.163053
    96  C   -0.170442
    97  C   -0.057360
    98  C    0.152425
    99  C    0.067359
   100  C    0.021990
   101  O   -0.243481
   102  C    0.001942
   103  N   -0.422418
   104  C    0.103801
   105  C   -0.087999
   106  C   -0.066349
   107  C    0.109938
   108  C    0.042971
   109  C    0.010328
   110  C   -0.067823
   111  N   -0.449645
   112  C    0.078832
   113  C   -0.151476
   114  C   -0.101727
   115  C    0.167287
   116  C    0.064811
   117  C    0.158623
   118  O   -0.236403
   119  C   -0.063468
   120  C    0.278973
   121  O   -0.286763
   122  O   -0.366313
   123  C    0.125343
   124  H   -0.007299
   125  H    0.021581
   126  H    0.001327
   127  H    0.052026
   128  H    0.035085
   129  H    0.045578
   130  H    0.021898
   131  H    0.048123
   132  H    0.034817
   133  H    0.058196
   134  H    0.052523
   135  H    0.055212
   136  H    0.061355
   137  H    0.044189
   138  H    0.067007
   139  H    0.027181
   140  H    0.066574
   141  H    0.059700
   142  H    0.041420
   143  H    0.013882
   144  H    0.035662
   145  H    0.048288
   146  H    0.036557
   147  H    0.035168
   148  H    0.029063
   149  H    0.029058
   150  H    0.034939
   151  H    0.040814
   152  H    0.061472
   153  H    0.026468
   154  H    0.055508
   155  H    0.079555
   156  H    0.065860
   157  H    0.060830
   158  H    0.076187
 Sum of Mulliken charges =  -0.00000

 Dipole moment (field-independent basis, Debye):
    X=              1.4444    Y=              2.9506    Z=             -1.3490  Tot=              3.5514
 Quadrupole moment (field-independent basis, Debye-Ang):
   XX=           -889.6854   YY=           -455.7126   ZZ=           -537.4219
   XY=             21.6317   XZ=            122.5985   YZ=              4.7413

 Normal termination of Gaussian 16 at Mon Sep 20 02:25:56 2021.
