 Gaussian 16, Revision A.03,
 Gaussian 16:  ES64L-G16RevA.03 25-Dec-2016

 --------------------------------
 #p wB97XD/Def2SVP td=(nstates=5)
 --------------------------------

 --------------------------------
 TDDFT excited states in gaussian
 --------------------------------
 Symbolic Z-matrix:
 Charge =  0 Multiplicity = 1

                         Standard orientation:
 ---------------------------------------------------------------------
 Center     Atomic      Atomic             Coordinates (Angstroms)
 Number     Number       Type             X           Y           Z
 ---------------------------------------------------------------------
      1         12           0       12.777394    0.279026    0.345785
      2          6           0        9.488057   -0.562014   -0.495977
      3          6           0       13.611941    0.289358   -2.828041
      4          6           0       16.088509    0.346434    1.259991
      5          6           0       11.997456   -0.235483    3.750560
      6          7           0       11.629732    0.002976   -1.400067
      7          6           0       10.291013   -0.268987   -1.577803
      8          6           0        9.882562   -0.165908   -3.041618
      9          6           0       11.273678   -0.118291   -3.751308
     10          6           0       12.206850    0.174632   -2.628471
     11          6           0       11.692988   -1.257469   -4.655171
     12          6           0        8.905401    1.007729   -3.370212
     13          6           0        8.467992    1.101671   -4.836028
     14          1           0        6.968229    1.178630   -5.081559
     15          7           0       14.691409    0.251468   -0.706453
     16          6           0       14.784328    0.403685   -2.043956
     17          6           0       16.163993    0.576844   -2.405203
     18          6           0       16.913990    0.485326   -1.220023
     19          6           0       15.886302    0.339525   -0.153506
     20          6           0       16.648237    0.748446   -3.829502
     21          6           0       18.386419    0.618317   -1.007354
     22          8           0       19.008610    0.383618    0.062998
     23          6           0       19.279751    1.119984   -2.135300
     24          7           0       13.857066    0.057317    2.200429
     25          6           0       15.207644    0.057422    2.287521
     26          6           0       15.651304    0.098610    3.847904
     27          6           0       14.285514    0.383261    4.565940
     28          6           0       13.302277    0.131432    3.468216
     29          6           0       16.337183   -1.272591    4.224345
     30          6           0       14.160817    1.903550    4.947628
     31          6           0       14.402126    2.961401    3.882039
     32          7           0       11.041345   -0.241313    1.490305
     33          6           0       10.926981   -0.394076    2.844801
     34          6           0        9.603380   -0.724165    3.106333
     35          6           0        8.928640   -0.844498    1.857430
     36          6           0        9.854285   -0.539594    0.894400
     37          6           0        8.956680   -1.039790    4.408827
     38          6           0        7.671116   -1.164977    1.144751
     39          8           0        6.567080   -1.550317    1.512130
     40          6           0        7.976982   -0.888200   -0.428260
     41          6           0        7.459633   -2.003741   -1.264739
     42          8           0        7.459872   -3.223939   -0.924069
     43          8           0        6.864589   -1.454525   -2.315013
     44          6           0        5.920544   -2.328965   -2.984198
     45          1           0       13.922925    0.418451   -3.866945
     46          1           0       17.134640    0.402710    1.570203
     47          1           0       11.764784   -0.258573    4.816325
     48          1           0        9.284904   -1.061729   -3.211239
     49          1           0       11.387795    0.747111   -4.405020
     50          1           0       10.900036   -1.900980   -5.036198
     51          1           0       12.444694   -1.859218   -4.143646
     52          1           0       12.341679   -0.830963   -5.420538
     53          1           0        9.346977    1.951939   -3.050463
     54          1           0        8.010140    0.904566   -2.757922
     55          1           0        8.558619    0.139219   -5.339277
     56          1           0        9.012814    1.885565   -5.362954
     57          1           0       15.883868    0.607184   -4.593535
     58          1           0       17.348056   -0.006524   -4.186962
     59          1           0       17.107510    1.719334   -4.017901
     60          1           0       19.308968    0.349097   -2.904852
     61          1           0       20.332865    1.113864   -1.855121
     62          1           0       19.017151    2.120715   -2.480246
     63          1           0       16.401417    0.875960    3.993446
     64          1           0       14.219823   -0.371163    5.349897
     65          1           0       16.606699   -1.876711    3.357852
     66          1           0       15.716183   -1.929690    4.833398
     67          1           0       17.290818   -1.156386    4.737293
     68          1           0       14.920555    1.942782    5.728310
     69          1           0       13.211974    2.181816    5.405290
     70          1           0       14.846494    2.506930    2.996289
     71          1           0       14.945819    3.851643    4.196345
     72          1           0       13.397740    3.347920    3.708907
     73          1           0        9.083191   -0.270794    5.171304
     74          1           0        9.470001   -1.931476    4.767523
     75          1           0        7.899018   -1.279430    4.304080
     76          1           0        7.386579    0.000370   -0.650301
     77          1           0        5.013548   -1.777256   -3.234482
     78          1           0        5.570735   -3.189211   -2.413987
     79          1           0        6.410910   -2.646967   -3.904841
     80         12           0      -12.462482   -0.525938   -0.482200
     81          6           0      -12.197506    2.876002    0.165593
     82          6           0       -8.931078   -0.677713   -0.736569
     83          6           0      -12.560989   -3.825211    0.036690
     84          6           0      -15.849285   -0.314899    0.473673
     85          7           0      -10.693828    0.935064    0.055786
     86          6           0      -10.911913    2.291546    0.028808
     87          6           0       -9.624476    3.054446    0.020857
     88          6           0       -8.603981    1.952754   -0.524345
     89          6           0       -9.414369    0.616042   -0.382032
     90          6           0       -8.059444    2.176739   -2.024341
     91          6           0       -9.342012    3.709815    1.469355
     92          6           0       -8.509889    4.890207    1.447896
     93          1           0       -7.266325    4.786877    2.356179
     94          7           0      -11.013281   -2.066151   -0.540999
     95          6           0       -9.602805   -1.923113   -0.663951
     96          6           0       -9.029544   -3.257978   -0.698587
     97          6           0      -10.060771   -4.207565   -0.497985
     98          6           0      -11.309272   -3.378278   -0.407199
     99          6           0       -7.564621   -3.483610   -0.755152
    100          6           0       -9.823372   -5.769733   -0.361565
    101          8           0       -8.662944   -6.166167   -0.457657
    102          6           0      -10.970984   -6.771308   -0.431633
    103          7           0      -13.974742   -1.806127    0.255913
    104          6           0      -13.760527   -3.146208    0.243520
    105          6           0      -15.043391   -4.004047    0.834960
    106          6           0      -16.178346   -2.873270    0.765561
    107          6           0      -15.355353   -1.580962    0.464244
    108          6           0      -15.467730   -5.269954   -0.001724
    109          6           0      -16.974834   -2.740312    2.064928
    110          6           0      -18.510503   -2.931103    2.077244
    111          7           0      -13.818813    0.983729   -0.101264
    112          6           0      -15.141372    0.915307    0.228203
    113          6           0      -15.682867    2.245413    0.277648
    114          6           0      -14.486797    3.056774    0.309127
    115          6           0      -13.390735    2.198862    0.115303
    116          6           0      -17.108660    2.619733    0.562691
    117          6           0      -14.011957    4.407478    0.525810
    118          8           0      -14.616740    5.435371    0.571222
    119          6           0      -12.439748    4.401826    0.386514
    120          6           0      -11.895684    5.192197   -0.823916
    121          8           0      -12.294542    5.070083   -1.962145
    122          8           0      -10.946629    6.137444   -0.383052
    123          6           0      -10.469198    7.073696   -1.355398
    124          1           0       -7.849075   -0.646862   -0.875168
    125          1           0      -12.609217   -4.837394    0.443228
    126          1           0      -16.905830   -0.296868    0.747252
    127          1           0       -9.573767    3.775400   -0.795738
    128          1           0       -7.749348    1.922492    0.152478
    129          1           0       -6.977395    2.260321   -1.923732
    130          1           0       -8.481766    3.060552   -2.501482
    131          1           0       -8.312001    1.271538   -2.577300
    132          1           0       -8.816236    2.918108    2.002817
    133          1           0      -10.357203    3.797049    1.857436
    134          1           0       -9.144814    5.711132    1.778982
    135          1           0       -8.126093    5.058913    0.441783
    136          1           0       -7.027275   -2.573008   -1.019440
    137          1           0       -7.326165   -4.176093   -1.562822
    138          1           0       -7.177826   -3.818073    0.207748
    139          1           0      -11.661353   -6.708371    0.410105
    140          1           0      -10.530852   -7.767098   -0.493793
    141          1           0      -11.496036   -6.594635   -1.370428
    142          1           0      -14.757404   -4.194307    1.869060
    143          1           0      -16.839667   -2.938498   -0.098716
    144          1           0      -15.273259   -6.173572    0.575259
    145          1           0      -14.885055   -5.307987   -0.922908
    146          1           0      -16.533368   -5.163408   -0.207441
    147          1           0      -16.742009   -1.811666    2.585500
    148          1           0      -16.642103   -3.393153    2.871731
    149          1           0      -19.126266   -2.049297    2.256397
    150          1           0      -18.702290   -3.590380    2.924152
    151          1           0      -18.862251   -3.368740    1.142206
    152          1           0      -17.240180    3.648218    0.225594
    153          1           0      -17.332142    2.825922    1.608947
    154          1           0      -17.853572    1.916196    0.191814
    155          1           0      -12.115201    4.902195    1.299304
    156          1           0       -9.485430    7.295103   -0.940269
    157          1           0      -10.998746    8.024743   -1.301718
    158          1           0      -10.519556    6.652866   -2.358825
 ---------------------------------------------------------------------

 SCF Done:  E(RwB97XD) =  -4070.59338976     A.U. after   19 cycles

 Excitation energies and oscillator strengths:

 Excited State   1:      Singlet-A      1.6358 eV  757.93 nm  f=0.4165  <S**2>=0.000
     309 -> 315       -0.17792
     312 -> 314        0.68427
     309 <- 315       -0.11619
 This state for optimization and/or second-order correction.
 Total Energy, E(TD-HF/TD-DFT) =  -4070.53327386
 Copying the excited state density for this state as the 1-particle RhoCI density.

 Excited State   2:      Singlet-A      1.6682 eV  743.23 nm  f=0.3707  <S**2>=0.000
     310 -> 316       -0.17083
     311 -> 313        0.68490
     310 <- 316       -0.11133

 Excited State   3:      Singlet-A      2.0912 eV  592.90 nm  f=0.1674  <S**2>=0.000
     310 -> 313        0.66091
     311 -> 316        0.23078

 Excited State   4:      Singlet-A      2.1966 eV  564.45 nm  f=0.1040  <S**2>=0.000
     309 -> 314        0.63435
     312 -> 315        0.29411

 Excited State   5:      Singlet-A      3.0725 eV  403.53 nm  f=0.0092  <S**2>=0.000
     308 -> 313        0.67869

 The electronic state is 1-A.
 Alpha  occ. eigenvalues --  -46.96076 -46.95743 -19.31876 -19.30288 -19.25597
 Alpha  occ. eigenvalues --  -19.24671 -19.24243 -19.24041 -19.23481 -19.23176
 Alpha  occ. eigenvalues --  -14.47539 -14.46849 -14.46540 -14.46442 -14.44755
 Alpha  occ. eigenvalues --  -14.44384 -14.43548 -14.42610 -10.43882 -10.43091
 Alpha  occ. eigenvalues --  -10.40327 -10.39823 -10.38849 -10.37905 -10.36226
 Alpha  occ. eigenvalues --  -10.35833 -10.35763 -10.35635 -10.35224 -10.35190
 Alpha  occ. eigenvalues --  -10.35127 -10.35043 -10.35030 -10.34899 -10.34766
 Alpha  occ. eigenvalues --  -10.34448 -10.34378 -10.34076 -10.34023 -10.33521
 Alpha  occ. eigenvalues --  -10.33283 -10.33253 -10.32630 -10.32626 -10.32620
 Alpha  occ. eigenvalues --  -10.32491 -10.32472 -10.32403 -10.32380 -10.32377
 Alpha  occ. eigenvalues --  -10.32372 -10.32268 -10.32176 -10.32159 -10.32015
 Alpha  occ. eigenvalues --  -10.31947 -10.31915 -10.31913 -10.31841 -10.31831
 Alpha  occ. eigenvalues --  -10.31818 -10.31817 -10.31630 -10.31606 -10.31058
 Alpha  occ. eigenvalues --  -10.30863 -10.30674 -10.30521 -10.30515 -10.30467
 Alpha  occ. eigenvalues --  -10.30434 -10.30418 -10.30404 -10.30293 -10.30290
 Alpha  occ. eigenvalues --  -10.30239 -10.30125 -10.30063 -10.29605 -10.29548
 Alpha  occ. eigenvalues --  -10.29463 -10.29320 -10.29264 -10.28720 -10.28556
 Alpha  occ. eigenvalues --  -10.28281  -3.21960  -3.21588  -1.95491  -1.95183
 Alpha  occ. eigenvalues --   -1.95134  -1.94891  -1.94680  -1.94567  -1.20308
 Alpha  occ. eigenvalues --   -1.18170  -1.12920  -1.12463  -1.11011  -1.10864
 Alpha  occ. eigenvalues --   -1.10664  -1.08118  -1.07526  -1.06819  -1.06406
 Alpha  occ. eigenvalues --   -1.05343  -1.04893  -1.04484  -1.04308  -1.03559
 Alpha  occ. eigenvalues --   -0.94118  -0.93809  -0.91513  -0.91215  -0.91030
 Alpha  occ. eigenvalues --   -0.90368  -0.90191  -0.89993  -0.89992  -0.89078
 Alpha  occ. eigenvalues --   -0.88729  -0.88306  -0.87687  -0.87609  -0.86737
 Alpha  occ. eigenvalues --   -0.85920  -0.85692  -0.85173  -0.84789  -0.84541
 Alpha  occ. eigenvalues --   -0.84084  -0.83835  -0.83320  -0.83028  -0.82655
 Alpha  occ. eigenvalues --   -0.82149  -0.80899  -0.79682  -0.79518  -0.79282
 Alpha  occ. eigenvalues --   -0.79219  -0.78613  -0.78079  -0.77986  -0.77203
 Alpha  occ. eigenvalues --   -0.76818  -0.74737  -0.74577  -0.73735  -0.73258
 Alpha  occ. eigenvalues --   -0.71903  -0.71107  -0.71074  -0.70381  -0.70339
 Alpha  occ. eigenvalues --   -0.69707  -0.69330  -0.68397  -0.67778  -0.67486
 Alpha  occ. eigenvalues --   -0.67221  -0.66758  -0.66697  -0.66528  -0.66376
 Alpha  occ. eigenvalues --   -0.66026  -0.64735  -0.64722  -0.63095  -0.61764
 Alpha  occ. eigenvalues --   -0.61618  -0.61364  -0.61243  -0.60905  -0.60556
 Alpha  occ. eigenvalues --   -0.60455  -0.59906  -0.59536  -0.59380  -0.59263
 Alpha  occ. eigenvalues --   -0.58253  -0.58242  -0.57980  -0.57746  -0.57397
 Alpha  occ. eigenvalues --   -0.57308  -0.57217  -0.56868  -0.56628  -0.56362
 Alpha  occ. eigenvalues --   -0.55859  -0.55265  -0.55120  -0.55107  -0.54922
 Alpha  occ. eigenvalues --   -0.54602  -0.54488  -0.54425  -0.54334  -0.53957
 Alpha  occ. eigenvalues --   -0.53667  -0.53618  -0.53535  -0.53517  -0.52936
 Alpha  occ. eigenvalues --   -0.52887  -0.52640  -0.52539  -0.52440  -0.52073
 Alpha  occ. eigenvalues --   -0.52058  -0.51942  -0.51594  -0.51549  -0.51503
 Alpha  occ. eigenvalues --   -0.51095  -0.51076  -0.50979  -0.50839  -0.50638
 Alpha  occ. eigenvalues --   -0.50515  -0.50468  -0.50295  -0.50282  -0.50036
 Alpha  occ. eigenvalues --   -0.49855  -0.49728  -0.49236  -0.49154  -0.49151
 Alpha  occ. eigenvalues --   -0.48909  -0.48844  -0.48718  -0.48467  -0.48307
 Alpha  occ. eigenvalues --   -0.48276  -0.48000  -0.47900  -0.47802  -0.47786
 Alpha  occ. eigenvalues --   -0.47498  -0.47383  -0.47102  -0.47095  -0.46809
 Alpha  occ. eigenvalues --   -0.46662  -0.46639  -0.46371  -0.46360  -0.46230
 Alpha  occ. eigenvalues --   -0.45934  -0.45827  -0.45821  -0.45660  -0.45377
 Alpha  occ. eigenvalues --   -0.45374  -0.45281  -0.45172  -0.44993  -0.44848
 Alpha  occ. eigenvalues --   -0.44637  -0.44589  -0.44552  -0.44358  -0.44334
 Alpha  occ. eigenvalues --   -0.44097  -0.44017  -0.43831  -0.43396  -0.43313
 Alpha  occ. eigenvalues --   -0.43168  -0.42874  -0.42807  -0.42795  -0.42406
 Alpha  occ. eigenvalues --   -0.42280  -0.41637  -0.41542  -0.41154  -0.40631
 Alpha  occ. eigenvalues --   -0.40537  -0.40099  -0.39870  -0.39615  -0.39396
 Alpha  occ. eigenvalues --   -0.38962  -0.38889  -0.38610  -0.38597  -0.38360
 Alpha  occ. eigenvalues --   -0.38160  -0.37489  -0.36682  -0.36169  -0.36146
 Alpha  occ. eigenvalues --   -0.35969  -0.35458  -0.35065  -0.34183  -0.33492
 Alpha  occ. eigenvalues --   -0.33368  -0.33201  -0.32984  -0.32348  -0.32099
 Alpha  occ. eigenvalues --   -0.31867  -0.31220  -0.30651  -0.26181  -0.26010
 Alpha  occ. eigenvalues --   -0.23614  -0.22905
 Alpha virt. eigenvalues --   -0.07742  -0.07040   0.00333   0.00623   0.01963
 Alpha virt. eigenvalues --    0.02599   0.04336   0.04510   0.04563   0.04920
 Alpha virt. eigenvalues --    0.06596   0.06795   0.07117   0.07170   0.08342

 Mulliken charges:
               1
     1  Mg   0.940904
     2  C    0.025426
     3  C   -0.076109
     4  C   -0.054353
     5  C   -0.071329
     6  N   -0.396510
     7  C   -0.020136
     8  C   -0.029432
     9  C   -0.089435
    10  C    0.104660
    11  C    0.044356
    12  C    0.022426
    13  C   -0.128761
    14  H    0.030437
    15  N   -0.379771
    16  C    0.094966
    17  C   -0.112163
    18  C   -0.048658
    19  C    0.101511
    20  C    0.053124
    21  C    0.041215
    22  O   -0.259314
    23  C   -0.008994
    24  N   -0.351669
    25  C    0.069249
    26  C   -0.145301
    27  C   -0.029884
    28  C    0.038978
    29  C    0.014265
    30  C   -0.014296
    31  C   -0.051432
    32  N   -0.418270
    33  C    0.151786
    34  C   -0.204288
    35  C   -0.041201
    36  C    0.088523
    37  C    0.077114
    38  C    0.161895
    39  O   -0.201893
    40  C   -0.129116
    41  C    0.263401
    42  O   -0.280458
    43  O   -0.330343
    44  C    0.127229
    45  H   -0.027668
    46  H    0.024878
    47  H   -0.001077
    48  H    0.031516
    49  H    0.031521
    50  H    0.056332
    51  H    0.033633
    52  H    0.025685
    53  H    0.024421
    54  H    0.044858
    55  H    0.046572
    56  H    0.062190
    57  H    0.028547
    58  H    0.048717
    59  H    0.055087
    60  H    0.043761
    61  H    0.044678
    62  H    0.064171
    63  H    0.043804
    64  H    0.030787
    65  H    0.043551
    66  H    0.032480
    67  H    0.040139
    68  H    0.029626
    69  H    0.030956
    70  H    0.055280
    71  H    0.043841
    72  H    0.033801
    73  H    0.035239
    74  H    0.042929
    75  H    0.057954
    76  H    0.081867
    77  H    0.053242
    78  H    0.078703
    79  H    0.049630
    80  Mg   0.960921
    81  C   -0.078260
    82  C   -0.075666
    83  C   -0.094031
    84  C   -0.091051
    85  N   -0.325343
    86  C   -0.039457
    87  C   -0.084315
    88  C   -0.134203
    89  C    0.034864
    90  C    0.014874
    91  C    0.052929
    92  C   -0.094453
    93  H    0.020353
    94  N   -0.466743
    95  C    0.174804
    96  C   -0.161854
    97  C   -0.102728
    98  C    0.203834
    99  C    0.095438
   100  C    0.076175
   101  O   -0.234077
   102  C   -0.028178
   103  N   -0.403801
   104  C    0.073702
   105  C   -0.123930
   106  C   -0.024153
   107  C    0.034438
   108  C    0.024325
   109  C   -0.029697
   110  C   -0.054229
   111  N   -0.416092
   112  C    0.139536
   113  C   -0.161111
   114  C   -0.085717
   115  C    0.221434
   116  C    0.066629
   117  C    0.108963
   118  O   -0.181988
   119  C   -0.079675
   120  C    0.276275
   121  O   -0.221123
   122  O   -0.387162
   123  C    0.130605
   124  H    0.011761
   125  H   -0.019603
   126  H   -0.007475
   127  H    0.027109
   128  H    0.037563
   129  H    0.044000
   130  H    0.052193
   131  H    0.042040
   132  H    0.037187
   133  H    0.036931
   134  H    0.063256
   135  H    0.049524
   136  H    0.010805
   137  H    0.056731
   138  H    0.067044
   139  H    0.071087
   140  H    0.057762
   141  H    0.067557
   142  H    0.056047
   143  H    0.043444
   144  H    0.039987
   145  H    0.046074
   146  H    0.045120
   147  H    0.031573
   148  H    0.018950
   149  H    0.039975
   150  H    0.034057
   151  H    0.032168
   152  H    0.049707
   153  H    0.043474
   154  H    0.043426
   155  H    0.072451
   156  H    0.046066
   157  H    0.054050
   158  H    0.066901
 Sum of Mulliken charges =  -0.00000

 Dipole moment (field-independent basis, Debye):
    X=              2.5377    Y=              1.1134    Z=             -4.5220  Tot=              5.3036
 Quadrupole moment (field-independent basis, Debye-Ang):
   XX=           -453.6569   YY=           -529.2898   ZZ=           -470.3862
   XY=            125.5888   XZ=            -57.4944   YZ=              1.3455

 Normal termination of Gaussian 16 at Sun Sep 19 01:14:46 2021.
