 Gaussian 16, Revision A.03,
 Gaussian 16:  ES64L-G16RevA.03 25-Dec-2016

 --------------------------------
 #p wB97XD/Def2SVP td=(nstates=5)
 --------------------------------

 --------------------------------
 TDDFT excited states in gaussian
 --------------------------------
 Symbolic Z-matrix:
 Charge =  0 Multiplicity = 1

                         Standard orientation:
 ---------------------------------------------------------------------
 Center     Atomic      Atomic             Coordinates (Angstroms)
 Number     Number       Type             X           Y           Z
 ---------------------------------------------------------------------
      1         12           0      -30.171915   -0.079078   -0.098943
      2          6           0      -26.955746    0.965945   -0.894755
      3          6           0      -28.694669   -3.234867    0.719770
      4          6           0      -33.050842   -1.055314    1.151668
      5          6           0      -31.224550    3.270056   -0.280559
      6          7           0      -28.055723   -0.958498    0.017944
      7          6           0      -26.932614   -0.323221   -0.462499
      8          6           0      -25.707392   -1.227582   -0.303657
      9          6           0      -26.367251   -2.612543   -0.057285
     10          6           0      -27.792006   -2.271882    0.292469
     11          6           0      -26.335695   -3.680545   -1.220105
     12          6           0      -24.772999   -0.783345    0.833696
     13          6           0      -23.487908   -1.513044    0.929787
     14          1           0      -22.307216   -0.791949    1.685489
     15          7           0      -30.815031   -1.907787    0.836635
     16          6           0      -30.073057   -3.079801    1.051013
     17          6           0      -30.939057   -4.048611    1.663019
     18          6           0      -32.191989   -3.381522    1.926205
     19          6           0      -32.061938   -2.038561    1.262186
     20          6           0      -30.457684   -5.463565    2.087380
     21          6           0      -33.353124   -4.060567    2.659457
     22          8           0      -33.337003   -5.249624    2.931291
     23          6           0      -34.532822   -3.250600    3.041235
     24          7           0      -31.951864    0.938730    0.153455
     25          6           0      -33.007225    0.285985    0.652064
     26          6           0      -34.189390    1.304418    0.914808
     27          6           0      -33.630932    2.725598    0.520382
     28          6           0      -32.108521    2.302864    0.138936
     29          6           0      -35.574381    0.969426    0.301430
     30          6           0      -33.674236    3.673551    1.737966
     31          6           0      -33.845850    5.160081    1.402598
     32          7           0      -29.331837    1.802748   -0.502103
     33          6           0      -29.886334    3.041319   -0.665213
     34          6           0      -28.857053    3.944402   -1.193887
     35          6           0      -27.753882    3.154612   -1.377266
     36          6           0      -28.038162    1.896824   -0.895810
     37          6           0      -29.060096    5.410394   -1.590112
     38          6           0      -26.384598    3.168383   -1.796197
     39          8           0      -25.690641    4.036255   -2.265882
     40          6           0      -25.812171    1.739318   -1.513102
     41          6           0      -25.448427    1.134270   -2.823848
     42          8           0      -26.128493    1.077029   -3.810602
     43          8           0      -24.203089    0.496113   -2.690369
     44          6           0      -23.740595   -0.210889   -3.850623
     45          1           0      -28.169856   -4.183157    0.849560
     46          1           0      -34.064233   -1.239746    1.515531
     47          1           0      -31.535555    4.308159   -0.415922
     48          1           0      -25.230355   -1.254033   -1.282433
     49          1           0      -26.017926   -3.157290    0.819129
     50          1           0      -25.939973   -4.576172   -0.741663
     51          1           0      -26.003832   -3.351763   -2.205290
     52          1           0      -27.374881   -3.934204   -1.428997
     53          1           0      -25.154774   -0.935332    1.843640
     54          1           0      -24.573603    0.285173    0.751642
     55          1           0      -23.182023   -1.739862   -0.091529
     56          1           0      -23.667899   -2.481801    1.395523
     57          1           0      -30.406379   -5.269552    3.159221
     58          1           0      -29.431731   -5.719147    1.821651
     59          1           0      -31.020682   -6.375745    1.888882
     60          1           0      -34.113654   -2.374343    3.535761
     61          1           0      -35.105304   -3.806811    3.783701
     62          1           0      -35.015012   -3.042181    2.085850
     63          1           0      -34.363065    1.272298    1.990775
     64          1           0      -34.105447    3.186908   -0.345135
     65          1           0      -36.229900    0.643771    1.109734
     66          1           0      -35.431635    0.247973   -0.502393
     67          1           0      -36.043774    1.881848   -0.066285
     68          1           0      -32.732793    3.499310    2.258330
     69          1           0      -34.414500    3.398776    2.489637
     70          1           0      -34.748800    5.429197    1.951721
     71          1           0      -33.889088    5.383055    0.336450
     72          1           0      -33.032145    5.741532    1.836241
     73          1           0      -28.286648    6.109298   -1.273384
     74          1           0      -30.029590    5.628699   -1.141686
     75          1           0      -29.297222    5.401620   -2.654087
     76          1           0      -24.934024    1.882284   -0.883289
     77          1           0      -22.902091    0.363188   -4.244999
     78          1           0      -24.435923   -0.418292   -4.664368
     79          1           0      -23.405166   -1.192671   -3.517518
     80         12           0       29.452073    0.407262    0.632990
     81          6           0       28.424336   -2.138126   -1.447076
     82          6           0       28.916174    2.688770   -2.064381
     83          6           0       30.753465    2.826928    2.425829
     84          6           0       30.117522   -1.882985    3.177688
     85          7           0       28.739995    0.205793   -1.480289
     86          6           0       28.348775   -0.915763   -2.092364
     87          6           0       27.808916   -0.553994   -3.514457
     88          6           0       28.127219    1.001249   -3.690953
     89          6           0       28.698353    1.338262   -2.300036
     90          6           0       29.208672    1.374684   -4.686516
     91          6           0       26.345131   -0.945162   -3.767393
     92          6           0       26.197423   -1.735936   -5.056406
     93          1           0       24.880332   -1.725846   -5.845892
     94          7           0       29.706827    2.482733    0.245818
     95          6           0       29.397146    3.232891   -0.851866
     96          6           0       29.668588    4.587694   -0.662820
     97          6           0       30.332460    4.679107    0.610070
     98          6           0       30.278164    3.286055    1.173999
     99          6           0       29.354442    5.671871   -1.683480
    100          6           0       30.996780    5.882886    1.258103
    101          8           0       31.666953    5.704393    2.293650
    102          6           0       30.970002    7.219231    0.636163
    103          7           0       30.257425    0.431766    2.500295
    104          6           0       30.700051    1.588724    3.108004
    105          6           0       31.292251    1.384868    4.551867
    106          6           0       30.793698   -0.098277    4.824644
    107          6           0       30.379595   -0.564568    3.416946
    108          6           0       32.837041    1.544327    4.841051
    109          6           0       29.761597   -0.348986    6.015972
    110          6           0       28.330640    0.017463    5.723083
    111          7           0       29.456069   -1.572818    0.840949
    112          6           0       29.740528   -2.411233    1.901977
    113          6           0       29.526055   -3.764036    1.585902
    114          6           0       28.977878   -3.677978    0.300950
    115          6           0       28.941090   -2.321058   -0.133908
    116          6           0       29.727651   -4.840293    2.565688
    117          6           0       28.566993   -4.538396   -0.740830
    118          8           0       28.609666   -5.770127   -0.761869
    119          6           0       28.140120   -3.583456   -1.974056
    120          6           0       28.926039   -3.937855   -3.142796
    121          8           0       30.091419   -3.679227   -3.339257
    122          8           0       28.217677   -4.707558   -3.959861
    123          6           0       28.853414   -5.267593   -5.113988
    124          1           0       28.798523    3.369552   -2.909541
    125          1           0       31.212244    3.520505    3.133135
    126          1           0       30.341600   -2.565930    3.999835
    127          1           0       28.502584   -1.125318   -4.130491
    128          1           0       27.211470    1.435500   -4.093670
    129          1           0       29.596098    0.538918   -5.269952
    130          1           0       30.077821    1.774741   -4.165060
    131          1           0       28.880042    2.222664   -5.288134
    132          1           0       25.642277   -0.112039   -3.784871
    133          1           0       26.015683   -1.546858   -2.920648
    134          1           0       26.288973   -2.784936   -4.772446
    135          1           0       26.997996   -1.391668   -5.710858
    136          1           0       28.705516    5.302076   -2.477428
    137          1           0       30.272070    5.930197   -2.212452
    138          1           0       29.013501    6.584019   -1.195164
    139          1           0       31.782198    7.840052    1.016021
    140          1           0       30.041736    7.695709    0.952950
    141          1           0       31.055707    7.135228   -0.446941
    142          1           0       30.746182    1.951081    5.307069
    143          1           0       31.637292   -0.682325    5.190409
    144          1           0       33.321230    1.821650    3.905532
    145          1           0       33.267623    0.555300    5.002624
    146          1           0       33.147389    2.213837    5.643783
    147          1           0       30.066120    0.321096    6.819564
    148          1           0       29.813273   -1.348586    6.445827
    149          1           0       27.707471   -0.664827    6.300165
    150          1           0       27.959963    0.064631    4.699899
    151          1           0       28.200445    1.042151    6.071203
    152          1           0       29.564087   -4.624681    3.621253
    153          1           0       30.628506   -5.439753    2.440177
    154          1           0       28.960795   -5.547269    2.250136
    155          1           0       27.083556   -3.757609   -2.176715
    156          1           0       28.786678   -4.612426   -5.983305
    157          1           0       28.298608   -6.169484   -5.371950
    158          1           0       29.906228   -5.455097   -4.902432
 ---------------------------------------------------------------------

 SCF Done:  E(RwB97XD) =  -4070.62790472     A.U. after   19 cycles

 Excitation energies and oscillator strengths:

 Excited State   1:      Singlet-A      1.6476 eV  752.49 nm  f=0.4130  <S**2>=0.000
     310 -> 316        0.17814
     312 -> 313        0.68444
     310 <- 316        0.11440
 This state for optimization and/or second-order correction.
 Total Energy, E(TD-HF/TD-DFT) =  -4070.56735496
 Copying the excited state density for this state as the 1-particle RhoCI density.

 Excited State   2:      Singlet-A      1.7223 eV  719.88 nm  f=0.3967  <S**2>=0.000
     309 -> 315        0.17625
     311 -> 314        0.68546
     309 <- 315        0.11114

 Excited State   3:      Singlet-A      2.1651 eV  572.66 nm  f=0.1558  <S**2>=0.000
     310 -> 313        0.65107
     312 -> 316       -0.25710

 Excited State   4:      Singlet-A      2.2425 eV  552.89 nm  f=0.1147  <S**2>=0.000
     309 -> 314        0.63522
     311 -> 315       -0.29259

 Excited State   5:      Singlet-A      3.3545 eV  369.61 nm  f=0.0031  <S**2>=0.000
     306 -> 317        0.10705
     308 -> 313        0.67506

 The electronic state is 1-A.
 Alpha  occ. eigenvalues --  -46.96017 -46.94035 -19.30186 -19.30011 -19.25417
 Alpha  occ. eigenvalues --  -19.23772 -19.23650 -19.23540 -19.23534 -19.23296
 Alpha  occ. eigenvalues --  -14.47242 -14.46982 -14.46895 -14.46787 -14.44876
 Alpha  occ. eigenvalues --  -14.44322 -14.43666 -14.43561 -10.43347 -10.42090
 Alpha  occ. eigenvalues --  -10.38872 -10.38844 -10.38525 -10.38128 -10.36463
 Alpha  occ. eigenvalues --  -10.35729 -10.35562 -10.35349 -10.35241 -10.35206
 Alpha  occ. eigenvalues --  -10.35158 -10.35070 -10.34965 -10.34924 -10.34805
 Alpha  occ. eigenvalues --  -10.34559 -10.34139 -10.33805 -10.33414 -10.33174
 Alpha  occ. eigenvalues --  -10.33050 -10.32978 -10.32613 -10.32564 -10.32482
 Alpha  occ. eigenvalues --  -10.32436 -10.32404 -10.32340 -10.32304 -10.32286
 Alpha  occ. eigenvalues --  -10.32284 -10.32257 -10.32251 -10.32027 -10.32017
 Alpha  occ. eigenvalues --  -10.31959 -10.31915 -10.31780 -10.31738 -10.31645
 Alpha  occ. eigenvalues --  -10.31634 -10.31624 -10.31622 -10.31446 -10.31386
 Alpha  occ. eigenvalues --  -10.31233 -10.30904 -10.30722 -10.30718 -10.30520
 Alpha  occ. eigenvalues --  -10.30506 -10.30409 -10.30340 -10.30294 -10.30259
 Alpha  occ. eigenvalues --  -10.30169 -10.30158 -10.30023 -10.29994 -10.29885
 Alpha  occ. eigenvalues --  -10.29622 -10.29443 -10.29422 -10.28765 -10.28665
 Alpha  occ. eigenvalues --  -10.27941  -3.21895  -3.20227  -1.95487  -1.95019
 Alpha  occ. eigenvalues --   -1.94848  -1.93822  -1.93373  -1.93205  -1.20093
 Alpha  occ. eigenvalues --   -1.18774  -1.12540  -1.12391  -1.11082  -1.11033
 Alpha  occ. eigenvalues --   -1.10725  -1.09955  -1.06608  -1.06605  -1.05850
 Alpha  occ. eigenvalues --   -1.05753  -1.05746  -1.05330  -1.04878  -1.04580
 Alpha  occ. eigenvalues --   -0.95231  -0.94045  -0.91298  -0.91276  -0.91193
 Alpha  occ. eigenvalues --   -0.90721  -0.90646  -0.90206  -0.90029  -0.89579
 Alpha  occ. eigenvalues --   -0.89444  -0.88727  -0.88434  -0.87912  -0.87161
 Alpha  occ. eigenvalues --   -0.86519  -0.85929  -0.85750  -0.85099  -0.84832
 Alpha  occ. eigenvalues --   -0.84536  -0.84323  -0.83252  -0.83144  -0.82836
 Alpha  occ. eigenvalues --   -0.82565  -0.80312  -0.79725  -0.79277  -0.79250
 Alpha  occ. eigenvalues --   -0.79079  -0.78830  -0.78142  -0.77880  -0.77505
 Alpha  occ. eigenvalues --   -0.77213  -0.75436  -0.75221  -0.74047  -0.73421
 Alpha  occ. eigenvalues --   -0.71557  -0.71323  -0.70995  -0.70827  -0.69767
 Alpha  occ. eigenvalues --   -0.69744  -0.69086  -0.68772  -0.68002  -0.67567
 Alpha  occ. eigenvalues --   -0.67337  -0.66978  -0.66916  -0.66628  -0.66568
 Alpha  occ. eigenvalues --   -0.66349  -0.64682  -0.64297  -0.62419  -0.62319
 Alpha  occ. eigenvalues --   -0.61984  -0.61887  -0.61306  -0.60991  -0.60801
 Alpha  occ. eigenvalues --   -0.60492  -0.60461  -0.60301  -0.59664  -0.59578
 Alpha  occ. eigenvalues --   -0.58509  -0.58501  -0.58093  -0.57843  -0.57463
 Alpha  occ. eigenvalues --   -0.57094  -0.56843  -0.56585  -0.56329  -0.56292
 Alpha  occ. eigenvalues --   -0.55958  -0.55536  -0.55451  -0.55289  -0.55128
 Alpha  occ. eigenvalues --   -0.55116  -0.54699  -0.54588  -0.54448  -0.54234
 Alpha  occ. eigenvalues --   -0.54014  -0.53861  -0.53670  -0.53670  -0.53625
 Alpha  occ. eigenvalues --   -0.53279  -0.52819  -0.52662  -0.52312  -0.52269
 Alpha  occ. eigenvalues --   -0.52214  -0.52212  -0.51926  -0.51808  -0.51601
 Alpha  occ. eigenvalues --   -0.51416  -0.51255  -0.51155  -0.51074  -0.50979
 Alpha  occ. eigenvalues --   -0.50866  -0.50840  -0.50324  -0.50255  -0.50076
 Alpha  occ. eigenvalues --   -0.50061  -0.49708  -0.49493  -0.49342  -0.49285
 Alpha  occ. eigenvalues --   -0.49096  -0.49000  -0.48807  -0.48451  -0.48427
 Alpha  occ. eigenvalues --   -0.48346  -0.48308  -0.48093  -0.47945  -0.47794
 Alpha  occ. eigenvalues --   -0.47437  -0.47345  -0.47311  -0.47054  -0.47036
 Alpha  occ. eigenvalues --   -0.46857  -0.46651  -0.46513  -0.46293  -0.46092
 Alpha  occ. eigenvalues --   -0.45877  -0.45836  -0.45657  -0.45558  -0.45434
 Alpha  occ. eigenvalues --   -0.45302  -0.45198  -0.45172  -0.44892  -0.44649
 Alpha  occ. eigenvalues --   -0.44607  -0.44483  -0.44346  -0.44250  -0.44102
 Alpha  occ. eigenvalues --   -0.43920  -0.43833  -0.43520  -0.43422  -0.43420
 Alpha  occ. eigenvalues --   -0.43330  -0.43008  -0.42905  -0.42503  -0.42377
 Alpha  occ. eigenvalues --   -0.42165  -0.41807  -0.41611  -0.41107  -0.40858
 Alpha  occ. eigenvalues --   -0.40744  -0.40133  -0.40100  -0.39676  -0.39657
 Alpha  occ. eigenvalues --   -0.39165  -0.38906  -0.38627  -0.38542  -0.38330
 Alpha  occ. eigenvalues --   -0.38110  -0.38036  -0.37211  -0.36285  -0.36226
 Alpha  occ. eigenvalues --   -0.35933  -0.35793  -0.35380  -0.34002  -0.33669
 Alpha  occ. eigenvalues --   -0.33070  -0.32716  -0.32622  -0.32550  -0.32273
 Alpha  occ. eigenvalues --   -0.32218  -0.32137  -0.31941  -0.26622  -0.26042
 Alpha  occ. eigenvalues --   -0.23496  -0.23286
 Alpha virt. eigenvalues --   -0.07462  -0.07385  -0.00037   0.00500   0.02537
 Alpha virt. eigenvalues --    0.02976   0.04585   0.04815   0.05195   0.06219
 Alpha virt. eigenvalues --    0.06941   0.07571   0.07928   0.08250   0.08520

 Mulliken charges:
               1
     1  Mg   0.953782
     2  C   -0.018505
     3  C   -0.078189
     4  C   -0.102334
     5  C   -0.070841
     6  N   -0.331669
     7  C   -0.062446
     8  C    0.031460
     9  C   -0.153754
    10  C    0.038913
    11  C    0.036052
    12  C    0.038169
    13  C   -0.109446
    14  H    0.041392
    15  N   -0.434336
    16  C    0.181864
    17  C   -0.135823
    18  C   -0.121033
    19  C    0.236052
    20  C    0.063221
    21  C    0.025003
    22  O   -0.229600
    23  C    0.001864
    24  N   -0.396556
    25  C    0.068815
    26  C   -0.119392
    27  C   -0.096990
    28  C    0.094201
    29  C    0.022086
    30  C   -0.030767
    31  C   -0.043139
    32  N   -0.425027
    33  C    0.086070
    34  C   -0.233600
    35  C    0.018435
    36  C    0.142572
    37  C    0.107326
    38  C    0.094391
    39  O   -0.186577
    40  C   -0.073722
    41  C    0.260103
    42  O   -0.213131
    43  O   -0.378430
    44  C    0.124720
    45  H   -0.006368
    46  H   -0.019675
    47  H   -0.006038
    48  H    0.020854
    49  H    0.031384
    50  H    0.043446
    51  H    0.049282
    52  H    0.029125
    53  H    0.029823
    54  H    0.035452
    55  H    0.036416
    56  H    0.039790
    57  H    0.058547
    58  H    0.019584
    59  H    0.074459
    60  H    0.052440
    61  H    0.058043
    62  H    0.079028
    63  H    0.040397
    64  H    0.042191
    65  H    0.035907
    66  H    0.050038
    67  H    0.035383
    68  H    0.033109
    69  H    0.030008
    70  H    0.038269
    71  H    0.042310
    72  H    0.038958
    73  H    0.070607
    74  H    0.005424
    75  H    0.058173
    76  H    0.072872
    77  H    0.057126
    78  H    0.062234
    79  H    0.040215
    80  Mg   0.992375
    81  C   -0.044713
    82  C   -0.105230
    83  C   -0.051513
    84  C   -0.104111
    85  N   -0.349901
    86  C   -0.028264
    87  C   -0.021377
    88  C   -0.162802
    89  C    0.116128
    90  C    0.006217
    91  C    0.037936
    92  C   -0.145905
    93  H    0.028851
    94  N   -0.425471
    95  C    0.160189
    96  C   -0.175117
    97  C   -0.074075
    98  C    0.171254
    99  C    0.066367
   100  C    0.038096
   101  O   -0.260167
   102  C    0.004684
   103  N   -0.396120
   104  C    0.027721
   105  C   -0.070201
   106  C   -0.076007
   107  C    0.087025
   108  C    0.029245
   109  C   -0.031248
   110  C   -0.058212
   111  N   -0.470236
   112  C    0.132184
   113  C   -0.134421
   114  C   -0.037893
   115  C    0.195294
   116  C    0.072369
   117  C    0.096077
   118  O   -0.219405
   119  C   -0.078281
   120  C    0.235502
   121  O   -0.251479
   122  O   -0.328066
   123  C    0.135832
   124  H   -0.002073
   125  H    0.021845
   126  H   -0.004722
   127  H    0.033207
   128  H    0.042986
   129  H    0.043823
   130  H    0.040406
   131  H    0.035202
   132  H    0.039565
   133  H    0.030021
   134  H    0.063184
   135  H    0.056140
   136  H    0.042421
   137  H    0.057097
   138  H    0.056423
   139  H    0.055867
   140  H    0.067028
   141  H    0.044977
   142  H    0.038414
   143  H    0.027403
   144  H    0.039885
   145  H    0.027329
   146  H    0.056780
   147  H    0.029186
   148  H    0.032958
   149  H    0.037793
   150  H    0.047633
   151  H    0.028754
   152  H    0.045996
   153  H    0.055584
   154  H    0.045396
   155  H    0.065560
   156  H    0.042557
   157  H    0.055540
   158  H    0.066702
 Sum of Mulliken charges =  -0.00000

 Dipole moment (field-independent basis, Debye):
    X=             -4.3101    Y=              2.6596    Z=              1.0974  Tot=              5.1822
 Quadrupole moment (field-independent basis, Debye-Ang):
   XX=           -477.4890   YY=           -534.2749   ZZ=           -484.0577
   XY=            103.9299   XZ=            -36.0452   YZ=              2.4966

 Normal termination of Gaussian 16 at Mon Sep 20 17:53:17 2021.
