 Gaussian 16, Revision A.03,
 Gaussian 16:  ES64L-G16RevA.03 25-Dec-2016

 --------------------------------
 #p wB97XD/Def2SVP td=(nstates=5)
 --------------------------------

 --------------------------------
 TDDFT excited states in gaussian
 --------------------------------
 Symbolic Z-matrix:
 Charge =  0 Multiplicity = 1

                         Standard orientation:
 ---------------------------------------------------------------------
 Center     Atomic      Atomic             Coordinates (Angstroms)
 Number     Number       Type             X           Y           Z
 ---------------------------------------------------------------------
      1         12           0      -20.645424   -0.403335   -0.022809
      2          6           0      -19.807403    2.834484   -0.853643
      3          6           0      -20.295032    0.492412    3.260773
      4          6           0      -21.179088   -3.636800    0.792249
      5          6           0      -20.398382   -1.328407   -3.365315
      6          7           0      -19.958225    1.496187    1.016659
      7          6           0      -19.877477    2.670966    0.521811
      8          6           0      -19.653250    3.881233    1.567449
      9          6           0      -19.516434    3.012939    2.880064
     10          6           0      -19.865178    1.530824    2.382087
     11          6           0      -18.035105    2.979936    3.529422
     12          6           0      -20.820921    4.958920    1.626119
     13          6           0      -20.432155    6.439550    1.974275
     14          1           0      -19.037453    6.668328    2.473366
     15          7           0      -20.800894   -1.398929    1.722274
     16          6           0      -20.707096   -0.836888    3.055872
     17          6           0      -20.979949   -1.912902    4.002989
     18          6           0      -21.126666   -3.139145    3.307824
     19          6           0      -21.083232   -2.755148    1.878740
     20          6           0      -21.069462   -1.541113    5.439306
     21          6           0      -21.412078   -4.571192    3.817772
     22          8           0      -21.419344   -5.561621    3.149030
     23          6           0      -21.519681   -4.705089    5.350274
     24          7           0      -20.677129   -2.297027   -1.078420
     25          6           0      -20.903462   -3.464301   -0.564107
     26          6           0      -20.667489   -4.603838   -1.595614
     27          6           0      -20.530772   -3.858727   -2.945038
     28          6           0      -20.550625   -2.386615   -2.470430
     29          6           0      -19.432067   -5.448052   -1.216762
     30          6           0      -21.650112   -4.247790   -3.958881
     31          6           0      -21.529686   -5.662742   -4.547598
     32          7           0      -20.195131    0.535088   -1.804180
     33          6           0      -20.238577    0.035324   -3.093595
     34          6           0      -19.984987    1.146538   -3.972411
     35          6           0      -19.757501    2.308207   -3.175360
     36          6           0      -19.947847    1.822534   -1.852982
     37          6           0      -19.907630    1.064720   -5.384775
     38          6           0      -19.519096    3.715745   -3.132658
     39          8           0      -19.256210    4.499551   -4.092928
     40          6           0      -19.428878    4.071026   -1.597905
     41          6           0      -18.107719    4.610785   -1.357101
     42          8           0      -17.097798    3.928176   -1.187240
     43          8           0      -18.192779    5.970950   -1.512792
     44          6           0      -16.871995    6.633582   -1.552415
     45          1           0      -20.165589    0.741979    4.315523
     46          1           0      -21.374414   -4.657123    1.130775
     47          1           0      -20.402605   -1.657472   -4.406984
     48          1           0      -18.681010    4.283793    1.282064
     49          1           0      -20.186101    3.392737    3.651431
     50          1           0      -17.324110    3.277601    2.758197
     51          1           0      -17.807539    1.970824    3.872596
     52          1           0      -17.872339    3.621459    4.396094
     53          1           0      -21.466251    4.590141    2.422952
     54          1           0      -21.559349    4.916766    0.824725
     55          1           0      -21.091743    6.906808    2.705416
     56          1           0      -20.462155    7.036467    1.062696
     57          1           0      -20.078471   -1.521537    5.893700
     58          1           0      -21.823766   -2.111802    5.981192
     59          1           0      -21.470089   -0.528355    5.476130
     60          1           0      -22.446423   -4.319660    5.776500
     61          1           0      -20.642548   -4.145832    5.674233
     62          1           0      -21.379912   -5.708845    5.750465
     63          1           0      -21.604077   -5.158808   -1.547205
     64          1           0      -19.542049   -4.043476   -3.364967
     65          1           0      -18.687624   -4.946703   -0.597866
     66          1           0      -18.782415   -5.795231   -2.020892
     67          1           0      -19.828479   -6.309604   -0.679543
     68          1           0      -21.601348   -3.570254   -4.810205
     69          1           0      -22.627976   -4.130368   -3.490650
     70          1           0      -20.702671   -6.159993   -4.040738
     71          1           0      -21.128693   -5.588771   -5.558567
     72          1           0      -22.421685   -6.285259   -4.613427
     73          1           0      -20.754409    0.439006   -5.667080
     74          1           0      -19.018283    0.585200   -5.793378
     75          1           0      -19.883321    2.077423   -5.788514
     76          1           0      -20.163839    4.869316   -1.491330
     77          1           0      -16.389970    6.289094   -2.467770
     78          1           0      -16.315134    6.487848   -0.627390
     79          1           0      -17.051891    7.704490   -1.648005
     80         12           0       19.585683   -0.732968   -0.179372
     81          6           0       21.553256    2.122355   -0.470910
     82          6           0       17.498887    0.897336    1.903610
     83          6           0       18.010542   -3.669171    0.389065
     84          6           0       22.020414   -2.453681   -1.911718
     85          7           0       19.574423    1.327661    0.636127
     86          6           0       20.360009    2.367332    0.207764
     87          6           0       19.910748    3.639641    0.819403
     88          6           0       18.654656    3.311030    1.634642
     89          6           0       18.501546    1.746657    1.399620
     90          6           0       18.593978    3.730015    3.095354
     91          6           0       19.688283    4.798562   -0.309096
     92          6           0       20.566220    6.068653   -0.217678
     93          1           0       19.986309    7.432428   -0.501792
     94          7           0       17.914082   -1.285102    0.882293
     95          6           0       17.173304   -0.460276    1.715452
     96          6           0       16.141605   -1.211413    2.332890
     97          6           0       16.267462   -2.562683    1.910718
     98          6           0       17.421292   -2.547219    1.005696
     99          6           0       15.066622   -0.440069    3.194215
    100          6           0       15.407177   -3.724660    2.404267
    101          8           0       15.564982   -4.915958    2.097153
    102          6           0       14.240555   -3.454191    3.248878
    103          7           0       20.046037   -2.846975   -0.460089
    104          6           0       19.209103   -3.842788   -0.254315
    105          6           0       19.856408   -5.195968   -0.625831
    106          6           0       20.830527   -4.659035   -1.747269
    107          6           0       20.973441   -3.186885   -1.374168
    108          6           0       20.652523   -6.027778    0.446811
    109          6           0       20.360119   -4.843108   -3.269196
    110          6           0       19.092984   -4.216675   -3.686351
    111          7           0       21.514171   -0.341836   -1.041616
    112          6           0       22.409075   -1.167316   -1.750222
    113          6           0       23.548893   -0.401543   -2.142882
    114          6           0       23.314419    0.856987   -1.625817
    115          6           0       22.001237    0.866906   -1.051307
    116          6           0       24.789841   -0.919784   -2.685250
    117          6           0       23.763655    2.168720   -1.656855
    118          8           0       24.784629    2.677064   -2.131445
    119          6           0       22.723479    3.060279   -0.837024
    120          6           0       23.439567    3.456691    0.411629
    121          8           0       23.935091    2.799519    1.302875
    122          8           0       23.481490    4.789742    0.375798
    123          6           0       24.132377    5.458944    1.549428
    124          1           0       16.785957    1.580045    2.370561
    125          1           0       17.382915   -4.557904    0.474440
    126          1           0       22.750002   -2.997240   -2.515273
    127          1           0       20.728472    3.934712    1.475774
    128          1           0       17.790303    3.760400    1.146203
    129          1           0       18.943017    2.782256    3.503569
    130          1           0       17.623922    4.081111    3.447688
    131          1           0       19.264541    4.505899    3.463744
    132          1           0       18.636938    5.084734   -0.311453
    133          1           0       19.944718    4.479804   -1.319724
    134          1           0       21.323475    5.964119   -0.995223
    135          1           0       21.139454    6.104195    0.707781
    136          1           0       14.997866   -0.921711    4.169426
    137          1           0       14.199400   -0.720333    2.596195
    138          1           0       15.251924    0.605620    3.439978
    139          1           0       14.527663   -2.920866    4.154038
    140          1           0       13.965622   -4.416172    3.680784
    141          1           0       13.383395   -3.019265    2.734216
    142          1           0       19.129872   -5.774079   -1.196999
    143          1           0       21.730631   -5.257399   -1.608327
    144          1           0       21.276143   -5.449133    1.127198
    145          1           0       21.235990   -6.707120   -0.175649
    146          1           0       19.969744   -6.600522    1.074965
    147          1           0       20.225201   -5.886427   -3.555528
    148          1           0       21.005579   -4.288662   -3.950363
    149          1           0       19.380158   -3.182540   -3.871377
    150          1           0       18.256780   -4.186604   -2.987147
    151          1           0       18.625875   -4.554376   -4.610899
    152          1           0       25.334708   -1.252206   -1.800864
    153          1           0       25.401093   -0.200171   -3.229122
    154          1           0       24.643917   -1.693893   -3.439413
    155          1           0       22.318678    3.892713   -1.412701
    156          1           0       23.299613    5.877819    2.114804
    157          1           0       24.840948    6.208611    1.197982
    158          1           0       24.666929    4.823694    2.256255
 ---------------------------------------------------------------------

 SCF Done:  E(RwB97XD) =  -4070.60081764     A.U. after   20 cycles

 Excitation energies and oscillator strengths:

 Excited State   1:      Singlet-A      1.6463 eV  753.09 nm  f=0.3720  <S**2>=0.000
     309 -> 316       -0.18131
     311 -> 313        0.68365
     309 <- 316       -0.11554
 This state for optimization and/or second-order correction.
 Total Energy, E(TD-HF/TD-DFT) =  -4070.54031592
 Copying the excited state density for this state as the 1-particle RhoCI density.

 Excited State   2:      Singlet-A      1.7222 eV  719.91 nm  f=0.3812  <S**2>=0.000
     310 -> 315       -0.20375
     312 -> 314        0.67764
     310 <- 315       -0.11867

 Excited State   3:      Singlet-A      2.1205 eV  584.69 nm  f=0.1336  <S**2>=0.000
     309 -> 313        0.64941
     311 -> 316        0.26632

 Excited State   4:      Singlet-A      2.1613 eV  573.64 nm  f=0.1085  <S**2>=0.000
     310 -> 314        0.64085
     312 -> 315        0.28352

 Excited State   5:      Singlet-A      3.3233 eV  373.08 nm  f=0.0023  <S**2>=0.000
     304 -> 313       -0.37119
     304 -> 318        0.23959
     304 -> 320        0.16355
     307 -> 313        0.45653
     307 -> 318       -0.15069

 The electronic state is 1-A.
 Alpha  occ. eigenvalues --  -46.95681 -46.94754 -19.30277 -19.30021 -19.25213
 Alpha  occ. eigenvalues --  -19.24249 -19.24032 -19.23697 -19.23313 -19.23300
 Alpha  occ. eigenvalues --  -14.46803 -14.46581 -14.46421 -14.46117 -14.44352
 Alpha  occ. eigenvalues --  -14.44312 -14.43578 -14.43513 -10.42455 -10.42393
 Alpha  occ. eigenvalues --  -10.40281 -10.39036 -10.38792 -10.38199 -10.35945
 Alpha  occ. eigenvalues --  -10.35474 -10.35469 -10.35236 -10.35004 -10.34823
 Alpha  occ. eigenvalues --  -10.34777 -10.34630 -10.34476 -10.34450 -10.34320
 Alpha  occ. eigenvalues --  -10.34301 -10.34103 -10.33818 -10.33637 -10.33165
 Alpha  occ. eigenvalues --  -10.33124 -10.33076 -10.33017 -10.33002 -10.32894
 Alpha  occ. eigenvalues --  -10.32808 -10.32609 -10.32575 -10.32293 -10.32286
 Alpha  occ. eigenvalues --  -10.32256 -10.32146 -10.32007 -10.31954 -10.31858
 Alpha  occ. eigenvalues --  -10.31847 -10.31745 -10.31651 -10.31602 -10.31595
 Alpha  occ. eigenvalues --  -10.31544 -10.31474 -10.31462 -10.31194 -10.31163
 Alpha  occ. eigenvalues --  -10.31162 -10.31158 -10.31045 -10.30679 -10.30531
 Alpha  occ. eigenvalues --  -10.30493 -10.30325 -10.30316 -10.30177 -10.30116
 Alpha  occ. eigenvalues --  -10.30044 -10.29930 -10.29853 -10.29533 -10.29448
 Alpha  occ. eigenvalues --  -10.29388 -10.29207 -10.28705 -10.28542 -10.28480
 Alpha  occ. eigenvalues --  -10.28471  -3.21544  -3.20797  -1.95134  -1.94641
 Alpha  occ. eigenvalues --   -1.94530  -1.94382  -1.93928  -1.93770  -1.19194
 Alpha  occ. eigenvalues --   -1.17686  -1.14775  -1.11333  -1.10824  -1.09562
 Alpha  occ. eigenvalues --   -1.09411  -1.08955  -1.07433  -1.07406  -1.06313
 Alpha  occ. eigenvalues --   -1.06307  -1.05482  -1.05402  -1.04658  -1.02953
 Alpha  occ. eigenvalues --   -0.94502  -0.94199  -0.91204  -0.91124  -0.90619
 Alpha  occ. eigenvalues --   -0.90317  -0.90283  -0.89887  -0.89733  -0.89528
 Alpha  occ. eigenvalues --   -0.89399  -0.88904  -0.88809  -0.88805  -0.86569
 Alpha  occ. eigenvalues --   -0.86152  -0.85862  -0.85355  -0.84991  -0.84233
 Alpha  occ. eigenvalues --   -0.83937  -0.83657  -0.83515  -0.82999  -0.82702
 Alpha  occ. eigenvalues --   -0.82252  -0.80715  -0.80544  -0.79600  -0.79310
 Alpha  occ. eigenvalues --   -0.79307  -0.78301  -0.77897  -0.77674  -0.77296
 Alpha  occ. eigenvalues --   -0.76779  -0.75482  -0.74201  -0.73664  -0.73454
 Alpha  occ. eigenvalues --   -0.71342  -0.71321  -0.71042  -0.70743  -0.70171
 Alpha  occ. eigenvalues --   -0.69733  -0.69170  -0.69015  -0.67760  -0.67731
 Alpha  occ. eigenvalues --   -0.67381  -0.67317  -0.66778  -0.66777  -0.66087
 Alpha  occ. eigenvalues --   -0.65958  -0.64051  -0.63549  -0.62428  -0.62055
 Alpha  occ. eigenvalues --   -0.61916  -0.61377  -0.61311  -0.61094  -0.60600
 Alpha  occ. eigenvalues --   -0.60276  -0.60252  -0.59894  -0.59864  -0.59637
 Alpha  occ. eigenvalues --   -0.58423  -0.57999  -0.57697  -0.57603  -0.57480
 Alpha  occ. eigenvalues --   -0.57175  -0.56995  -0.56772  -0.56646  -0.56459
 Alpha  occ. eigenvalues --   -0.55896  -0.55325  -0.55295  -0.55166  -0.55126
 Alpha  occ. eigenvalues --   -0.54948  -0.54923  -0.54693  -0.54647  -0.54140
 Alpha  occ. eigenvalues --   -0.54024  -0.53849  -0.53811  -0.53259  -0.53124
 Alpha  occ. eigenvalues --   -0.53082  -0.53020  -0.52861  -0.52667  -0.52369
 Alpha  occ. eigenvalues --   -0.52330  -0.51730  -0.51662  -0.51388  -0.51331
 Alpha  occ. eigenvalues --   -0.51133  -0.51075  -0.50962  -0.50851  -0.50498
 Alpha  occ. eigenvalues --   -0.50442  -0.50385  -0.50279  -0.50141  -0.50028
 Alpha  occ. eigenvalues --   -0.49767  -0.49714  -0.49313  -0.49101  -0.48982
 Alpha  occ. eigenvalues --   -0.48765  -0.48613  -0.48584  -0.48379  -0.48177
 Alpha  occ. eigenvalues --   -0.48163  -0.47969  -0.47916  -0.47759  -0.47547
 Alpha  occ. eigenvalues --   -0.47178  -0.47086  -0.46779  -0.46564  -0.46394
 Alpha  occ. eigenvalues --   -0.46321  -0.46219  -0.46094  -0.46082  -0.46033
 Alpha  occ. eigenvalues --   -0.45749  -0.45622  -0.45471  -0.45296  -0.45177
 Alpha  occ. eigenvalues --   -0.45148  -0.44929  -0.44896  -0.44683  -0.44566
 Alpha  occ. eigenvalues --   -0.44468  -0.44227  -0.44144  -0.44061  -0.43747
 Alpha  occ. eigenvalues --   -0.43670  -0.43644  -0.43616  -0.43396  -0.43100
 Alpha  occ. eigenvalues --   -0.43012  -0.42838  -0.42643  -0.42536  -0.42127
 Alpha  occ. eigenvalues --   -0.42087  -0.41715  -0.41404  -0.41278  -0.40851
 Alpha  occ. eigenvalues --   -0.40145  -0.40037  -0.39976  -0.39901  -0.39639
 Alpha  occ. eigenvalues --   -0.39543  -0.39084  -0.39062  -0.38569  -0.38432
 Alpha  occ. eigenvalues --   -0.38244  -0.38050  -0.36474  -0.36301  -0.36255
 Alpha  occ. eigenvalues --   -0.35884  -0.35746  -0.35629  -0.33828  -0.33687
 Alpha  occ. eigenvalues --   -0.33356  -0.32970  -0.32710  -0.32510  -0.32452
 Alpha  occ. eigenvalues --   -0.32282  -0.32151  -0.31315  -0.25933  -0.25605
 Alpha  occ. eigenvalues --   -0.23258  -0.23065
 Alpha virt. eigenvalues --   -0.07344  -0.06776   0.00212   0.00287   0.02016
 Alpha virt. eigenvalues --    0.02332   0.04192   0.04350   0.05299   0.05694
 Alpha virt. eigenvalues --    0.07640   0.07744   0.08278   0.08619   0.09101

 Mulliken charges:
               1
     1  Mg   0.973010
     2  C    0.036608
     3  C   -0.076541
     4  C   -0.083399
     5  C   -0.099825
     6  N   -0.274834
     7  C   -0.096977
     8  C   -0.014323
     9  C   -0.137616
    10  C    0.065942
    11  C    0.000622
    12  C    0.023703
    13  C   -0.131680
    14  H    0.035174
    15  N   -0.532080
    16  C    0.160522
    17  C   -0.146737
    18  C   -0.099996
    19  C    0.147663
    20  C    0.050200
    21  C    0.084778
    22  O   -0.192555
    23  C   -0.045339
    24  N   -0.332459
    25  C    0.040002
    26  C   -0.054395
    27  C   -0.067592
    28  C    0.054718
    29  C    0.016547
    30  C   -0.022567
    31  C   -0.039110
    32  N   -0.427712
    33  C    0.163630
    34  C   -0.180255
    35  C    0.016106
    36  C    0.116719
    37  C    0.057384
    38  C    0.086136
    39  O   -0.253870
    40  C   -0.075577
    41  C    0.267946
    42  O   -0.262126
    43  O   -0.366890
    44  C    0.145000
    45  H   -0.003051
    46  H    0.012741
    47  H   -0.006266
    48  H    0.049121
    49  H    0.040269
    50  H    0.048152
    51  H    0.038259
    52  H    0.039828
    53  H    0.016301
    54  H    0.039528
    55  H    0.057669
    56  H    0.064703
    57  H    0.067835
    58  H    0.043848
    59  H    0.042701
    60  H    0.070943
    61  H    0.053255
    62  H    0.049692
    63  H    0.038235
    64  H    0.035323
    65  H    0.043588
    66  H    0.034036
    67  H    0.050562
    68  H    0.028777
    69  H    0.032099
    70  H    0.024454
    71  H    0.026125
    72  H    0.050586
    73  H    0.038299
    74  H    0.050023
    75  H    0.057920
    76  H    0.063370
    77  H    0.068084
    78  H    0.056019
    79  H    0.049013
    80  Mg   0.939223
    81  C   -0.014504
    82  C   -0.073942
    83  C   -0.062162
    84  C   -0.108195
    85  N   -0.378646
    86  C    0.014369
    87  C   -0.066582
    88  C   -0.052569
    89  C   -0.019178
    90  C    0.003415
    91  C    0.003744
    92  C   -0.135708
    93  H    0.038462
    94  N   -0.463770
    95  C    0.198564
    96  C   -0.182645
    97  C   -0.073509
    98  C    0.131212
    99  C    0.082994
   100  C    0.052573
   101  O   -0.248049
   102  C   -0.009761
   103  N   -0.296318
   104  C    0.019897
   105  C   -0.042485
   106  C   -0.112705
   107  C    0.095919
   108  C    0.041909
   109  C    0.013736
   110  C   -0.088498
   111  N   -0.408946
   112  C    0.114906
   113  C   -0.133273
   114  C    0.022649
   115  C    0.108333
   116  C    0.062396
   117  C    0.079791
   118  O   -0.226692
   119  C   -0.091801
   120  C    0.269372
   121  O   -0.244567
   122  O   -0.346891
   123  C    0.120684
   124  H   -0.007264
   125  H    0.014714
   126  H   -0.002412
   127  H    0.047152
   128  H    0.033967
   129  H    0.048078
   130  H    0.042012
   131  H    0.040846
   132  H    0.041777
   133  H    0.042589
   134  H    0.057927
   135  H    0.038045
   136  H    0.037952
   137  H    0.060586
   138  H    0.052884
   139  H    0.038987
   140  H    0.045890
   141  H    0.075389
   142  H    0.019759
   143  H    0.023005
   144  H    0.050091
   145  H    0.040559
   146  H    0.051580
   147  H    0.036076
   148  H    0.028691
   149  H    0.022184
   150  H    0.034935
   151  H    0.039584
   152  H    0.074320
   153  H    0.055803
   154  H    0.035992
   155  H    0.056746
   156  H    0.046822
   157  H    0.068336
   158  H    0.073648
 Sum of Mulliken charges =  -0.00000

 Dipole moment (field-independent basis, Debye):
    X=             -5.6479    Y=              0.4846    Z=              4.9637  Tot=              7.5347
 Quadrupole moment (field-independent basis, Debye-Ang):
   XX=           -581.6283   YY=           -501.6190   ZZ=           -482.8448
   XY=              9.3343   XZ=            -77.2467   YZ=             54.9952

 Normal termination of Gaussian 16 at Mon Sep 20 08:50:00 2021.
