 Gaussian 16, Revision A.03,
 Gaussian 16:  ES64L-G16RevA.03 25-Dec-2016

 --------------------------------
 #p wB97XD/Def2SVP td=(nstates=5)
 --------------------------------

 --------------------------------
 TDDFT excited states in gaussian
 --------------------------------
 Symbolic Z-matrix:
 Charge =  0 Multiplicity = 1

                         Standard orientation:
 ---------------------------------------------------------------------
 Center     Atomic      Atomic             Coordinates (Angstroms)
 Number     Number       Type             X           Y           Z
 ---------------------------------------------------------------------
      1         12           0      -30.903729   -0.053891   -0.143311
      2          6           0      -27.493167   -0.353543   -0.732731
      3          6           0      -30.424430   -2.438738    2.482394
      4          6           0      -33.990449    0.482948    0.851295
      5          6           0      -30.947452    2.751109   -2.261751
      6          7           0      -29.133580   -1.146787    0.824915
      7          6           0      -27.857036   -1.148407    0.308960
      8          6           0      -26.948799   -2.046453    1.153287
      9          6           0      -27.986319   -2.875360    1.959944
     10          6           0      -29.267531   -2.100982    1.795203
     11          6           0      -28.213356   -4.387783    1.566491
     12          6           0      -25.974038   -1.254970    2.040646
     13          6           0      -24.956008   -2.061195    2.752521
     14          1           0      -23.650651   -1.314622    3.225561
     15          7           0      -32.080313   -0.855814    1.470892
     16          6           0      -31.713500   -1.833226    2.409089
     17          6           0      -32.844556   -2.080139    3.259294
     18          6           0      -33.864453   -1.129842    2.883981
     19          6           0      -33.329022   -0.454535    1.651645
     20          6           0      -32.805285   -3.078506    4.449091
     21          6           0      -35.200302   -1.013590    3.624917
     22          8           0      -35.535692   -1.816611    4.479716
     23          6           0      -36.114147    0.101712    3.286573
     24          7           0      -32.327596    1.284253   -0.814005
     25          6           0      -33.545011    1.267510   -0.260746
     26          6           0      -34.396776    2.483573   -0.807959
     27          6           0      -33.439908    3.280380   -1.775795
     28          6           0      -32.087336    2.401602   -1.575200
     29          6           0      -35.793305    2.169562   -1.406086
     30          6           0      -33.260663    4.729891   -1.276007
     31          6           0      -32.986568    5.768837   -2.370154
     32          7           0      -29.545284    1.046246   -1.306869
     33          6           0      -29.715692    2.065364   -2.201569
     34          6           0      -28.450504    2.271246   -2.916682
     35          6           0      -27.612327    1.299571   -2.439517
     36          6           0      -28.263588    0.623373   -1.432908
     37          6           0      -28.209865    3.266441   -4.056433
     38          6           0      -26.280140    0.782069   -2.529532
     39          8           0      -25.348493    1.064794   -3.241908
     40          6           0      -26.151912   -0.326213   -1.431665
     41          6           0      -25.922571   -1.622224   -2.127514
     42          8           0      -26.549476   -2.074286   -3.045164
     43          8           0      -24.917992   -2.325718   -1.440605
     44          6           0      -24.629413   -3.640308   -1.939122
     45          1           0      -30.198155   -3.237795    3.190798
     46          1           0      -35.028369    0.756607    1.054292
     47          1           0      -30.943133    3.573016   -2.980886
     48          1           0      -26.459365   -2.717887    0.449089
     49          1           0      -27.843500   -2.895854    3.039787
     50          1           0      -28.109974   -4.921826    2.510821
     51          1           0      -27.761185   -4.747306    0.641772
     52          1           0      -29.272193   -4.484565    1.326947
     53          1           0      -26.424515   -0.729366    2.883053
     54          1           0      -25.474537   -0.488487    1.448002
     55          1           0      -24.685928   -2.880058    2.085722
     56          1           0      -25.424212   -2.537251    3.613889
     57          1           0      -32.744821   -2.334327    5.243861
     58          1           0      -31.885061   -3.652118    4.561652
     59          1           0      -33.596724   -3.798801    4.657032
     60          1           0      -35.482851    0.989830    3.314852
     61          1           0      -36.851680    0.195026    4.083880
     62          1           0      -36.477001   -0.162654    2.293017
     63          1           0      -34.616482    3.097382    0.066036
     64          1           0      -33.726872    3.267075   -2.826778
     65          1           0      -36.547193    2.502091   -0.691812
     66          1           0      -35.829655    1.111566   -1.663622
     67          1           0      -35.966979    2.794842   -2.281826
     68          1           0      -32.430444    4.679509   -0.571981
     69          1           0      -34.078829    5.089645   -0.651761
     70          1           0      -33.796810    6.485484   -2.231578
     71          1           0      -32.920433    5.359863   -3.378432
     72          1           0      -32.059228    6.302194   -2.160825
     73          1           0      -27.282712    3.837014   -4.013537
     74          1           0      -29.094194    3.900349   -3.987249
     75          1           0      -28.395656    2.714832   -4.978147
     76          1           0      -25.296189   -0.047856   -0.816440
     77          1           0      -23.646386   -3.581623   -2.406455
     78          1           0      -25.320938   -4.112447   -2.637375
     79          1           0      -24.602393   -4.311706   -1.081298
     80         12           0       29.973168    0.790915    0.282779
     81          6           0       30.493378   -2.545989   -1.022145
     82          6           0       28.702271    1.493014   -2.603267
     83          6           0       29.841243    3.827219    1.557925
     84          6           0       32.138171    0.020599    3.098631
     85          7           0       29.531861   -0.481935   -1.578104
     86          6           0       29.811978   -1.785945   -1.930159
     87          6           0       29.362128   -2.053542   -3.321165
     88          6           0       29.251531   -0.638490   -3.944881
     89          6           0       29.197935    0.204455   -2.648900
     90          6           0       30.458857   -0.229893   -4.817066
     91          6           0       27.950441   -2.715032   -3.298741
     92          6           0       27.730449   -3.934609   -4.275389
     93          1           0       26.550542   -4.953413   -4.014841
     94          7           0       29.267571    2.489910   -0.482430
     95          6           0       28.674498    2.590050   -1.642139
     96          6           0       28.159002    3.939935   -1.771591
     97          6           0       28.399400    4.529020   -0.507917
     98          6           0       29.220707    3.609351    0.231622
     99          6           0       27.372356    4.370194   -3.023019
    100          6           0       27.941712    5.887910   -0.056316
    101          8           0       28.235123    6.290775    1.029489
    102          6           0       27.033967    6.681819   -0.938128
    103          7           0       31.151612    1.840045    1.998971
    104          6           0       30.705979    3.053399    2.318059
    105          6           0       31.154816    3.475889    3.666446
    106          6           0       32.074637    2.275136    4.054423
    107          6           0       31.804017    1.256746    2.978612
    108          6           0       31.790734    4.904663    3.816306
    109          6           0       31.767886    1.772792    5.519159
    110          6           0       32.764492    2.093003    6.667933
    111          7           0       31.065612   -0.794287    0.946778
    112          6           0       31.828392   -1.033969    2.111582
    113          6           0       32.298907   -2.434564    2.110550
    114          6           0       31.787613   -3.006935    0.953482
    115          6           0       31.104755   -2.024109    0.257165
    116          6           0       33.293898   -3.042325    3.128737
    117          6           0       31.754743   -4.303340    0.203002
    118          8           0       32.183275   -5.411108    0.425206
    119          6           0       31.048139   -4.007929   -1.213396
    120          6           0       30.118346   -5.019625   -1.558890
    121          8           0       28.917049   -4.936136   -1.267418
    122          8           0       30.624487   -6.141336   -2.208187
    123          6           0       29.669320   -7.143833   -2.772207
    124          1           0       28.212356    1.850165   -3.510811
    125          1           0       29.743453    4.815606    2.011567
    126          1           0       32.782305   -0.229448    3.943039
    127          1           0       30.145401   -2.576675   -3.870346
    128          1           0       28.385753   -0.453377   -4.580400
    129          1           0       30.139830   -0.027000   -5.839827
    130          1           0       31.157053   -1.066272   -4.801886
    131          1           0       31.016758    0.630880   -4.447327
    132          1           0       27.267522   -1.916143   -3.588284
    133          1           0       27.761514   -2.973511   -2.257019
    134          1           0       28.672867   -4.477885   -4.339146
    135          1           0       27.551871   -3.433627   -5.227568
    136          1           0       26.343093    4.577292   -2.727191
    137          1           0       27.401098    3.680359   -3.865768
    138          1           0       27.706600    5.352335   -3.356129
    139          1           0       26.079085    6.185269   -1.108577
    140          1           0       27.356583    6.830981   -1.968491
    141          1           0       26.788258    7.617020   -0.434391
    142          1           0       30.284226    3.457772    4.322086
    143          1           0       33.116914    2.558797    3.906893
    144          1           0       31.674426    5.391641    2.848656
    145          1           0       32.806774    4.962317    4.208331
    146          1           0       31.225774    5.452776    4.570480
    147          1           0       31.704048    0.684346    5.511820
    148          1           0       30.718193    2.019717    5.678091
    149          1           0       32.219428    2.449977    7.541608
    150          1           0       33.486589    2.834572    6.325817
    151          1           0       33.298399    1.193089    6.975569
    152          1           0       33.125326   -2.553135    4.087689
    153          1           0       34.309173   -2.767534    2.841775
    154          1           0       33.177780   -4.122397    3.221471
    155          1           0       31.828774   -3.965514   -1.972374
    156          1           0       29.052710   -6.700831   -3.555559
    157          1           0       29.176878   -7.714074   -1.985449
    158          1           0       30.261558   -7.817947   -3.390888
 ---------------------------------------------------------------------

 SCF Done:  E(RwB97XD) =  -4070.58339050     A.U. after   19 cycles

 Excitation energies and oscillator strengths:

 Excited State   1:      Singlet-A      1.6949 eV  731.53 nm  f=0.3786  <S**2>=0.000
     310 -> 316        0.16833
     312 -> 313        0.68667
     310 <- 316        0.11048
 This state for optimization and/or second-order correction.
 Total Energy, E(TD-HF/TD-DFT) =  -4070.52110560
 Copying the excited state density for this state as the 1-particle RhoCI density.

 Excited State   2:      Singlet-A      1.7222 eV  719.91 nm  f=0.3969  <S**2>=0.000
     309 -> 315       -0.17624
     311 -> 314        0.68545
     309 <- 315       -0.11114

 Excited State   3:      Singlet-A      2.1226 eV  584.12 nm  f=0.2214  <S**2>=0.000
     310 -> 313        0.67197
     312 -> 316       -0.20542

 Excited State   4:      Singlet-A      2.2424 eV  552.90 nm  f=0.1148  <S**2>=0.000
     309 -> 314        0.63517
     311 -> 315        0.29256

 Excited State   5:      Singlet-A      3.2983 eV  375.90 nm  f=0.0028  <S**2>=0.000
     303 -> 314        0.12791
     306 -> 314        0.40047
     307 -> 314        0.52978
     311 -> 315        0.11706

 The electronic state is 1-A.
 Alpha  occ. eigenvalues --  -46.96017 -46.95777 -19.30184 -19.29187 -19.25414
 Alpha  occ. eigenvalues --  -19.24622 -19.24312 -19.23769 -19.23538 -19.23450
 Alpha  occ. eigenvalues --  -14.47241 -14.46982 -14.46384 -14.44872 -14.44734
 Alpha  occ. eigenvalues --  -14.44411 -14.44364 -14.43661 -10.43344 -10.42320
 Alpha  occ. eigenvalues --  -10.39929 -10.39122 -10.38870 -10.38126 -10.36462
 Alpha  occ. eigenvalues --  -10.35727 -10.35365 -10.35347 -10.35290 -10.35204
 Alpha  occ. eigenvalues --  -10.35092 -10.35068 -10.34963 -10.34735 -10.34558
 Alpha  occ. eigenvalues --  -10.34072 -10.34022 -10.33827 -10.33803 -10.33581
 Alpha  occ. eigenvalues --  -10.33352 -10.33172 -10.32955 -10.32844 -10.32561
 Alpha  occ. eigenvalues --  -10.32338 -10.32284 -10.32282 -10.32264 -10.32255
 Alpha  occ. eigenvalues --  -10.32250 -10.32239 -10.32131 -10.32025 -10.31971
 Alpha  occ. eigenvalues --  -10.31957 -10.31913 -10.31897 -10.31779 -10.31623
 Alpha  occ. eigenvalues --  -10.31444 -10.31312 -10.31296 -10.31295 -10.30902
 Alpha  occ. eigenvalues --  -10.30854 -10.30720 -10.30559 -10.30505 -10.30408
 Alpha  occ. eigenvalues --  -10.30390 -10.30338 -10.30270 -10.30163 -10.30156
 Alpha  occ. eigenvalues --  -10.30015 -10.29992 -10.29883 -10.29875 -10.29596
 Alpha  occ. eigenvalues --  -10.29544 -10.29442 -10.29395 -10.29344 -10.29078
 Alpha  occ. eigenvalues --  -10.27939  -3.21895  -3.21756  -1.95487  -1.95331
 Alpha  occ. eigenvalues --   -1.95019  -1.94887  -1.94849  -1.94717  -1.18772
 Alpha  occ. eigenvalues --   -1.16318  -1.14424  -1.13041  -1.12538  -1.12389
 Alpha  occ. eigenvalues --   -1.11030  -1.08528  -1.07823  -1.06971  -1.06914
 Alpha  occ. eigenvalues --   -1.06606  -1.05848  -1.05744  -1.04876  -1.02958
 Alpha  occ. eigenvalues --   -0.95229  -0.93186  -0.91296  -0.91191  -0.91143
 Alpha  occ. eigenvalues --   -0.90812  -0.90719  -0.90028  -0.89879  -0.89766
 Alpha  occ. eigenvalues --   -0.89618  -0.88432  -0.87910  -0.87159  -0.87123
 Alpha  occ. eigenvalues --   -0.86271  -0.85928  -0.85097  -0.84941  -0.84534
 Alpha  occ. eigenvalues --   -0.84073  -0.83912  -0.83250  -0.82872  -0.82835
 Alpha  occ. eigenvalues --   -0.82374  -0.80770  -0.79723  -0.79275  -0.79078
 Alpha  occ. eigenvalues --   -0.79033  -0.78601  -0.78140  -0.78126  -0.77504
 Alpha  occ. eigenvalues --   -0.77382  -0.75219  -0.74724  -0.74045  -0.73086
 Alpha  occ. eigenvalues --   -0.71320  -0.71204  -0.70994  -0.70715  -0.69968
 Alpha  occ. eigenvalues --   -0.69765  -0.69277  -0.68770  -0.68051  -0.68001
 Alpha  occ. eigenvalues --   -0.67566  -0.67531  -0.66977  -0.66976  -0.66626
 Alpha  occ. eigenvalues --   -0.66234  -0.64680  -0.63489  -0.63046  -0.62317
 Alpha  occ. eigenvalues --   -0.62067  -0.61885  -0.61304  -0.61056  -0.60799
 Alpha  occ. eigenvalues --   -0.60459  -0.60029  -0.59576  -0.59525  -0.59168
 Alpha  occ. eigenvalues --   -0.58571  -0.58507  -0.57841  -0.57634  -0.57477
 Alpha  occ. eigenvalues --   -0.57460  -0.56842  -0.56327  -0.55957  -0.55915
 Alpha  occ. eigenvalues --   -0.55829  -0.55533  -0.55364  -0.55287  -0.55114
 Alpha  occ. eigenvalues --   -0.55016  -0.54594  -0.54586  -0.54374  -0.53927
 Alpha  occ. eigenvalues --   -0.53859  -0.53771  -0.53668  -0.53623  -0.53219
 Alpha  occ. eigenvalues --   -0.52818  -0.52660  -0.52528  -0.52310  -0.52210
 Alpha  occ. eigenvalues --   -0.52181  -0.52069  -0.51806  -0.51795  -0.51635
 Alpha  occ. eigenvalues --   -0.51533  -0.51253  -0.51168  -0.50977  -0.50838
 Alpha  occ. eigenvalues --   -0.50754  -0.50647  -0.50253  -0.50232  -0.50074
 Alpha  occ. eigenvalues --   -0.49940  -0.49694  -0.49491  -0.49464  -0.49348
 Alpha  occ. eigenvalues --   -0.49341  -0.49094  -0.48998  -0.48425  -0.48372
 Alpha  occ. eigenvalues --   -0.48344  -0.48141  -0.48091  -0.47792  -0.47708
 Alpha  occ. eigenvalues --   -0.47454  -0.47309  -0.47302  -0.47034  -0.46875
 Alpha  occ. eigenvalues --   -0.46729  -0.46649  -0.46519  -0.46426  -0.46090
 Alpha  occ. eigenvalues --   -0.45937  -0.45875  -0.45655  -0.45422  -0.45300
 Alpha  occ. eigenvalues --   -0.45271  -0.45171  -0.44904  -0.44890  -0.44726
 Alpha  occ. eigenvalues --   -0.44659  -0.44647  -0.44344  -0.44248  -0.44156
 Alpha  occ. eigenvalues --   -0.44100  -0.43831  -0.43772  -0.43420  -0.43200
 Alpha  occ. eigenvalues --   -0.42909  -0.42550  -0.42501  -0.42266  -0.42163
 Alpha  occ. eigenvalues --   -0.42089  -0.41805  -0.41783  -0.41759  -0.41610
 Alpha  occ. eigenvalues --   -0.40742  -0.40253  -0.40130  -0.39673  -0.39564
 Alpha  occ. eigenvalues --   -0.39095  -0.38904  -0.38540  -0.38467  -0.38166
 Alpha  occ. eigenvalues --   -0.38034  -0.37715  -0.37208  -0.36283  -0.35931
 Alpha  occ. eigenvalues --   -0.35556  -0.35036  -0.34758  -0.34000  -0.33972
 Alpha  occ. eigenvalues --   -0.33617  -0.33277  -0.33067  -0.32761  -0.32620
 Alpha  occ. eigenvalues --   -0.32271  -0.32135  -0.31791  -0.26620  -0.25462
 Alpha  occ. eigenvalues --   -0.23494  -0.23462
 Alpha virt. eigenvalues --   -0.07421  -0.07383  -0.00035   0.01577   0.02978
 Alpha virt. eigenvalues --    0.03044   0.04714   0.04817   0.05196   0.05490
 Alpha virt. eigenvalues --    0.06737   0.06943   0.07573   0.07729   0.08522

 Mulliken charges:
               1
     1  Mg   0.953593
     2  C   -0.018648
     3  C   -0.078155
     4  C   -0.102364
     5  C   -0.070884
     6  N   -0.331804
     7  C   -0.062344
     8  C    0.031543
     9  C   -0.153763
    10  C    0.039021
    11  C    0.036059
    12  C    0.038127
    13  C   -0.109461
    14  H    0.041407
    15  N   -0.434321
    16  C    0.181800
    17  C   -0.135684
    18  C   -0.121021
    19  C    0.236188
    20  C    0.062922
    21  C    0.024926
    22  O   -0.229577
    23  C    0.001899
    24  N   -0.396351
    25  C    0.068607
    26  C   -0.119381
    27  C   -0.097020
    28  C    0.094360
    29  C    0.022071
    30  C   -0.030764
    31  C   -0.043144
    32  N   -0.425006
    33  C    0.086141
    34  C   -0.233663
    35  C    0.018452
    36  C    0.142527
    37  C    0.107306
    38  C    0.094435
    39  O   -0.186577
    40  C   -0.073754
    41  C    0.260123
    42  O   -0.213120
    43  O   -0.378427
    44  C    0.124715
    45  H   -0.006375
    46  H   -0.019655
    47  H   -0.005985
    48  H    0.020795
    49  H    0.031383
    50  H    0.043447
    51  H    0.049289
    52  H    0.029122
    53  H    0.029829
    54  H    0.035461
    55  H    0.036428
    56  H    0.039799
    57  H    0.058607
    58  H    0.019611
    59  H    0.074526
    60  H    0.052432
    61  H    0.058032
    62  H    0.079018
    63  H    0.040399
    64  H    0.042188
    65  H    0.035907
    66  H    0.050042
    67  H    0.035385
    68  H    0.033113
    69  H    0.030002
    70  H    0.038269
    71  H    0.042314
    72  H    0.038954
    73  H    0.070601
    74  H    0.005445
    75  H    0.058172
    76  H    0.072871
    77  H    0.057126
    78  H    0.062234
    79  H    0.040224
    80  Mg   0.973777
    81  C   -0.021158
    82  C   -0.054267
    83  C   -0.053561
    84  C   -0.110093
    85  N   -0.301993
    86  C   -0.006928
    87  C   -0.073328
    88  C   -0.132776
    89  C    0.070392
    90  C    0.036884
    91  C    0.034076
    92  C   -0.096303
    93  H    0.049874
    94  N   -0.460663
    95  C    0.091632
    96  C   -0.147336
    97  C   -0.078582
    98  C    0.134250
    99  C    0.063017
   100  C    0.051803
   101  O   -0.201397
   102  C   -0.020423
   103  N   -0.271231
   104  C    0.014714
   105  C   -0.095336
   106  C   -0.044806
   107  C    0.058187
   108  C    0.023235
   109  C   -0.029445
   110  C   -0.028145
   111  N   -0.485369
   112  C    0.125805
   113  C   -0.223712
   114  C   -0.055344
   115  C    0.152381
   116  C    0.077618
   117  C    0.163258
   118  O   -0.174817
   119  C   -0.083160
   120  C    0.267114
   121  O   -0.273006
   122  O   -0.390007
   123  C    0.157561
   124  H   -0.025708
   125  H    0.021031
   126  H   -0.000164
   127  H    0.020584
   128  H    0.035038
   129  H    0.041941
   130  H    0.027856
   131  H    0.045278
   132  H    0.025034
   133  H    0.073836
   134  H    0.043902
   135  H    0.037059
   136  H    0.048596
   137  H    0.053733
   138  H    0.042082
   139  H    0.049796
   140  H    0.042894
   141  H    0.056125
   142  H    0.045878
   143  H    0.031655
   144  H    0.049303
   145  H    0.037542
   146  H    0.032022
   147  H    0.020877
   148  H    0.014728
   149  H    0.040145
   150  H    0.034902
   151  H    0.038235
   152  H    0.028655
   153  H    0.052694
   154  H    0.061911
   155  H    0.080212
   156  H    0.043702
   157  H    0.073795
   158  H    0.042437
 Sum of Mulliken charges =  -0.00000

 Dipole moment (field-independent basis, Debye):
    X=             -3.9425    Y=              3.9451    Z=             -2.2033  Tot=              5.9968
 Quadrupole moment (field-independent basis, Debye-Ang):
   XX=           -434.1905   YY=           -506.8011   ZZ=           -493.3090
   XY=             75.3029   XZ=            -99.1753   YZ=              0.8207

 Normal termination of Gaussian 16 at Mon Sep 20 17:18:50 2021.
