 Gaussian 16, Revision A.03,
 Gaussian 16:  ES64L-G16RevA.03 25-Dec-2016

 --------------------------------
 #p wB97XD/Def2SVP td=(nstates=5)
 --------------------------------

 --------------------------------
 TDDFT excited states in gaussian
 --------------------------------
 Symbolic Z-matrix:
 Charge =  0 Multiplicity = 1

                         Standard orientation:
 ---------------------------------------------------------------------
 Center     Atomic      Atomic             Coordinates (Angstroms)
 Number     Number       Type             X           Y           Z
 ---------------------------------------------------------------------
      1         12           0       -9.198814   -0.220959   -0.030802
      2          6           0       -7.008644    2.116918    1.160594
      3          6           0      -11.012453    2.131166   -1.540946
      4          6           0      -11.291618   -2.571761   -0.877229
      5          6           0       -7.539412   -2.541974    2.105042
      6          7           0       -9.130449    1.948219   -0.038922
      7          6           0       -8.004688    2.629852    0.289793
      8          6           0       -7.970927    3.994898   -0.341225
      9          6           0       -9.419423    4.066128   -0.971765
     10          6           0       -9.943359    2.659438   -0.779693
     11          6           0      -10.322620    5.180794   -0.391495
     12          6           0       -6.698875    4.241591   -1.360252
     13          6           0       -5.891921    5.541967   -1.225743
     14          1           0       -6.621325    6.762731   -0.581846
     15          7           0      -10.750523   -0.247595   -1.163333
     16          6           0      -11.408243    0.799794   -1.725543
     17          6           0      -12.631927    0.415368   -2.385879
     18          6           0      -12.617020   -0.946712   -2.378139
     19          6           0      -11.590310   -1.295805   -1.347684
     20          6           0      -13.549465    1.531561   -2.850429
     21          6           0      -13.582908   -1.927884   -3.071667
     22          8           0      -13.525856   -3.130050   -2.956501
     23          6           0      -14.645991   -1.256987   -3.890404
     24          7           0       -9.457900   -2.235325    0.697668
     25          6           0      -10.350580   -3.003709    0.047844
     26          6           0      -10.246053   -4.463989    0.498852
     27          6           0       -8.849001   -4.511851    1.205763
     28          6           0       -8.590327   -3.001551    1.382769
     29          6           0      -11.416626   -5.066076    1.387097
     30          6           0       -7.669367   -5.152822    0.381902
     31          6           0       -7.231570   -4.627582   -0.959999
     32          7           0       -7.549789   -0.326664    1.311148
     33          6           0       -7.031605   -1.290545    2.182105
     34          6           0       -5.894531   -0.769151    2.951251
     35          6           0       -5.841013    0.580329    2.571414
     36          6           0       -6.862835    0.756190    1.585942
     37          6           0       -4.968658   -1.517154    3.875792
     38          6           0       -5.193269    1.796713    2.761343
     39          8           0       -4.294818    2.156706    3.505847
     40          6           0       -5.749967    2.781249    1.700525
     41          6           0       -6.001278    4.002631    2.499375
     42          8           0       -6.980978    4.194719    3.223610
     43          8           0       -4.945210    4.864239    2.428259
     44          6           0       -4.862505    5.983090    3.372420
     45          1           0      -11.466051    2.894146   -2.177352
     46          1           0      -11.917288   -3.419750   -1.160830
     47          1           0       -7.103929   -3.365104    2.676681
     48          1           0       -7.963707    4.771543    0.423619
     49          1           0       -9.326914    4.194055   -2.050054
     50          1           0      -11.040308    4.731038    0.294503
     51          1           0      -10.875560    5.638500   -1.211792
     52          1           0       -9.661973    5.873946    0.129400
     53          1           0       -7.133751    4.192039   -2.358589
     54          1           0       -5.951918    3.458511   -1.233986
     55          1           0       -5.633030    5.927529   -2.211497
     56          1           0       -4.938073    5.335272   -0.740553
     57          1           0      -13.929390    2.178742   -2.059758
     58          1           0      -14.539200    1.304777   -3.246329
     59          1           0      -12.924652    2.008117   -3.605838
     60          1           0      -14.199769   -0.599181   -4.635869
     61          1           0      -15.262452   -0.797103   -3.118294
     62          1           0      -15.283988   -1.869174   -4.526810
     63          1           0      -10.285887   -4.989941   -0.455694
     64          1           0       -8.976602   -4.938285    2.200984
     65          1           0      -12.179021   -4.303942    1.546556
     66          1           0      -11.065751   -5.276343    2.396734
     67          1           0      -11.878966   -5.985510    1.024732
     68          1           0       -8.040541   -6.175221    0.306501
     69          1           0       -6.735205   -5.165148    0.942505
     70          1           0       -7.945460   -3.880460   -1.309251
     71          1           0       -7.230074   -5.426812   -1.701011
     72          1           0       -6.277150   -4.102246   -0.988421
     73          1           0       -5.138493   -1.270554    4.922921
     74          1           0       -3.932859   -1.305082    3.610207
     75          1           0       -5.281888   -2.553513    3.747046
     76          1           0       -5.062767    2.909300    0.863987
     77          1           0       -3.834962    6.311712    3.532608
     78          1           0       -5.443368    5.799170    4.274937
     79          1           0       -5.391314    6.868114    3.019066
     80         12           0        8.412146   -1.065946   -0.673348
     81          6           0       10.750483    1.518440   -0.527554
     82          6           0        5.972243    1.159730   -1.085791
     83          6           0        6.236946   -3.415591    0.523637
     84          6           0       10.994654   -3.353399   -0.189116
     85          7           0        8.391415    1.113310   -0.961164
     86          6           0        9.442653    1.919639   -0.877967
     87          6           0        9.000668    3.376057   -1.269430
     88          6           0        7.460050    3.243366   -1.329547
     89          6           0        7.228469    1.754426   -1.090133
     90          6           0        6.689241    4.023503   -0.152358
     91          6           0        9.601935    3.923703   -2.642708
     92          6           0       10.021604    5.350501   -2.547653
     93          1           0        9.532392    6.346385   -3.587907
     94          7           0        6.383401   -1.109859   -0.357987
     95          6           0        5.522344   -0.076019   -0.614802
     96          6           0        4.147158   -0.593215   -0.584608
     97          6           0        4.239253   -1.932088   -0.111897
     98          6           0        5.678225   -2.175040    0.083385
     99          6           0        2.895866    0.288750   -0.895160
    100          6           0        3.088310   -2.929082    0.219971
    101          8           0        3.263835   -4.074216    0.620858
    102          6           0        1.693419   -2.473314    0.013070
    103          7           0        8.570992   -3.018142    0.070244
    104          6           0        7.543950   -3.814900    0.585111
    105          6           0        8.150253   -5.083676    1.239727
    106          6           0        9.506091   -5.285353    0.431112
    107          6           0        9.675214   -3.780405    0.078067
    108          6           0        8.280364   -4.974556    2.774168
    109          6           0        9.447911   -6.133378   -0.807622
    110          6           0        8.902314   -5.588907   -2.094280
    111          7           0       10.476252   -1.040290   -0.606686
    112          6           0       11.406062   -2.025438   -0.366721
    113          6           0       12.773083   -1.499564   -0.358810
    114          6           0       12.572919   -0.046571   -0.318384
    115          6           0       11.143881    0.146264   -0.463123
    116          6           0       13.984397   -2.255389   -0.155119
    117          6           0       13.226101    1.250688   -0.192734
    118          8           0       14.338498    1.562129    0.015136
    119          6           0       12.044730    2.333352   -0.407987
    120          6           0       12.019205    3.437681    0.618347
    121          8           0       11.365368    3.424215    1.657092
    122          8           0       12.780413    4.504215    0.141149
    123          6           0       12.864673    5.712248    0.981778
    124          1           0        5.079384    1.705504   -1.399018
    125          1           0        5.487155   -4.109676    0.909992
    126          1           0       11.759104   -4.130732   -0.133497
    127          1           0        9.221542    4.098024   -0.482854
    128          1           0        6.978933    3.603464   -2.238901
    129          1           0        6.447637    5.013886   -0.538726
    130          1           0        7.276775    4.210272    0.746173
    131          1           0        5.765751    3.482355    0.056924
    132          1           0        8.878569    3.855505   -3.455399
    133          1           0       10.451555    3.367393   -3.038898
    134          1           0       11.096908    5.300230   -2.716610
    135          1           0        9.880964    5.862444   -1.596102
    136          1           0        2.592041    0.713804    0.061048
    137          1           0        2.115703   -0.283037   -1.398237
    138          1           0        3.126588    1.221724   -1.410485
    139          1           0        1.374517   -1.466325    0.281640
    140          1           0        1.009654   -3.136892    0.541857
    141          1           0        1.371450   -2.754017   -0.990155
    142          1           0        7.449447   -5.869575    0.959529
    143          1           0       10.305769   -5.682568    1.056026
    144          1           0        9.267140   -5.166385    3.195610
    145          1           0        7.486811   -5.487822    3.317709
    146          1           0        8.080500   -3.950762    3.089902
    147          1           0        8.887972   -7.060292   -0.689559
    148          1           0       10.463831   -6.459633   -1.030721
    149          1           0        9.807178   -5.264166   -2.607647
    150          1           0        8.259030   -4.713059   -2.006782
    151          1           0        8.397128   -6.388502   -2.637033
    152          1           0       14.738696   -1.777567   -0.780538
    153          1           0       13.798862   -3.263061   -0.526146
    154          1           0       14.284558   -2.210953    0.891330
    155          1           0       12.218859    2.802254   -1.376456
    156          1           0       13.183149    5.386635    1.972423
    157          1           0       11.885456    6.177514    1.091651
    158          1           0       13.514685    6.533883    0.680487
 ---------------------------------------------------------------------

 SCF Done:  E(RwB97XD) =  -4070.61130346     A.U. after   19 cycles

 Excitation energies and oscillator strengths:

 Excited State   1:      Singlet-A      1.6219 eV  764.43 nm  f=0.4661  <S**2>=0.000
     310 -> 316       -0.18120
     312 -> 313        0.68040
     310 <- 316       -0.11682
 This state for optimization and/or second-order correction.
 Total Energy, E(TD-HF/TD-DFT) =  -4070.55169880
 Copying the excited state density for this state as the 1-particle RhoCI density.

 Excited State   2:      Singlet-A      1.7231 eV  719.54 nm  f=0.3190  <S**2>=0.000
     309 -> 315       -0.19491
     311 -> 314        0.67591
     309 <- 315       -0.11354

 Excited State   3:      Singlet-A      2.2002 eV  563.52 nm  f=0.0922  <S**2>=0.000
     310 -> 313        0.63046
     312 -> 316        0.30771

 Excited State   4:      Singlet-A      2.2249 eV  557.25 nm  f=0.0602  <S**2>=0.000
     309 -> 314        0.61411
     311 -> 315        0.33858

 Excited State   5:      Singlet-A      3.4675 eV  357.56 nm  f=0.0000  <S**2>=0.000
     311 -> 313        0.70630

 The electronic state is 1-A.
 Alpha  occ. eigenvalues --  -46.94423 -46.94160 -19.30181 -19.29270 -19.25085
 Alpha  occ. eigenvalues --  -19.24953 -19.24658 -19.24060 -19.23414 -19.22820
 Alpha  occ. eigenvalues --  -14.46662 -14.46402 -14.45920 -14.45744 -14.44761
 Alpha  occ. eigenvalues --  -14.43802 -14.43688 -14.43446 -10.43465 -10.42236
 Alpha  occ. eigenvalues --  -10.40054 -10.39469 -10.39453 -10.37660 -10.35463
 Alpha  occ. eigenvalues --  -10.35257 -10.35055 -10.34746 -10.34577 -10.34526
 Alpha  occ. eigenvalues --  -10.34509 -10.34463 -10.34403 -10.34357 -10.33925
 Alpha  occ. eigenvalues --  -10.33779 -10.33694 -10.33422 -10.33275 -10.33229
 Alpha  occ. eigenvalues --  -10.33173 -10.33007 -10.32799 -10.32778 -10.32734
 Alpha  occ. eigenvalues --  -10.32370 -10.32277 -10.32259 -10.32160 -10.32137
 Alpha  occ. eigenvalues --  -10.32105 -10.32050 -10.32005 -10.31890 -10.31847
 Alpha  occ. eigenvalues --  -10.31830 -10.31734 -10.31689 -10.31664 -10.31613
 Alpha  occ. eigenvalues --  -10.31522 -10.31517 -10.31503 -10.31309 -10.31032
 Alpha  occ. eigenvalues --  -10.30742 -10.30691 -10.30634 -10.30503 -10.30268
 Alpha  occ. eigenvalues --  -10.30081 -10.30053 -10.30024 -10.29980 -10.29887
 Alpha  occ. eigenvalues --  -10.29837 -10.29729 -10.29668 -10.29512 -10.29401
 Alpha  occ. eigenvalues --  -10.29276 -10.29267 -10.29112 -10.29110 -10.28293
 Alpha  occ. eigenvalues --  -10.28177  -3.20681  -3.20280  -1.94244  -1.93877
 Alpha  occ. eigenvalues --   -1.93826  -1.93692  -1.93383  -1.93283  -1.17243
 Alpha  occ. eigenvalues --   -1.17145  -1.15132  -1.13876  -1.12223  -1.11352
 Alpha  occ. eigenvalues --   -1.09572  -1.08236  -1.07762  -1.07066  -1.06876
 Alpha  occ. eigenvalues --   -1.06221  -1.05469  -1.05128  -1.04789  -1.04072
 Alpha  occ. eigenvalues --   -0.94441  -0.93754  -0.91717  -0.90801  -0.90458
 Alpha  occ. eigenvalues --   -0.90373  -0.90027  -0.89956  -0.89845  -0.89504
 Alpha  occ. eigenvalues --   -0.89038  -0.88715  -0.88598  -0.88090  -0.86419
 Alpha  occ. eigenvalues --   -0.85958  -0.85580  -0.85397  -0.84735  -0.84625
 Alpha  occ. eigenvalues --   -0.84353  -0.83633  -0.83115  -0.82851  -0.82607
 Alpha  occ. eigenvalues --   -0.82229  -0.81120  -0.80069  -0.79482  -0.79069
 Alpha  occ. eigenvalues --   -0.79017  -0.78574  -0.77758  -0.77661  -0.77240
 Alpha  occ. eigenvalues --   -0.76677  -0.74729  -0.74149  -0.73780  -0.73330
 Alpha  occ. eigenvalues --   -0.71658  -0.71128  -0.71051  -0.70404  -0.70255
 Alpha  occ. eigenvalues --   -0.69589  -0.69444  -0.68595  -0.67537  -0.67484
 Alpha  occ. eigenvalues --   -0.67007  -0.66867  -0.66511  -0.66143  -0.65941
 Alpha  occ. eigenvalues --   -0.65865  -0.63826  -0.63712  -0.63267  -0.62018
 Alpha  occ. eigenvalues --   -0.61445  -0.61414  -0.61388  -0.60774  -0.60016
 Alpha  occ. eigenvalues --   -0.60001  -0.59918  -0.59653  -0.59633  -0.59110
 Alpha  occ. eigenvalues --   -0.58432  -0.57679  -0.57372  -0.57361  -0.57200
 Alpha  occ. eigenvalues --   -0.57200  -0.56680  -0.56665  -0.56505  -0.55959
 Alpha  occ. eigenvalues --   -0.55723  -0.55427  -0.55243  -0.55210  -0.54779
 Alpha  occ. eigenvalues --   -0.54717  -0.54674  -0.54483  -0.54309  -0.54275
 Alpha  occ. eigenvalues --   -0.53983  -0.53714  -0.53582  -0.53449  -0.53310
 Alpha  occ. eigenvalues --   -0.53216  -0.53111  -0.52661  -0.52532  -0.52253
 Alpha  occ. eigenvalues --   -0.52206  -0.52007  -0.51901  -0.51600  -0.51446
 Alpha  occ. eigenvalues --   -0.51375  -0.51320  -0.51130  -0.50949  -0.50833
 Alpha  occ. eigenvalues --   -0.50580  -0.50406  -0.50136  -0.50124  -0.50037
 Alpha  occ. eigenvalues --   -0.49835  -0.49801  -0.49621  -0.49211  -0.48849
 Alpha  occ. eigenvalues --   -0.48779  -0.48717  -0.48671  -0.48540  -0.48397
 Alpha  occ. eigenvalues --   -0.48078  -0.47932  -0.47725  -0.47649  -0.47502
 Alpha  occ. eigenvalues --   -0.47319  -0.47253  -0.47034  -0.46893  -0.46773
 Alpha  occ. eigenvalues --   -0.46573  -0.46447  -0.46205  -0.46179  -0.45992
 Alpha  occ. eigenvalues --   -0.45929  -0.45876  -0.45606  -0.45547  -0.45170
 Alpha  occ. eigenvalues --   -0.45158  -0.45097  -0.44956  -0.44923  -0.44593
 Alpha  occ. eigenvalues --   -0.44481  -0.44480  -0.44179  -0.43910  -0.43680
 Alpha  occ. eigenvalues --   -0.43636  -0.43421  -0.43353  -0.43280  -0.43232
 Alpha  occ. eigenvalues --   -0.43086  -0.42987  -0.42823  -0.42587  -0.42291
 Alpha  occ. eigenvalues --   -0.42011  -0.41619  -0.41219  -0.40946  -0.40500
 Alpha  occ. eigenvalues --   -0.40478  -0.40205  -0.39860  -0.39497  -0.39178
 Alpha  occ. eigenvalues --   -0.38853  -0.38556  -0.38545  -0.38505  -0.38423
 Alpha  occ. eigenvalues --   -0.37751  -0.37283  -0.36452  -0.36326  -0.36176
 Alpha  occ. eigenvalues --   -0.35557  -0.35081  -0.34959  -0.34746  -0.33508
 Alpha  occ. eigenvalues --   -0.33290  -0.33164  -0.33050  -0.33025  -0.32202
 Alpha  occ. eigenvalues --   -0.32073  -0.31984  -0.31661  -0.25881  -0.25801
 Alpha  occ. eigenvalues --   -0.22546  -0.22478
 Alpha virt. eigenvalues --   -0.06705  -0.06281   0.00040   0.00643   0.02181
 Alpha virt. eigenvalues --    0.02596   0.04459   0.04647   0.05737   0.05996
 Alpha virt. eigenvalues --    0.06825   0.07418   0.08169   0.08355   0.08724

 Mulliken charges:
               1
     1  Mg   0.992858
     2  C    0.011052
     3  C   -0.117817
     4  C   -0.080784
     5  C   -0.116992
     6  N   -0.330590
     7  C   -0.017032
     8  C   -0.037013
     9  C   -0.154025
    10  C    0.076342
    11  C    0.047321
    12  C    0.007515
    13  C   -0.126102
    14  H    0.027129
    15  N   -0.509847
    16  C    0.180243
    17  C   -0.131339
    18  C   -0.119392
    19  C    0.182744
    20  C    0.046250
    21  C    0.071682
    22  O   -0.201652
    23  C   -0.025180
    24  N   -0.321358
    25  C    0.021129
    26  C   -0.086173
    27  C   -0.050264
    28  C   -0.008386
    29  C    0.024155
    30  C   -0.010815
    31  C   -0.046602
    32  N   -0.398719
    33  C    0.159718
    34  C   -0.187384
    35  C    0.034576
    36  C    0.091066
    37  C    0.104955
    38  C    0.050101
    39  O   -0.214642
    40  C   -0.074725
    41  C    0.264724
    42  O   -0.267739
    43  O   -0.356303
    44  C    0.151640
    45  H   -0.008389
    46  H    0.016752
    47  H   -0.009956
    48  H    0.043207
    49  H    0.031807
    50  H    0.045995
    51  H    0.038716
    52  H    0.045918
    53  H    0.033220
    54  H    0.040251
    55  H    0.048831
    56  H    0.061728
    57  H    0.060675
    58  H    0.029915
    59  H    0.066489
    60  H    0.061444
    61  H    0.069507
    62  H    0.048252
    63  H    0.035164
    64  H    0.029641
    65  H    0.038329
    66  H    0.026226
    67  H    0.050494
    68  H    0.032742
    69  H    0.032631
    70  H    0.028294
    71  H    0.041468
    72  H    0.043071
    73  H    0.060066
    74  H    0.063073
    75  H    0.020305
    76  H    0.071304
    77  H    0.061298
    78  H    0.057649
    79  H    0.029557
    80  Mg   0.983698
    81  C    0.017009
    82  C   -0.089987
    83  C   -0.082599
    84  C   -0.106327
    85  N   -0.316691
    86  C    0.009479
    87  C   -0.040509
    88  C   -0.129205
    89  C    0.104293
    90  C   -0.004765
    91  C    0.028258
    92  C   -0.147594
    93  H    0.025603
    94  N   -0.453179
    95  C    0.112149
    96  C   -0.155423
    97  C   -0.103374
    98  C    0.124021
    99  C    0.045400
   100  C    0.085085
   101  O   -0.233396
   102  C   -0.023580
   103  N   -0.364517
   104  C    0.051594
   105  C   -0.053065
   106  C   -0.060038
   107  C    0.046651
   108  C    0.044562
   109  C   -0.025255
   110  C   -0.034894
   111  N   -0.447990
   112  C    0.163595
   113  C   -0.169215
   114  C   -0.084514
   115  C    0.117202
   116  C    0.077103
   117  C    0.137499
   118  O   -0.142485
   119  C   -0.138940
   120  C    0.283267
   121  O   -0.248839
   122  O   -0.383470
   123  C    0.147002
   124  H   -0.012929
   125  H    0.021630
   126  H   -0.009976
   127  H    0.043106
   128  H    0.043714
   129  H    0.031046
   130  H    0.051494
   131  H    0.038940
   132  H    0.037621
   133  H    0.036790
   134  H    0.053801
   135  H    0.051577
   136  H    0.060330
   137  H    0.062908
   138  H    0.032299
   139  H    0.061703
   140  H    0.038549
   141  H    0.061330
   142  H    0.024142
   143  H    0.023755
   144  H    0.039061
   145  H    0.044538
   146  H    0.032485
   147  H    0.026461
   148  H    0.023273
   149  H    0.026881
   150  H    0.051766
   151  H    0.039818
   152  H    0.057120
   153  H    0.036433
   154  H    0.074481
   155  H    0.075733
   156  H    0.054299
   157  H    0.040639
   158  H    0.061564
 Sum of Mulliken charges =  -0.00000

 Dipole moment (field-independent basis, Debye):
    X=             -5.1315    Y=              1.2315    Z=             -7.3093  Tot=              9.0153
 Quadrupole moment (field-independent basis, Debye-Ang):
   XX=           -503.2621   YY=           -470.3729   ZZ=           -516.4216
   XY=            -29.4124   XZ=             23.4657   YZ=            -25.6198

 Normal termination of Gaussian 16 at Fri Sep 17 17:35:37 2021.
