 Gaussian 16, Revision A.03,
 Gaussian 16:  ES64L-G16RevA.03 25-Dec-2016

 --------------------------------
 #p wB97XD/Def2SVP td=(nstates=5)
 --------------------------------

 --------------------------------
 TDDFT excited states in gaussian
 --------------------------------
 Symbolic Z-matrix:
 Charge =  0 Multiplicity = 1

                         Standard orientation:
 ---------------------------------------------------------------------
 Center     Atomic      Atomic             Coordinates (Angstroms)
 Number     Number       Type             X           Y           Z
 ---------------------------------------------------------------------
      1         12           0       -8.897678    0.292575    0.616418
      2          6           0       -8.023829   -1.860897   -1.970541
      3          6           0       -6.772388   -1.505478    2.683742
      4          6           0       -9.203791    2.564519    2.997547
      5          6           0      -10.583813    2.290508   -1.651564
      6          7           0       -7.438699   -1.363743    0.355098
      7          6           0       -7.355601   -2.179424   -0.754700
      8          6           0       -6.504996   -3.393138   -0.523021
      9          6           0       -6.441023   -3.440045    1.067262
     10          6           0       -6.864021   -2.020001    1.419122
     11          6           0       -7.099971   -4.632719    1.910120
     12          6           0       -5.098121   -3.398895   -1.282416
     13          6           0       -4.393639   -2.028904   -1.513217
     14          1           0       -2.901059   -2.052318   -1.286816
     15          7           0       -8.008764    0.574485    2.540446
     16          6           0       -7.157779   -0.305140    3.221109
     17          6           0       -6.745947    0.233950    4.488160
     18          6           0       -7.436397    1.463735    4.606439
     19          6           0       -8.245927    1.623104    3.361764
     20          6           0       -5.975481   -0.636159    5.482507
     21          6           0       -7.307972    2.351478    5.865228
     22          8           0       -6.526245    2.079647    6.782165
     23          6           0       -8.213102    3.508828    5.931677
     24          7           0       -9.680371    2.205310    0.568791
     25          6           0       -9.924126    2.822122    1.784359
     26          6           0      -10.828555    4.067749    1.657354
     27          6           0      -11.034352    4.040641    0.087291
     28          6           0      -10.367803    2.823003   -0.377554
     29          6           0      -12.116637    4.121901    2.416534
     30          6           0      -10.386343    5.317446   -0.653170
     31          6           0      -11.344030    5.907151   -1.655451
     32          7           0       -9.436257    0.175231   -1.393165
     33          6           0      -10.130209    1.074161   -2.181744
     34          6           0      -10.211117    0.568035   -3.571025
     35          6           0       -9.384304   -0.608236   -3.531424
     36          6           0       -8.958069   -0.771679   -2.208205
     37          6           0      -10.714516    1.214119   -4.797408
     38          6           0       -8.740783   -1.696362   -4.297994
     39          8           0       -8.744676   -1.900175   -5.489981
     40          6           0       -7.880428   -2.560434   -3.320752
     41          6           0       -8.297549   -3.961854   -3.380283
     42          8           0       -7.665407   -4.962562   -3.719392
     43          8           0       -9.710620   -3.974610   -3.245065
     44          6           0      -10.333641   -5.315353   -3.221336
     45          1           0       -6.305833   -2.232833    3.352147
     46          1           0       -9.535886    3.273708    3.758455
     47          1           0      -11.199790    2.950172   -2.265307
     48          1           0       -7.003127   -4.282102   -0.909784
     49          1           0       -5.362831   -3.504190    1.215990
     50          1           0       -7.511253   -5.455798    1.326019
     51          1           0       -7.955381   -4.325283    2.511524
     52          1           0       -6.318869   -5.152226    2.465862
     53          1           0       -5.172219   -3.946376   -2.221456
     54          1           0       -4.439917   -4.032571   -0.688054
     55          1           0       -4.846417   -1.253841   -0.894102
     56          1           0       -4.530085   -1.714267   -2.547493
     57          1           0       -5.297786   -0.074437    6.126167
     58          1           0       -5.308670   -1.300334    4.933279
     59          1           0       -6.733228   -1.123520    6.096476
     60          1           0       -9.228715    3.144841    6.084184
     61          1           0       -8.114669    4.105750    5.024438
     62          1           0       -7.885141    4.071161    6.805885
     63          1           0      -10.198908    4.943243    1.817666
     64          1           0      -12.101221    3.836542   -0.003238
     65          1           0      -12.663452    4.973083    2.010510
     66          1           0      -11.870523    4.402989    3.440524
     67          1           0      -12.639743    3.167161    2.350663
     68          1           0       -9.455208    4.971004   -1.101387
     69          1           0       -9.997884    6.115191   -0.018816
     70          1           0      -10.946059    5.711714   -2.650915
     71          1           0      -11.316020    6.997257   -1.664958
     72          1           0      -12.300147    5.386802   -1.602908
     73          1           0      -11.139752    2.210704   -4.669718
     74          1           0      -11.531208    0.585270   -5.150194
     75          1           0       -9.778517    1.363781   -5.335185
     76          1           0       -6.857919   -2.434547   -3.675969
     77          1           0      -11.033027   -5.222366   -2.389695
     78          1           0       -9.734270   -6.211751   -3.061949
     79          1           0      -10.990440   -5.321641   -4.091405
     80         12           0        8.957827    0.710067   -0.250486
     81          6           0        7.487518   -2.443379    0.700190
     82          6           0        5.723539    1.748073   -1.121835
     83          6           0       10.257248    3.628213   -1.009315
     84          6           0       12.124937   -0.627240    0.383667
     85          7           0        6.833036   -0.319894   -0.213836
     86          6           0        6.471638   -1.479610    0.395835
     87          6           0        4.965274   -1.586598    0.568654
     88          6           0        4.377911   -0.374507   -0.348390
     89          6           0        5.709255    0.389188   -0.604572
     90          6           0        3.585025   -0.826087   -1.600429
     91          6           0        4.521248   -1.505693    2.068279
     92          6           0        3.692462   -2.725818    2.546905
     93          1           0        2.158724   -2.352218    2.976518
     94          7           0        8.131323    2.396020   -0.938742
     95          6           0        6.771345    2.691765   -1.292508
     96          6           0        6.575810    4.081350   -1.769312
     97          6           0        7.904359    4.609487   -1.666616
     98          6           0        8.809219    3.548114   -1.194278
     99          6           0        5.244375    4.668714   -2.241811
    100          6           0        8.393716    5.952546   -2.055140
    101          8           0        9.474231    6.438318   -1.738486
    102          6           0        7.421670    6.884351   -2.805192
    103          7           0       10.861315    1.419341   -0.133412
    104          6           0       11.169874    2.673290   -0.535822
    105          6           0       12.650437    2.901589   -0.662862
    106          6           0       13.286262    1.574941   -0.179393
    107          6           0       12.029738    0.722025    0.106544
    108          6           0       13.102489    3.388687   -2.023568
    109          6           0       14.158260    1.816478    1.188943
    110          6           0       15.697849    1.300887    1.143118
    111          7           0        9.720024   -1.233409    0.153411
    112          6           0       11.058603   -1.574660    0.463254
    113          6           0       11.072442   -2.977571    0.893127
    114          6           0        9.700150   -3.264805    1.116719
    115          6           0        8.939159   -2.242390    0.547918
    116          6           0       12.250439   -3.916899    1.133587
    117          6           0        8.801261   -4.405171    1.451883
    118          8           0        8.964994   -5.612477    1.782109
    119          6           0        7.340658   -3.828592    1.299942
    120          6           0        6.554531   -4.753350    0.418087
    121          8           0        6.968031   -5.228836   -0.601384
    122          8           0        5.362575   -5.052821    1.017257
    123          6           0        4.683329   -6.211309    0.383945
    124          1           0        4.725081    1.972945   -1.502042
    125          1           0       10.750823    4.572904   -1.248037
    126          1           0       13.100362   -1.054629    0.624213
    127          1           0        4.676641   -2.528422    0.101937
    128          1           0        3.751841    0.313624    0.220235
    129          1           0        4.103756   -0.535338   -2.514400
    130          1           0        2.581856   -0.397883   -1.591048
    131          1           0        3.355919   -1.890076   -1.660407
    132          1           0        3.906022   -0.626220    2.260106
    133          1           0        5.379149   -1.452403    2.739082
    134          1           0        4.038637   -3.131959    3.497690
    135          1           0        3.704312   -3.586450    1.878859
    136          1           0        4.336928    4.139476   -1.949329
    137          1           0        5.170425    4.862888   -3.311778
    138          1           0        5.189636    5.648767   -1.766818
    139          1           0        7.131901    6.442382   -3.758462
    140          1           0        7.830217    7.886042   -2.942835
    141          1           0        6.528909    6.997406   -2.190156
    142          1           0       12.915680    3.741576   -0.019434
    143          1           0       13.872354    1.106100   -0.969278
    144          1           0       13.402702    4.436850   -2.032563
    145          1           0       12.337336    3.369048   -2.799534
    146          1           0       13.918825    2.746051   -2.353937
    147          1           0       13.726116    1.355571    2.076555
    148          1           0       14.233744    2.870619    1.454454
    149          1           0       15.950758    1.238685    0.084507
    150          1           0       15.817774    0.335406    1.636333
    151          1           0       16.382159    2.059497    1.522133
    152          1           0       12.044327   -4.642748    1.919960
    153          1           0       13.059157   -3.319538    1.556186
    154          1           0       12.510592   -4.256106    0.130807
    155          1           0        6.889762   -3.912200    2.288456
    156          1           0        4.598088   -5.994378   -0.680671
    157          1           0        3.674360   -6.165874    0.793554
    158          1           0        5.139581   -7.198856    0.451844
 ---------------------------------------------------------------------

 SCF Done:  E(RwB97XD) =  -4070.60116446     A.U. after   20 cycles

 Excitation energies and oscillator strengths:

 Excited State   1:      Singlet-A      1.6157 eV  767.39 nm  f=0.3577  <S**2>=0.000
     310 -> 316        0.19298
     312 -> 313        0.68188
     310 <- 316        0.12112
 This state for optimization and/or second-order correction.
 Total Energy, E(TD-HF/TD-DFT) =  -4070.54179011
 Copying the excited state density for this state as the 1-particle RhoCI density.

 Excited State   2:      Singlet-A      1.6616 eV  746.16 nm  f=0.3738  <S**2>=0.000
     309 -> 315        0.18774
     311 -> 314        0.68133
     309 <- 315        0.11478

 Excited State   3:      Singlet-A      2.1192 eV  585.06 nm  f=0.1303  <S**2>=0.000
     310 -> 313        0.64420
     312 -> 316       -0.27909

 Excited State   4:      Singlet-A      2.1483 eV  577.12 nm  f=0.0877  <S**2>=0.000
     309 -> 314        0.62709
     311 -> 315       -0.30676

 Excited State   5:      Singlet-A      3.4901 eV  355.24 nm  f=0.0000  <S**2>=0.000
     312 -> 314        0.70666

 The electronic state is 1-A.
 Alpha  occ. eigenvalues --  -46.95618 -46.94761 -19.30773 -19.29722 -19.25641
 Alpha  occ. eigenvalues --  -19.24566 -19.24211 -19.24037 -19.23924 -19.23649
 Alpha  occ. eigenvalues --  -14.47145 -14.47015 -14.46949 -14.46401 -14.45269
 Alpha  occ. eigenvalues --  -14.44427 -14.43940 -14.43729 -10.43752 -10.42557
 Alpha  occ. eigenvalues --  -10.39306 -10.39227 -10.39086 -10.39031 -10.35850
 Alpha  occ. eigenvalues --  -10.35806 -10.35591 -10.35585 -10.35526 -10.35382
 Alpha  occ. eigenvalues --  -10.35191 -10.35148 -10.34896 -10.34836 -10.34819
 Alpha  occ. eigenvalues --  -10.34810 -10.34676 -10.34300 -10.34245 -10.33874
 Alpha  occ. eigenvalues --  -10.33562 -10.33191 -10.33112 -10.32995 -10.32959
 Alpha  occ. eigenvalues --  -10.32854 -10.32818 -10.32788 -10.32738 -10.32666
 Alpha  occ. eigenvalues --  -10.32595 -10.32545 -10.32476 -10.32463 -10.32422
 Alpha  occ. eigenvalues --  -10.32420 -10.32267 -10.32266 -10.32133 -10.31928
 Alpha  occ. eigenvalues --  -10.31875 -10.31769 -10.31586 -10.31368 -10.31254
 Alpha  occ. eigenvalues --  -10.31168 -10.31159 -10.31110 -10.31095 -10.31074
 Alpha  occ. eigenvalues --  -10.30964 -10.30904 -10.30619 -10.30309 -10.30242
 Alpha  occ. eigenvalues --  -10.30222 -10.30090 -10.30049 -10.30043 -10.29863
 Alpha  occ. eigenvalues --  -10.29849 -10.29719 -10.29655 -10.29607 -10.29266
 Alpha  occ. eigenvalues --  -10.29108  -3.21587  -3.20838  -1.95159  -1.94726
 Alpha  occ. eigenvalues --   -1.94549  -1.94427  -1.93962  -1.93828  -1.19024
 Alpha  occ. eigenvalues --   -1.17119  -1.12771  -1.12123  -1.11743  -1.10777
 Alpha  occ. eigenvalues --   -1.09258  -1.09194  -1.07223  -1.05892  -1.05883
 Alpha  occ. eigenvalues --   -1.05384  -1.05169  -1.04559  -1.04530  -1.03965
 Alpha  occ. eigenvalues --   -0.94598  -0.93440  -0.91662  -0.91328  -0.90510
 Alpha  occ. eigenvalues --   -0.90273  -0.90061  -0.89883  -0.89736  -0.89261
 Alpha  occ. eigenvalues --   -0.88976  -0.88839  -0.88315  -0.87450  -0.86891
 Alpha  occ. eigenvalues --   -0.86521  -0.85833  -0.84965  -0.84814  -0.84456
 Alpha  occ. eigenvalues --   -0.83604  -0.83240  -0.82958  -0.82520  -0.82278
 Alpha  occ. eigenvalues --   -0.81616  -0.80983  -0.80389  -0.79614  -0.78938
 Alpha  occ. eigenvalues --   -0.78925  -0.78600  -0.78292  -0.77860  -0.77851
 Alpha  occ. eigenvalues --   -0.77071  -0.74793  -0.74449  -0.74288  -0.73297
 Alpha  occ. eigenvalues --   -0.71554  -0.71400  -0.71059  -0.70573  -0.70257
 Alpha  occ. eigenvalues --   -0.69428  -0.69006  -0.68996  -0.68501  -0.67737
 Alpha  occ. eigenvalues --   -0.67489  -0.67066  -0.66678  -0.66309  -0.66163
 Alpha  occ. eigenvalues --   -0.65915  -0.64681  -0.64246  -0.62742  -0.62409
 Alpha  occ. eigenvalues --   -0.61561  -0.61121  -0.61098  -0.60632  -0.60441
 Alpha  occ. eigenvalues --   -0.60227  -0.59825  -0.59677  -0.59353  -0.59029
 Alpha  occ. eigenvalues --   -0.58455  -0.58050  -0.57922  -0.57504  -0.57205
 Alpha  occ. eigenvalues --   -0.57160  -0.56848  -0.56732  -0.56363  -0.55944
 Alpha  occ. eigenvalues --   -0.55620  -0.55236  -0.55019  -0.54803  -0.54714
 Alpha  occ. eigenvalues --   -0.54530  -0.54423  -0.54266  -0.54068  -0.54040
 Alpha  occ. eigenvalues --   -0.53704  -0.53508  -0.53241  -0.53202  -0.53197
 Alpha  occ. eigenvalues --   -0.52914  -0.52658  -0.52554  -0.52384  -0.52315
 Alpha  occ. eigenvalues --   -0.51878  -0.51791  -0.51715  -0.51651  -0.51609
 Alpha  occ. eigenvalues --   -0.51412  -0.51307  -0.51061  -0.50923  -0.50653
 Alpha  occ. eigenvalues --   -0.50624  -0.50334  -0.50247  -0.50112  -0.49937
 Alpha  occ. eigenvalues --   -0.49847  -0.49845  -0.49435  -0.49363  -0.49316
 Alpha  occ. eigenvalues --   -0.49027  -0.48881  -0.48677  -0.48623  -0.48382
 Alpha  occ. eigenvalues --   -0.48372  -0.48304  -0.48031  -0.47827  -0.47779
 Alpha  occ. eigenvalues --   -0.47483  -0.47384  -0.47219  -0.47062  -0.47038
 Alpha  occ. eigenvalues --   -0.46803  -0.46793  -0.46741  -0.46631  -0.46580
 Alpha  occ. eigenvalues --   -0.46243  -0.46029  -0.45929  -0.45690  -0.45624
 Alpha  occ. eigenvalues --   -0.45516  -0.45316  -0.45202  -0.45173  -0.44913
 Alpha  occ. eigenvalues --   -0.44663  -0.44607  -0.44439  -0.44229  -0.44113
 Alpha  occ. eigenvalues --   -0.44089  -0.43913  -0.43842  -0.43745  -0.43399
 Alpha  occ. eigenvalues --   -0.43305  -0.43156  -0.42604  -0.42564  -0.42515
 Alpha  occ. eigenvalues --   -0.42283  -0.42038  -0.41980  -0.41216  -0.41200
 Alpha  occ. eigenvalues --   -0.40618  -0.40398  -0.40135  -0.40065  -0.39575
 Alpha  occ. eigenvalues --   -0.39345  -0.39235  -0.39070  -0.38769  -0.38420
 Alpha  occ. eigenvalues --   -0.37798  -0.37407  -0.37312  -0.36928  -0.36536
 Alpha  occ. eigenvalues --   -0.36290  -0.35734  -0.35150  -0.33758  -0.33664
 Alpha  occ. eigenvalues --   -0.33291  -0.32958  -0.32873  -0.32499  -0.32378
 Alpha  occ. eigenvalues --   -0.32332  -0.31995  -0.31402  -0.26185  -0.25717
 Alpha  occ. eigenvalues --   -0.23186  -0.23010
 Alpha virt. eigenvalues --   -0.07243  -0.07172  -0.00478   0.00175   0.02272
 Alpha virt. eigenvalues --    0.02560   0.04248   0.04402   0.04707   0.06053
 Alpha virt. eigenvalues --    0.06670   0.06894   0.07288   0.07825   0.08004

 Mulliken charges:
               1
     1  Mg   0.956432
     2  C   -0.040684
     3  C   -0.110017
     4  C   -0.099618
     5  C   -0.098469
     6  N   -0.351231
     7  C    0.005121
     8  C   -0.079162
     9  C   -0.049957
    10  C    0.025085
    11  C    0.014834
    12  C   -0.014140
    13  C   -0.130172
    14  H    0.037841
    15  N   -0.438507
    16  C    0.180642
    17  C   -0.147634
    18  C   -0.106940
    19  C    0.206884
    20  C    0.079994
    21  C    0.051201
    22  O   -0.236083
    23  C   -0.010362
    24  N   -0.368917
    25  C    0.022546
    26  C   -0.081729
    27  C   -0.120622
    28  C    0.042940
    29  C    0.052802
    30  C   -0.004519
    31  C   -0.029130
    32  N   -0.430943
    33  C    0.160518
    34  C   -0.200379
    35  C   -0.051399
    36  C    0.127414
    37  C    0.085838
    38  C    0.113314
    39  O   -0.186267
    40  C   -0.041013
    41  C    0.283525
    42  O   -0.239812
    43  O   -0.406680
    44  C    0.140358
    45  H   -0.004938
    46  H   -0.020308
    47  H   -0.017516
    48  H    0.039457
    49  H    0.033192
    50  H    0.033663
    51  H    0.048120
    52  H    0.043912
    53  H    0.053541
    54  H    0.034537
    55  H    0.068003
    56  H    0.053159
    57  H    0.060355
    58  H    0.036745
    59  H    0.065282
    60  H    0.071119
    61  H    0.064913
    62  H    0.051554
    63  H    0.031618
    64  H    0.032710
    65  H    0.043015
    66  H    0.037499
    67  H    0.047829
    68  H    0.039453
    69  H    0.030636
    70  H    0.027238
    71  H    0.038811
    72  H    0.043620
    73  H    0.019252
    74  H    0.067102
    75  H    0.074477
    76  H    0.068741
    77  H    0.037583
    78  H    0.075706
    79  H    0.057019
    80  Mg   0.990569
    81  C   -0.017293
    82  C   -0.078284
    83  C   -0.086568
    84  C   -0.079948
    85  N   -0.298159
    86  C   -0.019973
    87  C   -0.053040
    88  C   -0.107285
    89  C    0.010995
    90  C    0.015481
    91  C    0.042882
    92  C   -0.138901
    93  H   -0.009769
    94  N   -0.512278
    95  C    0.177204
    96  C   -0.130047
    97  C   -0.071074
    98  C    0.182294
    99  C    0.070106
   100  C    0.029622
   101  O   -0.236833
   102  C   -0.016363
   103  N   -0.420690
   104  C    0.093887
   105  C   -0.078826
   106  C   -0.074185
   107  C    0.101985
   108  C    0.012687
   109  C   -0.031724
   110  C   -0.079632
   111  N   -0.424342
   112  C    0.112327
   113  C   -0.186438
   114  C   -0.110964
   115  C    0.145462
   116  C    0.092637
   117  C    0.193600
   118  O   -0.247941
   119  C   -0.086692
   120  C    0.237231
   121  O   -0.214903
   122  O   -0.372207
   123  C    0.133786
   124  H   -0.004005
   125  H    0.020799
   126  H   -0.003501
   127  H    0.041541
   128  H    0.043322
   129  H    0.048385
   130  H    0.035397
   131  H    0.041416
   132  H    0.049559
   133  H    0.046094
   134  H    0.054509
   135  H    0.060119
   136  H    0.047464
   137  H    0.063064
   138  H    0.044776
   139  H    0.052862
   140  H    0.053458
   141  H    0.038447
   142  H    0.046134
   143  H    0.048368
   144  H    0.040127
   145  H    0.042144
   146  H    0.029048
   147  H    0.043033
   148  H    0.034558
   149  H    0.027477
   150  H    0.051913
   151  H    0.040783
   152  H    0.063793
   153  H    0.026312
   154  H    0.068636
   155  H    0.066959
   156  H    0.050555
   157  H    0.051712
   158  H    0.076341
 Sum of Mulliken charges =  -0.00000

 Dipole moment (field-independent basis, Debye):
    X=             -7.4361    Y=              5.8646    Z=              1.7766  Tot=              9.6357
 Quadrupole moment (field-independent basis, Debye-Ang):
   XX=           -435.0553   YY=           -512.9784   ZZ=           -559.5230
   XY=              3.2777   XZ=            -31.6464   YZ=            -25.6037

 Normal termination of Gaussian 16 at Sun Sep 19 17:15:56 2021.
