 Gaussian 16, Revision A.03,
 Gaussian 16:  ES64L-G16RevA.03 25-Dec-2016

 --------------------------------
 #p wB97XD/Def2SVP td=(nstates=5)
 --------------------------------

 --------------------------------
 TDDFT excited states in gaussian
 --------------------------------
 Symbolic Z-matrix:
 Charge =  0 Multiplicity = 1

                         Standard orientation:
 ---------------------------------------------------------------------
 Center     Atomic      Atomic             Coordinates (Angstroms)
 Number     Number       Type             X           Y           Z
 ---------------------------------------------------------------------
      1         12           0       20.396862   -0.875668   -0.091998
      2          6           0       21.227132    2.463148   -0.115763
      3          6           0       17.180835    0.036055    0.949403
      4          6           0       19.525250   -4.133717    0.048697
      5          6           0       23.623925   -1.705216   -0.736335
      6          7           0       19.420315    1.059428    0.619137
      7          6           0       19.921596    2.319991    0.271345
      8          6           0       18.844876    3.418712    0.369823
      9          6           0       17.602508    2.567495    0.824359
     10          6           0       18.029878    1.116694    0.765040
     11          6           0       17.079826    2.960506    2.200328
     12          6           0       18.527789    4.307475   -0.884616
     13          6           0       18.918510    5.881293   -0.794515
     14          1           0       17.684591    6.770584   -0.976446
     15          7           0       18.680399   -1.904962    0.510701
     16          6           0       17.423714   -1.337842    0.777274
     17          6           0       16.375869   -2.362627    0.830358
     18          6           0       17.049948   -3.687153    0.641427
     19          6           0       18.482189   -3.304521    0.317822
     20          6           0       14.919099   -2.043944    1.084964
     21          6           0       16.532669   -5.047284    0.680907
     22          8           0       17.314239   -6.005481    0.589902
     23          6           0       15.064878   -5.369730    0.899843
     24          7           0       21.441664   -2.582059   -0.228758
     25          6           0       20.864470   -3.864578   -0.275490
     26          6           0       21.856902   -5.030554   -0.673773
     27          6           0       23.199220   -4.158195   -0.887549
     28          6           0       22.712862   -2.716761   -0.615205
     29          6           0       22.011748   -6.184358    0.435282
     30          6           0       23.793272   -4.350772   -2.325214
     31          6           0       25.282317   -4.395578   -2.469087
     32          7           0       22.131146    0.196133   -0.270458
     33          6           0       23.400590   -0.289804   -0.596508
     34          6           0       24.301208    0.779028   -0.863906
     35          6           0       23.430191    1.927211   -0.774472
     36          6           0       22.173445    1.486699   -0.340533
     37          6           0       25.714827    0.779787   -1.270961
     38          6           0       23.422351    3.356475   -0.795382
     39          8           0       24.251326    4.231851   -1.067627
     40          6           0       21.992769    3.761480   -0.212935
     41          6           0       22.187880    4.492636    1.067011
     42          8           0       22.096356    4.088005    2.158800
     43          8           0       22.393334    5.847967    0.819815
     44          6           0       22.023208    6.732134    1.905354
     45          1           0       16.157307    0.333188    1.187349
     46          1           0       19.356537   -5.211077   -0.007481
     47          1           0       24.624269   -1.962627   -1.090495
     48          1           0       19.107690    4.088499    1.187904
     49          1           0       16.735815    2.746230    0.187359
     50          1           0       17.236399    2.127059    2.884608
     51          1           0       16.015119    3.101270    2.018044
     52          1           0       17.459317    3.899610    2.602476
     53          1           0       17.458836    4.230628   -1.085017
     54          1           0       19.070266    3.958866   -1.763529
     55          1           0       19.549980    6.008166   -1.674039
     56          1           0       19.412705    6.097026    0.152499
     57          1           0       14.838460   -1.783425    2.141023
     58          1           0       14.338549   -2.941915    0.879179
     59          1           0       14.570846   -1.153728    0.560749
     60          1           0       15.040287   -6.416756    1.202587
     61          1           0       14.438777   -5.188968    0.025476
     62          1           0       14.578870   -4.924228    1.767618
     63          1           0       21.589612   -5.423304   -1.654259
     64          1           0       24.031842   -4.429199   -0.237996
     65          1           0       23.057770   -6.489776    0.468357
     66          1           0       21.522815   -7.134859    0.225250
     67          1           0       21.685503   -5.869510    1.426711
     68          1           0       23.417124   -3.637381   -3.058303
     69          1           0       23.537592   -5.318923   -2.755381
     70          1           0       25.530432   -3.486907   -3.017360
     71          1           0       25.752899   -5.125224   -3.128085
     72          1           0       25.748174   -4.387757   -1.483143
     73          1           0       25.918120   -0.148985   -1.804733
     74          1           0       26.259939    0.773027   -0.327159
     75          1           0       25.936677    1.730437   -1.756251
     76          1           0       21.476260    4.416734   -0.913888
     77          1           0       22.841838    6.626837    2.616480
     78          1           0       21.105060    6.316579    2.320280
     79          1           0       21.954460    7.768502    1.573488
     80         12           0      -21.168056    0.190118    0.189942
     81          6           0      -17.949105    1.089738   -0.770500
     82          6           0      -21.954681   -0.157805   -3.169202
     83          6           0      -24.067634   -1.198778    0.957161
     84          6           0      -20.126318    0.085983    3.488801
     85          7           0      -20.050529    0.275765   -1.729458
     86          6           0      -18.783495    0.799063   -1.886546
     87          6           0      -18.415487    1.011755   -3.325169
     88          6           0      -19.842228    0.965145   -4.030529
     89          6           0      -20.679257    0.288339   -2.953230
     90          6           0      -20.474910    2.246366   -4.755291
     91          6           0      -17.312678    0.010253   -3.905527
     92          6           0      -17.277114   -1.438444   -3.334165
     93          1           0      -17.048626   -2.510111   -4.372878
     94          7           0      -22.754291   -0.688086   -0.943257
     95          6           0      -22.890225   -0.714590   -2.336828
     96          6           0      -24.082510   -1.410044   -2.737378
     97          6           0      -24.729740   -1.757152   -1.527547
     98          6           0      -23.865573   -1.253891   -0.418540
     99          6           0      -24.531867   -1.391060   -4.199278
    100          6           0      -26.092428   -2.486548   -1.513661
    101          8           0      -26.632999   -2.885604   -2.550146
    102          6           0      -26.733896   -2.626992   -0.197634
    103          7           0      -21.878562   -0.556342    1.981983
    104          6           0      -23.233827   -0.828445    2.063817
    105          6           0      -23.722126   -1.026160    3.515775
    106          6           0      -22.334279   -0.826141    4.252021
    107          6           0      -21.379523   -0.462972    3.203423
    108          6           0      -24.803928   -0.144143    4.054467
    109          6           0      -21.821897   -2.159371    4.999277
    110          6           0      -21.341616   -1.849490    6.393116
    111          7           0      -19.448046    0.702658    1.248777
    112          6           0      -19.173304    0.604129    2.600187
    113          6           0      -17.782814    1.039261    2.864784
    114          6           0      -17.255892    1.247387    1.542725
    115          6           0      -18.301272    1.023479    0.639206
    116          6           0      -16.981890    0.985268    4.101900
    117          6           0      -16.066925    1.544354    0.715723
    118          8           0      -14.918761    1.711664    1.056477
    119          6           0      -16.476396    1.494305   -0.791481
    120          6           0      -16.154357    2.762003   -1.447791
    121          8           0      -15.384774    2.998389   -2.379391
    122          8           0      -16.681525    3.793469   -0.627188
    123          6           0      -16.511868    5.167159   -1.147284
    124          1           0      -22.232129   -0.009800   -4.215434
    125          1           0      -25.056992   -1.461027    1.337440
    126          1           0      -19.923279    0.091850    4.561184
    127          1           0      -17.958428    1.992492   -3.456430
    128          1           0      -19.650530    0.223791   -4.806661
    129          1           0      -19.830134    3.122793   -4.817940
    130          1           0      -21.357552    2.643429   -4.254078
    131          1           0      -20.615997    2.025465   -5.813665
    132          1           0      -16.321618    0.459696   -3.852414
    133          1           0      -17.492980   -0.043735   -4.979129
    134          1           0      -18.189414   -1.655524   -2.777731
    135          1           0      -16.455064   -1.534707   -2.625427
    136          1           0      -25.082304   -2.282295   -4.502294
    137          1           0      -23.652705   -1.406986   -4.842890
    138          1           0      -25.178148   -0.518529   -4.297616
    139          1           0      -27.065399   -1.642763    0.131931
    140          1           0      -26.038779   -3.090429    0.503169
    141          1           0      -27.596553   -3.269553   -0.373580
    142          1           0      -23.929975   -2.088454    3.646071
    143          1           0      -22.501908    0.090285    4.817818
    144          1           0      -24.824397   -0.324415    5.129388
    145          1           0      -25.749708   -0.536945    3.681178
    146          1           0      -24.630095    0.893407    3.766753
    147          1           0      -21.047130   -2.587687    4.363498
    148          1           0      -22.512313   -3.002839    5.039152
    149          1           0      -20.260293   -1.983579    6.410023
    150          1           0      -21.626267   -2.619310    7.111139
    151          1           0      -21.521101   -0.798863    6.620387
    152          1           0      -17.496932    0.605882    4.985704
    153          1           0      -16.719600    2.017603    4.330776
    154          1           0      -16.260787    0.214069    3.831792
    155          1           0      -15.891207    0.672952   -1.204379
    156          1           0      -17.501408    5.593781   -0.979299
    157          1           0      -16.237630    5.345421   -2.187090
    158          1           0      -15.901409    5.665868   -0.394241
 ---------------------------------------------------------------------

 SCF Done:  E(RwB97XD) =  -4070.59678162     A.U. after   20 cycles

 Excitation energies and oscillator strengths:

 Excited State   1:      Singlet-A      1.6224 eV  764.20 nm  f=0.4188  <S**2>=0.000
     309 -> 316        0.16231
     311 -> 313        0.68603
     309 <- 316        0.10566
 This state for optimization and/or second-order correction.
 Total Energy, E(TD-HF/TD-DFT) =  -4070.53715953
 Copying the excited state density for this state as the 1-particle RhoCI density.

 Excited State   2:      Singlet-A      1.6615 eV  746.20 nm  f=0.3618  <S**2>=0.000
     310 -> 315       -0.18774
     312 -> 314        0.68141
     310 <- 315       -0.11476

 Excited State   3:      Singlet-A      2.1351 eV  580.69 nm  f=0.1229  <S**2>=0.000
     309 -> 313        0.64276
     311 -> 316       -0.25996

 Excited State   4:      Singlet-A      2.1479 eV  577.23 nm  f=0.0863  <S**2>=0.000
     310 -> 314        0.62839
     312 -> 315        0.30685

 Excited State   5:      Singlet-A      3.2506 eV  381.41 nm  f=0.0040  <S**2>=0.000
     305 -> 313        0.47451
     307 -> 313       -0.38353
     308 -> 313       -0.30216
     311 -> 316        0.12222

 The electronic state is 1-A.
 Alpha  occ. eigenvalues --  -46.95489 -46.94281 -19.29625 -19.27350 -19.25536
 Alpha  occ. eigenvalues --  -19.24416 -19.24098 -19.23920 -19.23917 -19.22937
 Alpha  occ. eigenvalues --  -14.47161 -14.46888 -14.46829 -14.46585 -14.44922
 Alpha  occ. eigenvalues --  -14.44300 -14.43813 -14.43115 -10.43647 -10.41866
 Alpha  occ. eigenvalues --  -10.39316 -10.39188 -10.39114 -10.38159 -10.35901
 Alpha  occ. eigenvalues --  -10.35729 -10.35329 -10.35253 -10.35145 -10.35133
 Alpha  occ. eigenvalues --  -10.35069 -10.34773 -10.34720 -10.34712 -10.34709
 Alpha  occ. eigenvalues --  -10.34311 -10.34195 -10.34179 -10.34124 -10.33490
 Alpha  occ. eigenvalues --  -10.33437 -10.33298 -10.33219 -10.32987 -10.32838
 Alpha  occ. eigenvalues --  -10.32721 -10.32658 -10.32612 -10.32425 -10.32420
 Alpha  occ. eigenvalues --  -10.32357 -10.32320 -10.32283 -10.32282 -10.32151
 Alpha  occ. eigenvalues --  -10.31822 -10.31779 -10.31759 -10.31622 -10.31587
 Alpha  occ. eigenvalues --  -10.31465 -10.31398 -10.31346 -10.31246 -10.31147
 Alpha  occ. eigenvalues --  -10.31130 -10.31054 -10.30914 -10.30863 -10.30782
 Alpha  occ. eigenvalues --  -10.30562 -10.30474 -10.30341 -10.30332 -10.30119
 Alpha  occ. eigenvalues --  -10.30109 -10.30082 -10.29944 -10.29935 -10.29850
 Alpha  occ. eigenvalues --  -10.29779 -10.29713 -10.29604 -10.29486 -10.29118
 Alpha  occ. eigenvalues --  -10.28454  -3.21459  -3.20449  -1.95031  -1.94597
 Alpha  occ. eigenvalues --   -1.94420  -1.94013  -1.93587  -1.93442  -1.18853
 Alpha  occ. eigenvalues --   -1.17018  -1.12654  -1.11794  -1.11631  -1.10273
 Alpha  occ. eigenvalues --   -1.09875  -1.09157  -1.07101  -1.06596  -1.05765
 Alpha  occ. eigenvalues --   -1.05421  -1.05259  -1.04433  -1.04039  -1.02680
 Alpha  occ. eigenvalues --   -0.94510  -0.94475  -0.91546  -0.91207  -0.91084
 Alpha  occ. eigenvalues --   -0.90471  -0.90361  -0.89926  -0.89603  -0.89250
 Alpha  occ. eigenvalues --   -0.89106  -0.88856  -0.88632  -0.88197  -0.86770
 Alpha  occ. eigenvalues --   -0.86403  -0.86121  -0.85330  -0.84700  -0.84317
 Alpha  occ. eigenvalues --   -0.84312  -0.83807  -0.82838  -0.82766  -0.82158
 Alpha  occ. eigenvalues --   -0.82148  -0.80742  -0.80276  -0.79497  -0.79299
 Alpha  occ. eigenvalues --   -0.78803  -0.78573  -0.78185  -0.77744  -0.77183
 Alpha  occ. eigenvalues --   -0.77128  -0.75032  -0.74672  -0.74165  -0.73649
 Alpha  occ. eigenvalues --   -0.71400  -0.71321  -0.71280  -0.70574  -0.70124
 Alpha  occ. eigenvalues --   -0.69862  -0.69519  -0.68865  -0.68383  -0.67569
 Alpha  occ. eigenvalues --   -0.67215  -0.66977  -0.66941  -0.66556  -0.66031
 Alpha  occ. eigenvalues --   -0.65869  -0.64573  -0.62811  -0.62292  -0.62190
 Alpha  occ. eigenvalues --   -0.61441  -0.61316  -0.60978  -0.60974  -0.60403
 Alpha  occ. eigenvalues --   -0.60316  -0.60222  -0.59625  -0.59553  -0.59239
 Alpha  occ. eigenvalues --   -0.58484  -0.58336  -0.57807  -0.57467  -0.57385
 Alpha  occ. eigenvalues --   -0.57219  -0.57088  -0.56590  -0.55839  -0.55825
 Alpha  occ. eigenvalues --   -0.55544  -0.55218  -0.54902  -0.54899  -0.54689
 Alpha  occ. eigenvalues --   -0.54601  -0.54565  -0.54219  -0.54151  -0.54054
 Alpha  occ. eigenvalues --   -0.53954  -0.53583  -0.53484  -0.53241  -0.53086
 Alpha  occ. eigenvalues --   -0.53063  -0.52788  -0.52640  -0.52467  -0.52412
 Alpha  occ. eigenvalues --   -0.52270  -0.52099  -0.51929  -0.51656  -0.51592
 Alpha  occ. eigenvalues --   -0.51545  -0.51536  -0.51295  -0.50900  -0.50799
 Alpha  occ. eigenvalues --   -0.50542  -0.50536  -0.50432  -0.50226  -0.50138
 Alpha  occ. eigenvalues --   -0.49972  -0.49909  -0.49722  -0.49244  -0.49197
 Alpha  occ. eigenvalues --   -0.48923  -0.48913  -0.48737  -0.48503  -0.48368
 Alpha  occ. eigenvalues --   -0.48254  -0.48184  -0.48031  -0.47884  -0.47700
 Alpha  occ. eigenvalues --   -0.47359  -0.47302  -0.47181  -0.47098  -0.46947
 Alpha  occ. eigenvalues --   -0.46899  -0.46858  -0.46673  -0.46615  -0.46592
 Alpha  occ. eigenvalues --   -0.46051  -0.45902  -0.45587  -0.45445  -0.45398
 Alpha  occ. eigenvalues --   -0.45254  -0.45207  -0.45086  -0.44969  -0.44829
 Alpha  occ. eigenvalues --   -0.44788  -0.44512  -0.44490  -0.44104  -0.43997
 Alpha  occ. eigenvalues --   -0.43946  -0.43714  -0.43620  -0.43592  -0.43284
 Alpha  occ. eigenvalues --   -0.43164  -0.43042  -0.42881  -0.42557  -0.42414
 Alpha  occ. eigenvalues --   -0.42024  -0.41917  -0.41796  -0.41055  -0.40983
 Alpha  occ. eigenvalues --   -0.40590  -0.40475  -0.40002  -0.39761  -0.39583
 Alpha  occ. eigenvalues --   -0.39441  -0.39214  -0.38945  -0.38591  -0.38000
 Alpha  occ. eigenvalues --   -0.37702  -0.37188  -0.36843  -0.36816  -0.36409
 Alpha  occ. eigenvalues --   -0.36026  -0.35612  -0.35367  -0.33641  -0.33540
 Alpha  occ. eigenvalues --   -0.33478  -0.33178  -0.32841  -0.32210  -0.32173
 Alpha  occ. eigenvalues --   -0.31873  -0.31808  -0.31347  -0.26281  -0.26059
 Alpha  occ. eigenvalues --   -0.23245  -0.23062
 Alpha virt. eigenvalues --   -0.07612  -0.07049  -0.00355  -0.00205   0.01820
 Alpha virt. eigenvalues --    0.02681   0.04336   0.04520   0.04818   0.05277
 Alpha virt. eigenvalues --    0.06164   0.07421   0.07577   0.07938   0.08593

 Mulliken charges:
               1
     1  Mg   0.967408
     2  C    0.011823
     3  C   -0.103310
     4  C   -0.069827
     5  C   -0.098454
     6  N   -0.364256
     7  C   -0.034130
     8  C   -0.002687
     9  C   -0.138107
    10  C    0.093094
    11  C    0.019345
    12  C   -0.009256
    13  C   -0.148458
    14  H    0.036444
    15  N   -0.481816
    16  C    0.200819
    17  C   -0.180027
    18  C   -0.027804
    19  C    0.193815
    20  C    0.079761
    21  C    0.021611
    22  O   -0.252869
    23  C   -0.034191
    24  N   -0.410925
    25  C    0.038748
    26  C   -0.045296
    27  C   -0.088406
    28  C    0.134156
    29  C   -0.000905
    30  C   -0.040863
    31  C   -0.058042
    32  N   -0.418797
    33  C    0.119493
    34  C   -0.179191
    35  C   -0.042533
    36  C    0.138688
    37  C    0.103198
    38  C    0.092981
    39  O   -0.217737
    40  C   -0.114461
    41  C    0.257107
    42  O   -0.187479
    43  O   -0.389629
    44  C    0.148324
    45  H   -0.010742
    46  H    0.025965
    47  H   -0.021935
    48  H    0.032269
    49  H    0.032547
    50  H    0.050112
    51  H    0.027280
    52  H    0.046194
    53  H    0.042916
    54  H    0.040654
    55  H    0.074213
    56  H    0.060363
    57  H    0.058558
    58  H    0.036881
    59  H    0.054182
    60  H    0.050778
    61  H    0.073313
    62  H    0.053573
    63  H    0.052019
    64  H    0.039577
    65  H    0.033940
    66  H    0.046060
    67  H    0.057347
    68  H    0.033691
    69  H    0.029677
    70  H    0.026185
    71  H    0.038793
    72  H    0.035089
    73  H    0.041461
    74  H    0.054334
    75  H    0.067110
    76  H    0.052249
    77  H    0.050803
    78  H    0.037036
    79  H    0.060144
    80  Mg   0.956419
    81  C   -0.040795
    82  C   -0.109805
    83  C   -0.099636
    84  C   -0.098493
    85  N   -0.351143
    86  C    0.005548
    87  C   -0.079388
    88  C   -0.050029
    89  C    0.025550
    90  C    0.014885
    91  C   -0.014052
    92  C   -0.131209
    93  H    0.040609
    94  N   -0.438233
    95  C    0.180585
    96  C   -0.147239
    97  C   -0.106945
    98  C    0.206956
    99  C    0.079899
   100  C    0.051364
   101  O   -0.236266
   102  C   -0.010494
   103  N   -0.369076
   104  C    0.022596
   105  C   -0.081725
   106  C   -0.120586
   107  C    0.043147
   108  C    0.052815
   109  C   -0.004605
   110  C   -0.029154
   111  N   -0.430969
   112  C    0.160434
   113  C   -0.200438
   114  C   -0.051377
   115  C    0.127665
   116  C    0.085774
   117  C    0.113330
   118  O   -0.186506
   119  C   -0.040946
   120  C    0.283567
   121  O   -0.239946
   122  O   -0.406681
   123  C    0.140520
   124  H   -0.005304
   125  H   -0.020474
   126  H   -0.017687
   127  H    0.039097
   128  H    0.033401
   129  H    0.033379
   130  H    0.047852
   131  H    0.043652
   132  H    0.053284
   133  H    0.034491
   134  H    0.067904
   135  H    0.053268
   136  H    0.060297
   137  H    0.036769
   138  H    0.064898
   139  H    0.070873
   140  H    0.065211
   141  H    0.051399
   142  H    0.031733
   143  H    0.032458
   144  H    0.042872
   145  H    0.037371
   146  H    0.047654
   147  H    0.039917
   148  H    0.030729
   149  H    0.027333
   150  H    0.038745
   151  H    0.043354
   152  H    0.019175
   153  H    0.066762
   154  H    0.074701
   155  H    0.069246
   156  H    0.037438
   157  H    0.075513
   158  H    0.056764
 Sum of Mulliken charges =  -0.00000

 Dipole moment (field-independent basis, Debye):
    X=             -9.5624    Y=             -0.6080    Z=              1.7213  Tot=              9.7351
 Quadrupole moment (field-independent basis, Debye-Ang):
   XX=           -557.6288   YY=           -511.2873   ZZ=           -486.8640
   XY=           -132.8429   XZ=           -116.0032   YZ=             -4.8577

 Normal termination of Gaussian 16 at Mon Sep 20 14:36:34 2021.
