 Gaussian 16, Revision A.03,
 Gaussian 16:  ES64L-G16RevA.03 25-Dec-2016

 --------------------------------
 #p wB97XD/Def2SVP td=(nstates=5)
 --------------------------------

 --------------------------------
 TDDFT excited states in gaussian
 --------------------------------
 Symbolic Z-matrix:
 Charge =  0 Multiplicity = 1

                         Standard orientation:
 ---------------------------------------------------------------------
 Center     Atomic      Atomic             Coordinates (Angstroms)
 Number     Number       Type             X           Y           Z
 ---------------------------------------------------------------------
      1         12           0       26.481987    0.558752   -0.324306
      2          6           0       25.516050   -2.712020    0.150357
      3          6           0       23.238868    1.513509    0.160373
      4          6           0       27.633639    3.553935    0.460097
      5          6           0       29.769487   -0.596177   -0.755546
      6          7           0       24.712977   -0.508962    0.567687
      7          6           0       24.492741   -1.842824    0.439937
      8          6           0       23.065467   -2.223137    0.701981
      9          6           0       22.353412   -0.899427    0.273244
     10          6           0       23.506286    0.093376    0.255427
     11          6           0       21.569909   -1.034096   -1.063916
     12          6           0       22.799719   -2.559779    2.254396
     13          6           0       21.730623   -3.715710    2.532516
     14          1           0       20.604611   -3.121688    3.342005
     15          7           0       25.531721    2.335895    0.039014
     16          6           0       24.224378    2.563326    0.293354
     17          6           0       23.996080    3.970128    0.598276
     18          6           0       25.265729    4.580824    0.655450
     19          6           0       26.215418    3.466012    0.381290
     20          6           0       22.570100    4.511988    0.861411
     21          6           0       25.473481    5.987753    1.142563
     22          8           0       24.519169    6.664849    1.423760
     23          6           0       26.849775    6.642996    1.366322
     24          7           0       28.442756    1.452355   -0.283932
     25          6           0       28.626936    2.645096    0.072805
     26          6           0       30.059370    3.003815    0.220303
     27          6           0       30.788662    1.663701   -0.187347
     28          6           0       29.639275    0.783296   -0.423015
     29          6           0       30.423159    4.287972   -0.599097
     30          6           0       31.748374    1.125078    0.972184
     31          6           0       32.857632    0.088757    0.571051
     32          7           0       27.482799   -1.244675   -0.397825
     33          6           0       28.799832   -1.553222   -0.686153
     34          6           0       28.968254   -2.973446   -0.822384
     35          6           0       27.654434   -3.489921   -0.544058
     36          6           0       26.846634   -2.424051   -0.197666
     37          6           0       30.215042   -3.720203   -1.171988
     38          6           0       26.890762   -4.688144   -0.483004
     39          8           0       27.133130   -5.890587   -0.648658
     40          6           0       25.528882   -4.257686    0.155752
     41          6           0       24.456492   -4.935981   -0.629791
     42          8           0       23.939232   -6.021407   -0.330619
     43          8           0       24.175527   -4.208435   -1.753199
     44          6           0       23.138808   -4.925483   -2.547504
     45          1           0       22.224382    1.918498    0.163747
     46          1           0       27.985378    4.536310    0.780348
     47          1           0       30.803656   -0.948974   -0.755090
     48          1           0       22.871236   -3.019262   -0.015630
     49          1           0       21.594776   -0.648581    1.014810
     50          1           0       20.506715   -0.890222   -0.873692
     51          1           0       21.678913   -2.067285   -1.395296
     52          1           0       22.015793   -0.339700   -1.775339
     53          1           0       22.572502   -1.711492    2.899883
     54          1           0       23.718707   -2.903045    2.728417
     55          1           0       22.262968   -4.418496    3.173628
     56          1           0       21.359207   -4.320545    1.705197
     57          1           0       22.426711    4.972467    1.838837
     58          1           0       21.779576    3.776685    0.707343
     59          1           0       22.365417    5.244670    0.081492
     60          1           0       27.425492    6.759274    0.448683
     61          1           0       27.459480    6.137430    2.115586
     62          1           0       26.624858    7.577986    1.880359
     63          1           0       30.163968    3.170698    1.292280
     64          1           0       31.332038    1.635054   -1.131512
     65          1           0       30.808246    5.017029    0.113508
     66          1           0       29.563081    4.683335   -1.139817
     67          1           0       31.306372    4.180110   -1.228509
     68          1           0       31.156314    0.659424    1.760332
     69          1           0       32.214352    2.015490    1.391698
     70          1           0       33.914080    0.306704    0.725212
     71          1           0       32.826028   -0.108625   -0.499590
     72          1           0       32.686326   -0.860592    1.078514
     73          1           0       31.066803   -3.124121   -1.498953
     74          1           0       29.817461   -4.361375   -1.957677
     75          1           0       30.339393   -4.307984   -0.262418
     76          1           0       25.434043   -4.498557    1.215105
     77          1           0       23.572323   -5.829967   -2.973015
     78          1           0       22.860171   -4.391823   -3.456194
     79          1           0       22.282504   -5.094014   -1.894147
     80         12           0      -26.395759   -0.286832    0.553129
     81          6           0      -24.665046    1.735306   -1.632622
     82          6           0      -26.874996   -2.599725   -2.128128
     83          6           0      -28.355233   -2.093158    2.466325
     84          6           0      -26.043884    2.080824    3.089649
     85          7           0      -25.793073   -0.343480   -1.602597
     86          6           0      -25.068801    0.568263   -2.258137
     87          6           0      -24.783057    0.043683   -3.703072
     88          6           0      -25.642798   -1.296389   -3.830748
     89          6           0      -26.207563   -1.413787   -2.401875
     90          6           0      -26.846771   -1.257564   -4.752204
     91          6           0      -23.294735   -0.109671   -4.050975
     92          6           0      -22.957578    0.581916   -5.361215
     93          1           0      -21.782219    0.107606   -6.228209
     94          7           0      -27.394026   -2.134980    0.221175
     95          6           0      -27.440355   -2.942077   -0.878824
     96          6           0      -28.162265   -4.112805   -0.648285
     97          6           0      -28.733848   -3.967235    0.663750
     98          6           0      -28.153529   -2.686457    1.197034
     99          6           0      -28.318068   -5.234011   -1.665387
    100          6           0      -29.739783   -4.858964    1.373162
    101          8           0      -30.236439   -4.457959    2.443618
    102          6           0      -30.228008   -6.115316    0.776034
    103          7           0      -27.038164   -0.030701    2.465649
    104          6           0      -27.823224   -0.957260    3.120593
    105          6           0      -28.212441   -0.561783    4.593381
    106          6           0      -27.204069    0.646503    4.807657
    107          6           0      -26.740985    0.940590    3.369051
    108          6           0      -29.691849   -0.163195    4.977968
    109          6           0      -26.077345    0.509749    5.929771
    110          6           0      -24.890916   -0.339996    5.558249
    111          7           0      -25.683987    1.564736    0.723597
    112          6           0      -25.585129    2.445511    1.783832
    113          6           0      -24.925068    3.635086    1.429983
    114          6           0      -24.525127    3.364763    0.116218
    115          6           0      -24.999536    2.084917   -0.294415
    116          6           0      -24.669656    4.709062    2.399668
    117          6           0      -23.902197    4.027034   -0.964433
    118          8           0      -23.506389    5.193664   -1.006075
    119          6           0      -23.920381    2.987394   -2.202898
    120          6           0      -24.601380    3.602255   -3.328689
    121          8           0      -25.792611    3.775200   -3.449746
    122          8           0      -23.718984    4.073213   -4.201267
    123          6           0      -24.186020    4.826896   -5.325389
    124          1           0      -27.059951   -3.274709   -2.965856
    125          1           0      -28.984712   -2.581198    3.212906
    126          1           0      -25.958890    2.795722    3.910775
    127          1           0      -25.266254    0.826468   -4.286899
    128          1           0      -24.967944   -2.026089   -4.279595
    129          1           0      -26.948432   -0.336491   -5.326913
    130          1           0      -27.766638   -1.324756   -4.171937
    131          1           0      -26.878895   -2.164703   -5.356423
    132          1           0      -22.935722   -1.138055   -4.095019
    133          1           0      -22.720661    0.332562   -3.237084
    134          1           0      -22.652985    1.593945   -5.092080
    135          1           0      -23.867714    0.546947   -5.959693
    136          1           0      -27.631525   -5.115853   -2.503780
    137          1           0      -29.299011   -5.147537   -2.133210
    138          1           0      -28.292855   -6.209614   -1.181372
    139          1           0      -31.181976   -6.408569    1.215718
    140          1           0      -29.511162   -6.891646    1.045301
    141          1           0      -30.346345   -6.002265   -0.301340
    142          1           0      -27.856356   -1.287885    5.324885
    143          1           0      -27.760801    1.490737    5.212459
    144          1           0      -30.300795   -0.246912    4.078679
    145          1           0      -29.732499    0.913665    5.146495
    146          1           0      -30.168320   -0.681822    5.810399
    147          1           0      -26.548530   -0.011485    6.762720
    148          1           0      -25.743894    1.460887    6.343042
    149          1           0      -24.031233    0.074257    6.083818
    150          1           0      -24.626279   -0.511901    4.515681
    151          1           0      -25.111044   -1.345410    5.917151
    152          1           0      -24.527109    4.445434    3.447351
    153          1           0      -25.305264    5.589896    2.317328
    154          1           0      -23.723374    5.098716    2.025267
    155          1           0      -22.885751    2.775643   -2.472025
    156          1           0      -24.410905    4.194032   -6.184644
    157          1           0      -23.364778    5.473857   -5.633227
    158          1           0      -25.088298    5.375350   -5.054424
 ---------------------------------------------------------------------

 SCF Done:  E(RwB97XD) =  -4070.61326189     A.U. after   19 cycles

 Excitation energies and oscillator strengths:

 Excited State   1:      Singlet-A      1.6477 eV  752.49 nm  f=0.4015  <S**2>=0.000
     310 -> 316       -0.17806
     311 -> 313        0.68412
     310 <- 316       -0.11435
 This state for optimization and/or second-order correction.
 Total Energy, E(TD-HF/TD-DFT) =  -4070.55271144
 Copying the excited state density for this state as the 1-particle RhoCI density.

 Excited State   2:      Singlet-A      1.6578 eV  747.91 nm  f=0.3726  <S**2>=0.000
     309 -> 315        0.16758
     312 -> 314        0.68532
     309 <- 315        0.10876

 Excited State   3:      Singlet-A      2.1651 eV  572.64 nm  f=0.1567  <S**2>=0.000
     310 -> 313        0.65102
     311 -> 316        0.25709

 Excited State   4:      Singlet-A      2.1685 eV  571.75 nm  f=0.1034  <S**2>=0.000
     309 -> 314        0.63809
     312 -> 315       -0.28224

 Excited State   5:      Singlet-A      3.3545 eV  369.61 nm  f=0.0032  <S**2>=0.000
     305 -> 318       -0.10707
     307 -> 313        0.67497

 The electronic state is 1-A.
 Alpha  occ. eigenvalues --  -46.95571 -46.94036 -19.30740 -19.30014 -19.24605
 Alpha  occ. eigenvalues --  -19.23983 -19.23653 -19.23539 -19.23298 -19.22887
 Alpha  occ. eigenvalues --  -14.46899 -14.46789 -14.46683 -14.46504 -14.44969
 Alpha  occ. eigenvalues --  -14.44328 -14.43563 -14.43142 -10.42497 -10.42093
 Alpha  occ. eigenvalues --  -10.39794 -10.38847 -10.38528 -10.38022 -10.36455
 Alpha  occ. eigenvalues --  -10.35882 -10.35564 -10.35446 -10.35243 -10.35163
 Alpha  occ. eigenvalues --  -10.35161 -10.34928 -10.34808 -10.34694 -10.34170
 Alpha  occ. eigenvalues --  -10.34141 -10.33931 -10.33652 -10.33417 -10.33053
 Alpha  occ. eigenvalues --  -10.32981 -10.32735 -10.32615 -10.32486 -10.32443
 Alpha  occ. eigenvalues --  -10.32439 -10.32406 -10.32307 -10.32268 -10.32254
 Alpha  occ. eigenvalues --  -10.32177 -10.32116 -10.32020 -10.31858 -10.31854
 Alpha  occ. eigenvalues --  -10.31746 -10.31741 -10.31690 -10.31647 -10.31637
 Alpha  occ. eigenvalues --  -10.31623 -10.31512 -10.31391 -10.31389 -10.31303
 Alpha  occ. eigenvalues --  -10.31251 -10.31235 -10.30892 -10.30720 -10.30672
 Alpha  occ. eigenvalues --  -10.30659 -10.30600 -10.30594 -10.30524 -10.30297
 Alpha  occ. eigenvalues --  -10.30262 -10.30173 -10.30109 -10.30094 -10.30025
 Alpha  occ. eigenvalues --  -10.30016 -10.29624 -10.29425 -10.28767 -10.28668
 Alpha  occ. eigenvalues --  -10.28381  -3.21584  -3.20229  -1.95160  -1.94721
 Alpha  occ. eigenvalues --   -1.94544  -1.93824  -1.93375  -1.93206  -1.20096
 Alpha  occ. eigenvalues --   -1.18085  -1.14247  -1.11085  -1.10727  -1.10266
 Alpha  occ. eigenvalues --   -1.09959  -1.09059  -1.08603  -1.06691  -1.06607
 Alpha  occ. eigenvalues --   -1.05979  -1.05756  -1.05333  -1.04814  -1.04583
 Alpha  occ. eigenvalues --   -0.94425  -0.94047  -0.91610  -0.91279  -0.90648
 Alpha  occ. eigenvalues --   -0.90615  -0.90208  -0.90138  -0.89582  -0.89446
 Alpha  occ. eigenvalues --   -0.89246  -0.88939  -0.88730  -0.88527  -0.86522
 Alpha  occ. eigenvalues --   -0.86216  -0.85752  -0.85679  -0.84834  -0.84326
 Alpha  occ. eigenvalues --   -0.84181  -0.83748  -0.83147  -0.82831  -0.82567
 Alpha  occ. eigenvalues --   -0.82285  -0.80351  -0.80315  -0.79823  -0.79253
 Alpha  occ. eigenvalues --   -0.78833  -0.78721  -0.77883  -0.77874  -0.77448
 Alpha  occ. eigenvalues --   -0.77215  -0.75438  -0.74647  -0.74221  -0.73423
 Alpha  occ. eigenvalues --   -0.72387  -0.71559  -0.71332  -0.70830  -0.70140
 Alpha  occ. eigenvalues --   -0.69748  -0.69682  -0.69089  -0.68751  -0.67340
 Alpha  occ. eigenvalues --   -0.67308  -0.66919  -0.66865  -0.66570  -0.66465
 Alpha  occ. eigenvalues --   -0.66352  -0.64388  -0.64301  -0.62579  -0.62422
 Alpha  occ. eigenvalues --   -0.61987  -0.61572  -0.61189  -0.60994  -0.60774
 Alpha  occ. eigenvalues --   -0.60495  -0.60304  -0.59995  -0.59667  -0.58972
 Alpha  occ. eigenvalues --   -0.58588  -0.58504  -0.58111  -0.58096  -0.57650
 Alpha  occ. eigenvalues --   -0.57096  -0.56934  -0.56588  -0.56295  -0.56074
 Alpha  occ. eigenvalues --   -0.55551  -0.55453  -0.55131  -0.54933  -0.54701
 Alpha  occ. eigenvalues --   -0.54665  -0.54450  -0.54336  -0.54236  -0.54017
 Alpha  occ. eigenvalues --   -0.53943  -0.53672  -0.53614  -0.53282  -0.53121
 Alpha  occ. eigenvalues --   -0.53113  -0.52534  -0.52417  -0.52272  -0.52217
 Alpha  occ. eigenvalues --   -0.52173  -0.51929  -0.51850  -0.51663  -0.51604
 Alpha  occ. eigenvalues --   -0.51419  -0.51158  -0.51077  -0.51063  -0.50869
 Alpha  occ. eigenvalues --   -0.50843  -0.50605  -0.50327  -0.50243  -0.50064
 Alpha  occ. eigenvalues --   -0.49710  -0.49707  -0.49573  -0.49360  -0.49287
 Alpha  occ. eigenvalues --   -0.48888  -0.48810  -0.48743  -0.48453  -0.48310
 Alpha  occ. eigenvalues --   -0.48209  -0.48166  -0.47948  -0.47813  -0.47683
 Alpha  occ. eigenvalues --   -0.47440  -0.47348  -0.47331  -0.47085  -0.47056
 Alpha  occ. eigenvalues --   -0.46860  -0.46567  -0.46516  -0.46352  -0.46296
 Alpha  occ. eigenvalues --   -0.46251  -0.46136  -0.45941  -0.45839  -0.45561
 Alpha  occ. eigenvalues --   -0.45436  -0.45290  -0.45201  -0.45111  -0.44879
 Alpha  occ. eigenvalues --   -0.44610  -0.44523  -0.44486  -0.44084  -0.43922
 Alpha  occ. eigenvalues --   -0.43834  -0.43817  -0.43523  -0.43423  -0.43346
 Alpha  occ. eigenvalues --   -0.43333  -0.43113  -0.43011  -0.42907  -0.42665
 Alpha  occ. eigenvalues --   -0.42380  -0.41979  -0.41510  -0.41110  -0.40860
 Alpha  occ. eigenvalues --   -0.40580  -0.40228  -0.40103  -0.39660  -0.39618
 Alpha  occ. eigenvalues --   -0.39169  -0.38890  -0.38768  -0.38629  -0.38410
 Alpha  occ. eigenvalues --   -0.38333  -0.38113  -0.36975  -0.36228  -0.35807
 Alpha  occ. eigenvalues --   -0.35797  -0.35383  -0.35333  -0.33974  -0.33672
 Alpha  occ. eigenvalues --   -0.33589  -0.32793  -0.32718  -0.32553  -0.32221
 Alpha  occ. eigenvalues --   -0.32011  -0.31944  -0.31031  -0.26146  -0.26045
 Alpha  occ. eigenvalues --   -0.23288  -0.22986
 Alpha virt. eigenvalues --   -0.07464  -0.07116   0.00136   0.00498   0.02294
 Alpha virt. eigenvalues --    0.02535   0.04150   0.04582   0.05138   0.06216
 Alpha virt. eigenvalues --    0.06967   0.07924   0.08125   0.08247   0.08924

 Mulliken charges:
               1
     1  Mg   0.966881
     2  C    0.015865
     3  C   -0.089479
     4  C   -0.073328
     5  C   -0.081738
     6  N   -0.340701
     7  C   -0.050106
     8  C   -0.024437
     9  C   -0.146513
    10  C    0.111113
    11  C    0.045285
    12  C    0.022930
    13  C   -0.129965
    14  H    0.028884
    15  N   -0.460632
    16  C    0.119277
    17  C   -0.139397
    18  C   -0.060594
    19  C    0.168462
    20  C    0.086982
    21  C    0.018667
    22  O   -0.211062
    23  C   -0.019682
    24  N   -0.295223
    25  C    0.031376
    26  C   -0.087927
    27  C   -0.051447
    28  C    0.005310
    29  C    0.018795
    30  C   -0.018511
    31  C   -0.065358
    32  N   -0.451073
    33  C    0.151447
    34  C   -0.200741
    35  C   -0.007589
    36  C    0.105771
    37  C    0.098569
    38  C    0.085824
    39  O   -0.226235
    40  C   -0.061153
    41  C    0.241304
    42  O   -0.258084
    43  O   -0.370079
    44  C    0.138453
    45  H    0.002867
    46  H   -0.045503
    47  H   -0.027207
    48  H    0.026028
    49  H    0.042460
    50  H    0.041617
    51  H    0.029791
    52  H    0.040817
    53  H    0.040687
    54  H    0.032344
    55  H    0.057550
    56  H    0.062911
    57  H    0.069756
    58  H    0.019231
    59  H    0.052791
    60  H    0.067234
    61  H    0.060707
    62  H    0.051545
    63  H    0.046687
    64  H    0.041958
    65  H    0.030586
    66  H    0.057222
    67  H    0.038729
    68  H    0.041067
    69  H    0.036562
    70  H    0.040109
    71  H    0.033030
    72  H    0.044194
    73  H    0.043262
    74  H    0.064997
    75  H    0.064729
    76  H    0.078448
    77  H    0.064880
    78  H    0.047291
    79  H    0.060487
    80  Mg   0.992390
    81  C   -0.044737
    82  C   -0.105186
    83  C   -0.051611
    84  C   -0.104058
    85  N   -0.349918
    86  C   -0.028228
    87  C   -0.021214
    88  C   -0.162837
    89  C    0.116140
    90  C    0.006233
    91  C    0.037825
    92  C   -0.145889
    93  H    0.028841
    94  N   -0.425590
    95  C    0.160199
    96  C   -0.175182
    97  C   -0.074197
    98  C    0.171465
    99  C    0.066628
   100  C    0.038195
   101  O   -0.260161
   102  C    0.004516
   103  N   -0.396087
   104  C    0.027608
   105  C   -0.070143
   106  C   -0.076128
   107  C    0.087115
   108  C    0.029255
   109  C   -0.031217
   110  C   -0.058246
   111  N   -0.470206
   112  C    0.132158
   113  C   -0.134463
   114  C   -0.037938
   115  C    0.195147
   116  C    0.072428
   117  C    0.096113
   118  O   -0.219419
   119  C   -0.078119
   120  C    0.235426
   121  O   -0.251497
   122  O   -0.328048
   123  C    0.135831
   124  H   -0.002107
   125  H    0.021866
   126  H   -0.004694
   127  H    0.033196
   128  H    0.042977
   129  H    0.043816
   130  H    0.040405
   131  H    0.035194
   132  H    0.039571
   133  H    0.030058
   134  H    0.063193
   135  H    0.056136
   136  H    0.042422
   137  H    0.057038
   138  H    0.056341
   139  H    0.055893
   140  H    0.067052
   141  H    0.045008
   142  H    0.038418
   143  H    0.027407
   144  H    0.039883
   145  H    0.027329
   146  H    0.056785
   147  H    0.029191
   148  H    0.032955
   149  H    0.037802
   150  H    0.047634
   151  H    0.028764
   152  H    0.045988
   153  H    0.055576
   154  H    0.045384
   155  H    0.065544
   156  H    0.042553
   157  H    0.055534
   158  H    0.066695
 Sum of Mulliken charges =  -0.00000

 Dipole moment (field-independent basis, Debye):
    X=              2.4846    Y=              1.2719    Z=             -1.5756  Tot=              3.2052
 Quadrupole moment (field-independent basis, Debye-Ang):
   XX=           -398.8919   YY=           -572.9685   ZZ=           -469.7091
   XY=            277.1022   XZ=            -16.0801   YZ=             20.1055

 Normal termination of Gaussian 16 at Mon Sep 20 07:11:35 2021.
