 Gaussian 16, Revision A.03,
 Gaussian 16:  ES64L-G16RevA.03 25-Dec-2016

 --------------------------------
 #p wB97XD/Def2SVP td=(nstates=5)
 --------------------------------

 --------------------------------
 TDDFT excited states in gaussian
 --------------------------------
 Symbolic Z-matrix:
 Charge =  0 Multiplicity = 1

                         Standard orientation:
 ---------------------------------------------------------------------
 Center     Atomic      Atomic             Coordinates (Angstroms)
 Number     Number       Type             X           Y           Z
 ---------------------------------------------------------------------
      1         12           0       13.470147   -0.592352    0.029434
      2          6           0       11.416210    2.105236   -0.494152
      3          6           0       16.165671    1.525671   -0.045099
      4          6           0       15.570560   -3.320620    0.445336
      5          6           0       10.765395   -2.728657   -0.345906
      6          7           0       13.795039    1.604370   -0.292782
      7          6           0       12.755846    2.484845   -0.394102
      8          6           0       13.236842    3.852280   -0.474969
      9          6           0       14.751764    3.745928   -0.550604
     10          6           0       14.969106    2.187326   -0.315466
     11          6           0       15.481099    4.263942   -1.838109
     12          6           0       12.721971    4.719760    0.723746
     13          6           0       12.449399    6.237362    0.439919
     14          1           0       13.281346    6.906460   -0.671750
     15          7           0       15.582292   -0.814122    0.291418
     16          6           0       16.506786    0.214971    0.239497
     17          6           0       17.857799   -0.346535    0.441873
     18          6           0       17.698383   -1.791012    0.596365
     19          6           0       16.251044   -2.036836    0.472662
     20          6           0       19.141995    0.466562    0.436068
     21          6           0       18.763653   -2.803262    0.947591
     22          8           0       18.435137   -3.990245    1.119607
     23          6           0       20.209609   -2.499523    1.074125
     24          7           0       13.233730   -2.731363   -0.027588
     25          6           0       14.225638   -3.590292    0.224428
     26          6           0       13.688007   -5.026681    0.336064
     27          6           0       12.071860   -4.856986    0.336684
     28          6           0       12.016923   -3.315821    0.045890
     29          6           0       14.250221   -5.934089   -0.801256
     30          6           0       11.365041   -5.189877    1.679220
     31          6           0       10.473320   -6.440530    1.669995
     32          7           0       11.476528   -0.410945   -0.414242
     33          6           0       10.474925   -1.374420   -0.554019
     34          6           0        9.178726   -0.723089   -0.846216
     35          6           0        9.552324    0.641539   -0.840211
     36          6           0       10.943546    0.774463   -0.585507
     37          6           0        7.877749   -1.337656   -1.017306
     38          6           0        9.003202    2.011682   -0.905943
     39          8           0        7.875928    2.416548   -1.011192
     40          6           0       10.207508    3.003051   -0.725622
     41          6           0       10.213210    3.939018   -1.861273
     42          8           0       10.545275    3.549590   -2.992471
     43          8           0        9.970970    5.238225   -1.534859
     44          6           0       10.156224    6.264034   -2.556404
     45          1           0       17.002232    2.227003   -0.072830
     46          1           0       16.251625   -4.169249    0.539774
     47          1           0        9.927455   -3.428517   -0.328467
     48          1           0       12.862063    4.283341   -1.403956
     49          1           0       15.223803    4.163334    0.339570
     50          1           0       14.935907    4.722924   -2.663493
     51          1           0       16.047310    3.432691   -2.257547
     52          1           0       16.285691    4.968874   -1.627366
     53          1           0       13.384640    4.590579    1.579566
     54          1           0       11.851544    4.230941    1.160965
     55          1           0       12.587865    6.817968    1.352401
     56          1           0       11.447445    6.423577    0.054382
     57          1           0       18.972169    1.541999    0.397224
     58          1           0       19.745478    0.240559   -0.443491
     59          1           0       19.643462    0.379335    1.399760
     60          1           0       20.685336   -3.416458    1.420685
     61          1           0       20.424600   -1.680777    1.762055
     62          1           0       20.586551   -2.127465    0.121297
     63          1           0       13.931788   -5.376371    1.339336
     64          1           0       11.596239   -5.384745   -0.489895
     65          1           0       14.659381   -6.878290   -0.441604
     66          1           0       15.054548   -5.429978   -1.337702
     67          1           0       13.406732   -6.054158   -1.481533
     68          1           0       10.732958   -4.381616    2.045129
     69          1           0       12.079849   -5.331639    2.490105
     70          1           0       10.845308   -7.145395    0.926339
     71          1           0        9.469234   -6.133792    1.378736
     72          1           0       10.426227   -6.795405    2.698709
     73          1           0        7.056925   -0.633819   -0.881396
     74          1           0        7.707658   -2.180642   -0.347860
     75          1           0        7.762671   -1.574096   -2.075213
     76          1           0        9.945531    3.472164    0.223353
     77          1           0        9.453001    6.201750   -3.387333
     78          1           0       11.192603    6.298186   -2.892208
     79          1           0        9.954657    7.244641   -2.125546
     80         12           0      -13.176638   -0.753164   -0.270156
     81          6           0      -11.831070    2.192959    1.149264
     82          6           0      -15.400737    1.205516   -1.986557
     83          6           0      -14.833613   -3.505449   -1.074633
     84          6           0      -11.165541   -2.606617    1.914257
     85          7           0      -13.672179    1.447422   -0.273191
     86          6           0      -12.893046    2.448889    0.312262
     87          6           0      -13.291123    3.830525   -0.262941
     88          6           0      -14.458627    3.483741   -1.257482
     89          6           0      -14.529830    1.931670   -1.235334
     90          6           0      -15.750843    4.267887   -1.109832
     91          6           0      -12.168452    4.650462   -0.917588
     92          6           0      -12.005708    6.078701   -0.328748
     93          1           0      -12.096053    7.209092   -1.329761
     94          7           0      -14.844595   -1.080326   -1.459738
     95          6           0      -15.661483   -0.169048   -2.061973
     96          6           0      -16.584934   -0.895174   -2.900877
     97          6           0      -16.525670   -2.305179   -2.525352
     98          6           0      -15.376485   -2.303344   -1.633162
     99          6           0      -17.681327   -0.154924   -3.828499
    100          6           0      -17.486953   -3.402776   -2.687967
    101          8           0      -17.353656   -4.544729   -2.351177
    102          6           0      -18.811263   -3.035441   -3.350755
    103          7           0      -13.132997   -2.764651    0.519499
    104          6           0      -13.890155   -3.726654   -0.043048
    105          6           0      -13.426031   -5.113647    0.407687
    106          6           0      -12.061678   -4.822197    1.052921
    107          6           0      -12.071005   -3.312897    1.149329
    108          6           0      -14.456735   -5.767493    1.438107
    109          6           0      -10.903524   -5.309942    0.041826
    110          6           0      -10.703013   -4.434985   -1.225641
    111          7           0      -11.671294   -0.390199    1.172835
    112          6           0      -10.962014   -1.231131    1.942873
    113          6           0      -10.066109   -0.450166    2.752797
    114          6           0      -10.336787    0.868626    2.439509
    115          6           0      -11.378558    0.888298    1.508104
    116          6           0       -9.044938   -0.916321    3.772939
    117          6           0       -9.938529    2.224131    2.828478
    118          8           0       -9.234607    2.755041    3.640632
    119          6           0      -10.832489    3.141907    1.953312
    120          6           0      -11.587996    3.989491    2.908915
    121          8           0      -12.249722    3.504874    3.792214
    122          8           0      -11.377563    5.347262    2.729741
    123          6           0      -11.860608    6.247363    3.829846
    124          1           0      -15.957168    1.840033   -2.679717
    125          1           0      -15.267266   -4.454391   -1.398191
    126          1           0      -10.361181   -3.098088    2.465595
    127          1           0      -13.753545    4.417615    0.530800
    128          1           0      -14.155978    3.808058   -2.253325
    129          1           0      -15.798011    4.771417   -0.145391
    130          1           0      -16.648796    3.665396   -1.249198
    131          1           0      -15.698286    5.066432   -1.849447
    132          1           0      -12.242444    4.859118   -1.984883
    133          1           0      -11.211766    4.136965   -0.824527
    134          1           0      -11.119963    6.152119    0.302173
    135          1           0      -12.848348    6.254281    0.338793
    136          1           0      -17.637767   -0.607181   -4.819228
    137          1           0      -17.525657    0.908912   -4.003691
    138          1           0      -18.719088   -0.131863   -3.495987
    139          1           0      -18.509125   -2.703240   -4.344237
    140          1           0      -19.208409   -2.223407   -2.742497
    141          1           0      -19.498898   -3.870293   -3.489467
    142          1           0      -13.236442   -5.799805   -0.418432
    143          1           0      -11.840586   -5.178587    2.059250
    144          1           0      -14.379323   -6.848359    1.317564
    145          1           0      -15.516916   -5.533423    1.335775
    146          1           0      -14.069836   -5.478550    2.415186
    147          1           0      -11.028728   -6.344954   -0.275650
    148          1           0       -9.929658   -5.172476    0.511909
    149          1           0      -10.046000   -4.855818   -1.986044
    150          1           0      -10.258684   -3.492669   -0.904754
    151          1           0      -11.689819   -4.232813   -1.643380
    152          1           0       -8.241969   -1.525874    3.359090
    153          1           0       -9.630262   -1.531525    4.455829
    154          1           0       -8.647621   -0.099029    4.374805
    155          1           0      -10.108072    3.755231    1.417743
    156          1           0      -12.318912    7.023510    3.216942
    157          1           0      -11.049610    6.675580    4.418633
    158          1           0      -12.561611    5.875635    4.576766
 ---------------------------------------------------------------------

 SCF Done:  E(RwB97XD) =  -4070.65846235     A.U. after   19 cycles

 Excitation energies and oscillator strengths:

 Excited State   1:      Singlet-A      1.6439 eV  754.20 nm  f=0.4759  <S**2>=0.000
     309 -> 316        0.18032
     311 -> 313        0.68114
     309 <- 316        0.11624
 This state for optimization and/or second-order correction.
 Total Energy, E(TD-HF/TD-DFT) =  -4070.59804934
 Copying the excited state density for this state as the 1-particle RhoCI density.

 Excited State   2:      Singlet-A      1.6700 eV  742.44 nm  f=0.3207  <S**2>=0.000
     310 -> 315       -0.19364
     312 -> 314        0.67635
     310 <- 315       -0.11802

 Excited State   3:      Singlet-A      2.1358 eV  580.49 nm  f=0.1317  <S**2>=0.000
     309 -> 313        0.65464
     311 -> 316       -0.25212

 Excited State   4:      Singlet-A      2.1969 eV  564.37 nm  f=0.0836  <S**2>=0.000
     310 -> 314        0.62406
     312 -> 315        0.31820

 Excited State   5:      Singlet-A      3.5702 eV  347.28 nm  f=0.0000  <S**2>=0.000
     312 -> 313        0.70703

 The electronic state is 1-A.
 Alpha  occ. eigenvalues --  -46.95837 -46.95221 -19.31185 -19.30324 -19.24606
 Alpha  occ. eigenvalues --  -19.24258 -19.24166 -19.24084 -19.23409 -19.23365
 Alpha  occ. eigenvalues --  -14.46679 -14.46472 -14.46408 -14.46289 -14.44315
 Alpha  occ. eigenvalues --  -14.44122 -14.43828 -14.43777 -10.43416 -10.42592
 Alpha  occ. eigenvalues --  -10.39132 -10.38935 -10.38868 -10.38267 -10.36069
 Alpha  occ. eigenvalues --  -10.35535 -10.35520 -10.34923 -10.34750 -10.34725
 Alpha  occ. eigenvalues --  -10.34718 -10.34692 -10.34664 -10.34419 -10.34214
 Alpha  occ. eigenvalues --  -10.34122 -10.34071 -10.33951 -10.33932 -10.33768
 Alpha  occ. eigenvalues --  -10.33343 -10.33325 -10.33284 -10.33149 -10.32777
 Alpha  occ. eigenvalues --  -10.32675 -10.32519 -10.32327 -10.32213 -10.32055
 Alpha  occ. eigenvalues --  -10.32049 -10.32015 -10.31976 -10.31968 -10.31899
 Alpha  occ. eigenvalues --  -10.31891 -10.31867 -10.31658 -10.31498 -10.31434
 Alpha  occ. eigenvalues --  -10.31425 -10.31330 -10.31320 -10.31250 -10.31033
 Alpha  occ. eigenvalues --  -10.31032 -10.30951 -10.30632 -10.30527 -10.30524
 Alpha  occ. eigenvalues --  -10.30422 -10.30311 -10.30099 -10.30028 -10.29972
 Alpha  occ. eigenvalues --  -10.29934 -10.29927 -10.29927 -10.29787 -10.29765
 Alpha  occ. eigenvalues --  -10.29413 -10.29366 -10.29314 -10.29165 -10.29057
 Alpha  occ. eigenvalues --  -10.28886  -3.21700  -3.21091  -1.95268  -1.94835
 Alpha  occ. eigenvalues --   -1.94701  -1.94659  -1.94196  -1.94066  -1.18612
 Alpha  occ. eigenvalues --   -1.17800  -1.13873  -1.13234  -1.13184  -1.11135
 Alpha  occ. eigenvalues --   -1.09779  -1.09310  -1.07163  -1.07114  -1.06288
 Alpha  occ. eigenvalues --   -1.06058  -1.05823  -1.05396  -1.03961  -1.03005
 Alpha  occ. eigenvalues --   -0.94452  -0.94300  -0.91007  -0.90729  -0.90627
 Alpha  occ. eigenvalues --   -0.90169  -0.90108  -0.89630  -0.89594  -0.89129
 Alpha  occ. eigenvalues --   -0.88660  -0.88465  -0.88229  -0.88211  -0.86292
 Alpha  occ. eigenvalues --   -0.85884  -0.85450  -0.85349  -0.84348  -0.84207
 Alpha  occ. eigenvalues --   -0.83791  -0.83152  -0.83103  -0.82775  -0.82510
 Alpha  occ. eigenvalues --   -0.82071  -0.80404  -0.80281  -0.79486  -0.79310
 Alpha  occ. eigenvalues --   -0.79243  -0.78659  -0.78150  -0.78034  -0.77113
 Alpha  occ. eigenvalues --   -0.76820  -0.75056  -0.74596  -0.73703  -0.73488
 Alpha  occ. eigenvalues --   -0.71242  -0.71164  -0.71158  -0.70270  -0.70018
 Alpha  occ. eigenvalues --   -0.70014  -0.69190  -0.68925  -0.67773  -0.67375
 Alpha  occ. eigenvalues --   -0.67342  -0.67243  -0.67097  -0.67046  -0.66408
 Alpha  occ. eigenvalues --   -0.66330  -0.64710  -0.64239  -0.62374  -0.61836
 Alpha  occ. eigenvalues --   -0.61648  -0.61565  -0.61239  -0.61214  -0.60713
 Alpha  occ. eigenvalues --   -0.60686  -0.60215  -0.60053  -0.59494  -0.59279
 Alpha  occ. eigenvalues --   -0.58043  -0.57937  -0.57830  -0.57353  -0.57294
 Alpha  occ. eigenvalues --   -0.57120  -0.56669  -0.56547  -0.56066  -0.55913
 Alpha  occ. eigenvalues --   -0.55398  -0.55316  -0.54883  -0.54878  -0.54725
 Alpha  occ. eigenvalues --   -0.54562  -0.54343  -0.54287  -0.54147  -0.54022
 Alpha  occ. eigenvalues --   -0.53785  -0.53553  -0.53423  -0.53414  -0.53236
 Alpha  occ. eigenvalues --   -0.53168  -0.53068  -0.52633  -0.52135  -0.51952
 Alpha  occ. eigenvalues --   -0.51912  -0.51808  -0.51699  -0.51391  -0.51293
 Alpha  occ. eigenvalues --   -0.51252  -0.51190  -0.50931  -0.50929  -0.50456
 Alpha  occ. eigenvalues --   -0.50377  -0.50297  -0.50150  -0.50013  -0.49855
 Alpha  occ. eigenvalues --   -0.49828  -0.49488  -0.49406  -0.49365  -0.49159
 Alpha  occ. eigenvalues --   -0.49062  -0.48913  -0.48640  -0.48321  -0.48187
 Alpha  occ. eigenvalues --   -0.48019  -0.47998  -0.47812  -0.47774  -0.47628
 Alpha  occ. eigenvalues --   -0.47446  -0.47445  -0.47191  -0.47154  -0.46996
 Alpha  occ. eigenvalues --   -0.46843  -0.46471  -0.46431  -0.46257  -0.45949
 Alpha  occ. eigenvalues --   -0.45757  -0.45559  -0.45551  -0.45401  -0.45311
 Alpha  occ. eigenvalues --   -0.45243  -0.45092  -0.44957  -0.44946  -0.44795
 Alpha  occ. eigenvalues --   -0.44542  -0.44349  -0.44255  -0.44069  -0.43982
 Alpha  occ. eigenvalues --   -0.43899  -0.43791  -0.43380  -0.43322  -0.43253
 Alpha  occ. eigenvalues --   -0.43135  -0.42835  -0.42750  -0.42581  -0.42247
 Alpha  occ. eigenvalues --   -0.42185  -0.41862  -0.41599  -0.41415  -0.40938
 Alpha  occ. eigenvalues --   -0.40180  -0.40088  -0.39967  -0.39759  -0.39421
 Alpha  occ. eigenvalues --   -0.39200  -0.39103  -0.38778  -0.38701  -0.38307
 Alpha  occ. eigenvalues --   -0.38166  -0.37933  -0.36357  -0.36024  -0.35992
 Alpha  occ. eigenvalues --   -0.35915  -0.35600  -0.35364  -0.33783  -0.33279
 Alpha  occ. eigenvalues --   -0.33195  -0.32894  -0.32698  -0.32512  -0.32328
 Alpha  occ. eigenvalues --   -0.32230  -0.32175  -0.31700  -0.26058  -0.25797
 Alpha  occ. eigenvalues --   -0.23348  -0.22605
 Alpha virt. eigenvalues --   -0.07487  -0.06654   0.00184   0.00528   0.02589
 Alpha virt. eigenvalues --    0.02642   0.04626   0.04686   0.04852   0.06124
 Alpha virt. eigenvalues --    0.06613   0.07604   0.07945   0.07959   0.08665

 Mulliken charges:
               1
     1  Mg   0.952613
     2  C   -0.030091
     3  C   -0.087548
     4  C   -0.053695
     5  C   -0.079076
     6  N   -0.317207
     7  C   -0.008864
     8  C   -0.054134
     9  C   -0.041507
    10  C   -0.008989
    11  C    0.019987
    12  C    0.021104
    13  C   -0.115122
    14  H    0.015557
    15  N   -0.461311
    16  C    0.197242
    17  C   -0.169702
    18  C   -0.061196
    19  C    0.119839
    20  C    0.061412
    21  C    0.038624
    22  O   -0.262827
    23  C    0.013131
    24  N   -0.333157
    25  C    0.064221
    26  C   -0.091921
    27  C   -0.098948
    28  C    0.041388
    29  C    0.031149
    30  C   -0.015234
    31  C   -0.053807
    32  N   -0.449377
    33  C    0.129887
    34  C   -0.162243
    35  C   -0.055511
    36  C    0.145081
    37  C    0.075969
    38  C    0.096396
    39  O   -0.183806
    40  C   -0.042043
    41  C    0.280558
    42  O   -0.276133
    43  O   -0.352373
    44  C    0.141015
    45  H   -0.023846
    46  H    0.028166
    47  H   -0.002465
    48  H    0.045934
    49  H    0.034485
    50  H    0.048860
    51  H    0.031106
    52  H    0.026871
    53  H    0.018669
    54  H    0.024860
    55  H    0.055152
    56  H    0.067017
    57  H    0.025614
    58  H    0.064146
    59  H    0.051401
    60  H    0.063702
    61  H    0.041713
    62  H    0.053132
    63  H    0.040567
    64  H    0.038288
    65  H    0.048219
    66  H    0.046052
    67  H    0.029673
    68  H    0.031817
    69  H    0.025762
    70  H    0.040534
    71  H    0.032124
    72  H    0.041567
    73  H    0.049822
    74  H    0.047499
    75  H    0.057372
    76  H    0.067012
    77  H    0.067185
    78  H    0.052455
    79  H    0.050183
    80  Mg   0.946040
    81  C   -0.040898
    82  C   -0.093275
    83  C   -0.065185
    84  C   -0.068631
    85  N   -0.372001
    86  C    0.009210
    87  C   -0.038039
    88  C   -0.102999
    89  C    0.075393
    90  C    0.021432
    91  C    0.015410
    92  C   -0.142007
    93  H    0.025745
    94  N   -0.445135
    95  C    0.174409
    96  C   -0.128347
    97  C   -0.081800
    98  C    0.149849
    99  C    0.017870
   100  C    0.023338
   101  O   -0.210467
   102  C   -0.005902
   103  N   -0.331105
   104  C    0.048354
   105  C   -0.089078
   106  C   -0.066861
   107  C    0.056020
   108  C    0.021709
   109  C   -0.041474
   110  C   -0.066484
   111  N   -0.412081
   112  C    0.080763
   113  C   -0.175839
   114  C   -0.085167
   115  C    0.178273
   116  C    0.073491
   117  C    0.147916
   118  O   -0.174163
   119  C   -0.066741
   120  C    0.252453
   121  O   -0.231301
   122  O   -0.382091
   123  C    0.126262
   124  H   -0.010030
   125  H    0.025829
   126  H   -0.003883
   127  H    0.040921
   128  H    0.034001
   129  H    0.030193
   130  H    0.043282
   131  H    0.031377
   132  H    0.042816
   133  H    0.033172
   134  H    0.067911
   135  H    0.036276
   136  H    0.049000
   137  H    0.027014
   138  H    0.053793
   139  H    0.041744
   140  H    0.056489
   141  H    0.049574
   142  H    0.042148
   143  H    0.039875
   144  H    0.039749
   145  H    0.057615
   146  H    0.036689
   147  H    0.045182
   148  H    0.027688
   149  H    0.048401
   150  H    0.041135
   151  H    0.039405
   152  H    0.052015
   153  H    0.041667
   154  H    0.060899
   155  H    0.063173
   156  H    0.052974
   157  H    0.061598
   158  H    0.073442
 Sum of Mulliken charges =  -0.00000

 Dipole moment (field-independent basis, Debye):
    X=              2.6382    Y=              2.6081    Z=             -1.2799  Tot=              3.9243
 Quadrupole moment (field-independent basis, Debye-Ang):
   XX=           -438.4950   YY=           -472.3424   ZZ=           -518.7593
   XY=             16.6748   XZ=             59.2406   YZ=            -11.4241

 Normal termination of Gaussian 16 at Sun Sep 19 23:51:49 2021.
