 Gaussian 16, Revision A.03,
 Gaussian 16:  ES64L-G16RevA.03 25-Dec-2016

 --------------------------------
 #p wB97XD/Def2SVP td=(nstates=5)
 --------------------------------

 --------------------------------
 TDDFT excited states in gaussian
 --------------------------------
 Symbolic Z-matrix:
 Charge =  0 Multiplicity = 1

                         Standard orientation:
 ---------------------------------------------------------------------
 Center     Atomic      Atomic             Coordinates (Angstroms)
 Number     Number       Type             X           Y           Z
 ---------------------------------------------------------------------
      1         12           0      -28.412273    0.485797   -0.613634
      2          6           0      -28.075361   -2.378122    1.427038
      3          6           0      -27.692757    2.429986    1.950907
      4          6           0      -29.637183    3.108398   -2.428679
      5          6           0      -30.181916   -1.720777   -2.995773
      6          7           0      -27.995179    0.023680    1.472719
      7          6           0      -27.676611   -1.172808    2.007711
      8          6           0      -26.998871   -0.950620    3.374047
      9          6           0      -26.859512    0.530754    3.520512
     10          6           0      -27.593719    1.072268    2.256646
     11          6           0      -27.312498    1.055782    4.944039
     12          6           0      -25.682405   -1.735998    3.691000
     13          6           0      -24.501558   -1.109516    4.549563
     14          1           0      -23.847596   -1.975191    5.636466
     15          7           0      -28.393501    2.518450   -0.350915
     16          6           0      -28.038190    3.141792    0.823930
     17          6           0      -28.108106    4.558352    0.603559
     18          6           0      -28.721776    4.831728   -0.680636
     19          6           0      -28.991335    3.467169   -1.185050
     20          6           0      -27.726627    5.452720    1.712759
     21          6           0      -28.980494    6.170797   -1.414392
     22          8           0      -29.543939    6.180425   -2.458871
     23          6           0      -28.314276    7.425965   -0.953024
     24          7           0      -29.782395    0.632121   -2.435187
     25          6           0      -29.964852    1.855592   -2.980753
     26          6           0      -30.768951    1.787801   -4.318404
     27          6           0      -30.919664    0.251668   -4.539959
     28          6           0      -30.283912   -0.351519   -3.262935
     29          6           0      -32.097312    2.496526   -4.316933
     30          6           0      -30.285154   -0.375759   -5.830202
     31          6           0      -28.813208   -0.610732   -5.877569
     32          7           0      -29.042319   -1.593896   -0.868523
     33          6           0      -29.665550   -2.285116   -1.867661
     34          6           0      -29.644836   -3.693964   -1.558180
     35          6           0      -29.040722   -3.819112   -0.279476
     36          6           0      -28.734955   -2.500472    0.114117
     37          6           0      -30.297120   -4.801752   -2.307516
     38          6           0      -28.665526   -4.720844    0.771956
     39          8           0      -28.716330   -5.939338    0.894268
     40          6           0      -27.977189   -3.837335    1.906842
     41          6           0      -28.529601   -4.117720    3.294193
     42          8           0      -29.662989   -3.882902    3.625600
     43          8           0      -27.518862   -4.629441    4.092325
     44          6           0      -27.965058   -4.966119    5.444699
     45          1           0      -27.275590    3.135845    2.672686
     46          1           0      -29.952118    3.999918   -2.974506
     47          1           0      -30.609397   -2.389209   -3.745922
     48          1           0      -27.770958   -1.394181    4.002743
     49          1           0      -25.794382    0.762276    3.493066
     50          1           0      -27.511567    0.205591    5.596252
     51          1           0      -28.122049    1.768931    4.788890
     52          1           0      -26.488878    1.543274    5.466003
     53          1           0      -25.241721   -2.001261    2.729680
     54          1           0      -25.886994   -2.698287    4.161033
     55          1           0      -24.940657   -0.218419    4.998605
     56          1           0      -23.715322   -0.770539    3.874899
     57          1           0      -28.409205    6.300015    1.651334
     58          1           0      -26.723868    5.818778    1.495556
     59          1           0      -27.709557    5.113705    2.748691
     60          1           0      -29.055375    7.842155   -0.271885
     61          1           0      -28.029585    8.017934   -1.823403
     62          1           0      -27.432809    7.279301   -0.328449
     63          1           0      -30.171396    2.117840   -5.168408
     64          1           0      -31.908014   -0.204716   -4.495300
     65          1           0      -32.213511    3.124427   -3.432610
     66          1           0      -32.936237    1.800631   -4.289801
     67          1           0      -32.103320    3.105123   -5.220845
     68          1           0      -30.527123    0.242723   -6.694579
     69          1           0      -30.851854   -1.275633   -6.070388
     70          1           0      -28.312558    0.048259   -5.167955
     71          1           0      -28.240863   -0.420202   -6.785708
     72          1           0      -28.694631   -1.677195   -5.683386
     73          1           0      -31.377255   -4.707820   -2.415936
     74          1           0      -30.284919   -5.653350   -1.626812
     75          1           0      -29.805441   -4.990186   -3.262298
     76          1           0      -26.915663   -4.082199    1.865498
     77          1           0      -27.361700   -4.154126    5.849382
     78          1           0      -27.539589   -5.956013    5.607878
     79          1           0      -29.044496   -4.884894    5.574244
     80         12           0       29.260085   -0.312993    0.075851
     81          6           0       26.415112    1.567924    0.755329
     82          6           0       27.193535   -3.048645   -0.443052
     83          6           0       31.793192   -2.068209   -1.119054
     84          6           0       31.154928    2.582761    0.127895
     85          7           0       27.067131   -0.664066   -0.013585
     86          6           0       26.104293    0.215920    0.436372
     87          6           0       24.745393   -0.410895    0.540288
     88          6           0       25.106024   -1.961636    0.519270
     89          6           0       26.519269   -1.925733   -0.047040
     90          6           0       24.844814   -2.912738    1.781913
     91          6           0       23.680865    0.076845   -0.548243
     92          6           0       24.214131    0.469034   -1.958298
     93          1           0       23.353772   -0.009989   -3.102815
     94          7           0       29.457472   -2.256543   -0.793157
     95          6           0       28.470550   -3.244336   -0.900259
     96          6           0       28.969745   -4.419341   -1.560417
     97          6           0       30.339177   -4.153254   -1.799031
     98          6           0       30.608883   -2.783073   -1.270054
     99          6           0       28.124433   -5.693040   -1.611158
    100          6           0       31.268332   -5.197565   -2.458739
    101          8           0       30.841939   -6.271599   -2.895092
    102          6           0       32.699624   -4.860153   -2.484969
    103          7           0       31.150245    0.273652   -0.521285
    104          6           0       32.090812   -0.722757   -0.721249
    105          6           0       33.534770   -0.180611   -0.803529
    106          6           0       33.210342    1.359300   -0.625753
    107          6           0       31.769794    1.433280   -0.376036
    108          6           0       34.563383   -0.678256    0.162259
    109          6           0       33.569000    2.231656   -1.932959
    110          6           0       34.316175    3.485544   -1.560166
    111          7           0       28.949897    1.687679    0.569161
    112          6           0       29.826572    2.756424    0.542209
    113          6           0       29.118021    3.999199    0.924673
    114          6           0       27.749037    3.569197    1.023585
    115          6           0       27.730077    2.188401    0.794799
    116          6           0       29.570722    5.402650    0.909273
    117          6           0       26.336760    3.964898    1.209762
    118          8           0       25.861243    5.068901    1.341851
    119          6           0       25.436799    2.693504    1.085420
    120          6           0       24.626559    2.524589    2.292271
    121          8           0       23.403256    2.529620    2.431974
    122          8           0       25.510497    2.634412    3.397627
    123          6           0       24.893132    2.433647    4.726108
    124          1           0       26.550027   -3.926287   -0.347528
    125          1           0       32.732100   -2.592455   -1.308355
    126          1           0       31.853379    3.419090    0.191026
    127          1           0       24.277648   -0.142223    1.487393
    128          1           0       24.445200   -2.303450   -0.277730
    129          1           0       24.319729   -2.455145    2.620174
    130          1           0       25.757256   -3.279072    2.252209
    131          1           0       24.135121   -3.691839    1.502281
    132          1           0       23.060297    0.876549   -0.145266
    133          1           0       22.970937   -0.742568   -0.660528
    134          1           0       25.236660    0.115905   -2.095297
    135          1           0       24.249309    1.554253   -2.049975
    136          1           0       28.309079   -6.309203   -2.491697
    137          1           0       27.074092   -5.420323   -1.710275
    138          1           0       28.387425   -6.257119   -0.716001
    139          1           0       33.085010   -4.909836   -1.467019
    140          1           0       32.837993   -3.877482   -2.936961
    141          1           0       33.159699   -5.637921   -3.094418
    142          1           0       33.850872   -0.256888   -1.844158
    143          1           0       33.679834    1.586184    0.331412
    144          1           0       35.419714   -0.012923    0.050907
    145          1           0       34.903906   -1.645819   -0.206528
    146          1           0       34.149308   -0.727959    1.170018
    147          1           0       32.623370    2.429340   -2.437576
    148          1           0       34.102723    1.724257   -2.737564
    149          1           0       33.657014    4.333285   -1.745552
    150          1           0       35.110871    3.721525   -2.268670
    151          1           0       34.521392    3.488582   -0.489857
    152          1           0       30.607775    5.564596    0.611601
    153          1           0       29.499651    5.748604    1.939884
    154          1           0       28.968250    5.791072    0.088387
    155          1           0       24.814003    2.886407    0.212227
    156          1           0       25.613713    1.773477    5.210208
    157          1           0       23.903791    1.986936    4.825269
    158          1           0       25.048858    3.382048    5.240628
 ---------------------------------------------------------------------

 SCF Done:  E(RwB97XD) =  -4070.59619186     A.U. after   20 cycles

 Excitation energies and oscillator strengths:

 Excited State   1:      Singlet-A      1.6417 eV  755.21 nm  f=0.3764  <S**2>=0.000
     310 -> 316       -0.19301
     312 -> 314        0.68163
     310 <- 316       -0.12002
 This state for optimization and/or second-order correction.
 Total Energy, E(TD-HF/TD-DFT) =  -4070.53585972
 Copying the excited state density for this state as the 1-particle RhoCI density.

 Excited State   2:      Singlet-A      1.6615 eV  746.22 nm  f=0.3771  <S**2>=0.000
     309 -> 315        0.18775
     311 -> 313        0.68148
     309 <- 315        0.11477

 Excited State   3:      Singlet-A      2.1319 eV  581.56 nm  f=0.1061  <S**2>=0.000
     310 -> 314        0.64022
     312 -> 316        0.28533

 Excited State   4:      Singlet-A      2.1479 eV  577.24 nm  f=0.0863  <S**2>=0.000
     309 -> 313        0.62830
     311 -> 315       -0.30700

 Excited State   5:      Singlet-A      3.3484 eV  370.28 nm  f=0.0010  <S**2>=0.000
     306 -> 314       -0.21709
     308 -> 314        0.65052

 The electronic state is 1-A.
 Alpha  occ. eigenvalues --  -46.96315 -46.95466 -19.29966 -19.29595 -19.25505
 Alpha  occ. eigenvalues --  -19.24939 -19.24585 -19.24074 -19.23890 -19.23664
 Alpha  occ. eigenvalues --  -14.46860 -14.46803 -14.46782 -14.46360 -14.44274
 Alpha  occ. eigenvalues --  -14.44093 -14.43784 -14.43374 -10.43616 -10.42949
 Alpha  occ. eigenvalues --  -10.39674 -10.39158 -10.39090 -10.38798 -10.35702
 Alpha  occ. eigenvalues --  -10.35663 -10.35226 -10.35128 -10.35040 -10.34978
 Alpha  occ. eigenvalues --  -10.34952 -10.34746 -10.34729 -10.34681 -10.34335
 Alpha  occ. eigenvalues --  -10.34153 -10.34098 -10.33593 -10.33467 -10.33410
 Alpha  occ. eigenvalues --  -10.33014 -10.32959 -10.32814 -10.32811 -10.32631
 Alpha  occ. eigenvalues --  -10.32584 -10.32540 -10.32394 -10.32391 -10.32330
 Alpha  occ. eigenvalues --  -10.32303 -10.32291 -10.32127 -10.32066 -10.32053
 Alpha  occ. eigenvalues --  -10.31863 -10.31734 -10.31681 -10.31655 -10.31439
 Alpha  occ. eigenvalues --  -10.31386 -10.31301 -10.31220 -10.31106 -10.31028
 Alpha  occ. eigenvalues --  -10.30950 -10.30884 -10.30840 -10.30755 -10.30743
 Alpha  occ. eigenvalues --  -10.30737 -10.30431 -10.30419 -10.30403 -10.30241
 Alpha  occ. eigenvalues --  -10.30092 -10.30080 -10.30034 -10.29918 -10.29911
 Alpha  occ. eigenvalues --  -10.29580 -10.29458 -10.29250 -10.28931 -10.28898
 Alpha  occ. eigenvalues --  -10.28757  -3.22109  -3.21435  -1.95662  -1.95232
 Alpha  occ. eigenvalues --   -1.95059  -1.95007  -1.94573  -1.94397  -1.18440
 Alpha  occ. eigenvalues --   -1.16987  -1.15111  -1.12624  -1.11607  -1.11426
 Alpha  occ. eigenvalues --   -1.10726  -1.09127  -1.07075  -1.06200  -1.05738
 Alpha  occ. eigenvalues --   -1.05232  -1.05118  -1.04499  -1.04406  -1.03857
 Alpha  occ. eigenvalues --   -0.94446  -0.93557  -0.91521  -0.91180  -0.91144
 Alpha  occ. eigenvalues --   -0.90722  -0.90173  -0.89898  -0.89575  -0.89289
 Alpha  occ. eigenvalues --   -0.89098  -0.88829  -0.88171  -0.88017  -0.86744
 Alpha  occ. eigenvalues --   -0.86377  -0.85863  -0.85578  -0.84675  -0.84435
 Alpha  occ. eigenvalues --   -0.84290  -0.83887  -0.82810  -0.82765  -0.82349
 Alpha  occ. eigenvalues --   -0.82120  -0.80250  -0.80248  -0.79471  -0.79043
 Alpha  occ. eigenvalues --   -0.78996  -0.78775  -0.78157  -0.77789  -0.77718
 Alpha  occ. eigenvalues --   -0.76582  -0.74645  -0.74302  -0.74138  -0.73414
 Alpha  occ. eigenvalues --   -0.71710  -0.71372  -0.71254  -0.71173  -0.70193
 Alpha  occ. eigenvalues --   -0.70096  -0.68917  -0.68839  -0.68358  -0.66915
 Alpha  occ. eigenvalues --   -0.66912  -0.66528  -0.66213  -0.66071  -0.66003
 Alpha  occ. eigenvalues --   -0.65988  -0.64544  -0.63670  -0.62266  -0.62028
 Alpha  occ. eigenvalues --   -0.61491  -0.61414  -0.60952  -0.60786  -0.60300
 Alpha  occ. eigenvalues --   -0.60288  -0.59961  -0.59525  -0.59370  -0.59211
 Alpha  occ. eigenvalues --   -0.58310  -0.58031  -0.57830  -0.57781  -0.57358
 Alpha  occ. eigenvalues --   -0.57315  -0.57060  -0.56974  -0.56562  -0.56511
 Alpha  occ. eigenvalues --   -0.55981  -0.55809  -0.55657  -0.55279  -0.54876
 Alpha  occ. eigenvalues --   -0.54694  -0.54665  -0.54573  -0.54276  -0.54123
 Alpha  occ. eigenvalues --   -0.53928  -0.53658  -0.53556  -0.53124  -0.53058
 Alpha  occ. eigenvalues --   -0.52860  -0.52762  -0.52743  -0.52501  -0.52384
 Alpha  occ. eigenvalues --   -0.52245  -0.52217  -0.51936  -0.51565  -0.51509
 Alpha  occ. eigenvalues --   -0.51413  -0.51268  -0.51090  -0.50918  -0.50772
 Alpha  occ. eigenvalues --   -0.50650  -0.50514  -0.50504  -0.50277  -0.50201
 Alpha  occ. eigenvalues --   -0.50111  -0.49695  -0.49629  -0.49217  -0.49160
 Alpha  occ. eigenvalues --   -0.49054  -0.48886  -0.48710  -0.48476  -0.48228
 Alpha  occ. eigenvalues --   -0.48157  -0.47950  -0.47737  -0.47673  -0.47445
 Alpha  occ. eigenvalues --   -0.47354  -0.47333  -0.47071  -0.46922  -0.46872
 Alpha  occ. eigenvalues --   -0.46646  -0.46588  -0.46540  -0.46493  -0.46231
 Alpha  occ. eigenvalues --   -0.45989  -0.45875  -0.45628  -0.45554  -0.45371
 Alpha  occ. eigenvalues --   -0.45204  -0.45180  -0.45059  -0.44962  -0.44890
 Alpha  occ. eigenvalues --   -0.44761  -0.44502  -0.44462  -0.44315  -0.44077
 Alpha  occ. eigenvalues --   -0.43972  -0.43948  -0.43752  -0.43687  -0.43594
 Alpha  occ. eigenvalues --   -0.43401  -0.43137  -0.42790  -0.42466  -0.42386
 Alpha  occ. eigenvalues --   -0.42005  -0.41891  -0.41084  -0.41028  -0.40827
 Alpha  occ. eigenvalues --   -0.40448  -0.40024  -0.39975  -0.39829  -0.39415
 Alpha  occ. eigenvalues --   -0.39319  -0.38982  -0.38919  -0.38562  -0.37902
 Alpha  occ. eigenvalues --   -0.37672  -0.37650  -0.37160  -0.36786  -0.36582
 Alpha  occ. eigenvalues --   -0.35585  -0.35545  -0.35356  -0.33738  -0.33513
 Alpha  occ. eigenvalues --   -0.33155  -0.33016  -0.32810  -0.32614  -0.32183
 Alpha  occ. eigenvalues --   -0.31999  -0.31845  -0.31491  -0.26032  -0.25722
 Alpha  occ. eigenvalues --   -0.23035  -0.22835
 Alpha virt. eigenvalues --   -0.07022  -0.06985  -0.00328   0.00309   0.02485
 Alpha virt. eigenvalues --    0.02708   0.04264   0.04547   0.04653   0.04843
 Alpha virt. eigenvalues --    0.06194   0.07026   0.07448   0.07812   0.08516

 Mulliken charges:
               1
     1  Mg   0.948323
     2  C   -0.025561
     3  C   -0.065346
     4  C   -0.063867
     5  C   -0.102262
     6  N   -0.370820
     7  C   -0.015816
     8  C   -0.028355
     9  C   -0.134524
    10  C    0.098612
    11  C    0.020654
    12  C   -0.029976
    13  C   -0.123627
    14  H    0.053539
    15  N   -0.508352
    16  C    0.144423
    17  C   -0.142150
    18  C   -0.082467
    19  C    0.112947
    20  C    0.033286
    21  C    0.056547
    22  O   -0.199129
    23  C   -0.018030
    24  N   -0.306703
    25  C    0.065578
    26  C   -0.068781
    27  C   -0.047980
    28  C    0.007242
    29  C    0.036412
    30  C   -0.047594
    31  C   -0.031033
    32  N   -0.393410
    33  C    0.166336
    34  C   -0.184929
    35  C   -0.031399
    36  C    0.105819
    37  C    0.061937
    38  C    0.130854
    39  O   -0.210244
    40  C   -0.060694
    41  C    0.252691
    42  O   -0.228670
    43  O   -0.379390
    44  C    0.117910
    45  H   -0.017356
    46  H    0.026225
    47  H   -0.005182
    48  H    0.048800
    49  H    0.042210
    50  H    0.042683
    51  H    0.050103
    52  H    0.032132
    53  H    0.030196
    54  H    0.046334
    55  H    0.034835
    56  H    0.055857
    57  H    0.037088
    58  H    0.055341
    59  H    0.058276
    60  H    0.064551
    61  H    0.073681
    62  H    0.037415
    63  H    0.039939
    64  H    0.035208
    65  H    0.044168
    66  H    0.034848
    67  H    0.041318
    68  H    0.023714
    69  H    0.022408
    70  H    0.035752
    71  H    0.033348
    72  H    0.037191
    73  H    0.045443
    74  H    0.051365
    75  H    0.052636
    76  H    0.070919
    77  H    0.051494
    78  H    0.068776
    79  H    0.086282
    80  Mg   0.956384
    81  C   -0.040720
    82  C   -0.109739
    83  C   -0.099592
    84  C   -0.098491
    85  N   -0.351149
    86  C    0.005448
    87  C   -0.079359
    88  C   -0.050063
    89  C    0.025567
    90  C    0.014887
    91  C   -0.013986
    92  C   -0.131261
    93  H    0.040638
    94  N   -0.438297
    95  C    0.180526
    96  C   -0.147239
    97  C   -0.106989
    98  C    0.206998
    99  C    0.079858
   100  C    0.051282
   101  O   -0.236315
   102  C   -0.010368
   103  N   -0.369049
   104  C    0.022419
   105  C   -0.081684
   106  C   -0.120631
   107  C    0.043269
   108  C    0.052823
   109  C   -0.004583
   110  C   -0.029196
   111  N   -0.430886
   112  C    0.160364
   113  C   -0.200493
   114  C   -0.051312
   115  C    0.127788
   116  C    0.085793
   117  C    0.113304
   118  O   -0.186411
   119  C   -0.040970
   120  C    0.283632
   121  O   -0.239917
   122  O   -0.406689
   123  C    0.140501
   124  H   -0.005327
   125  H   -0.020559
   126  H   -0.017668
   127  H    0.039112
   128  H    0.033403
   129  H    0.033377
   130  H    0.047827
   131  H    0.043640
   132  H    0.053287
   133  H    0.034479
   134  H    0.067877
   135  H    0.053323
   136  H    0.060273
   137  H    0.036796
   138  H    0.064858
   139  H    0.070852
   140  H    0.065198
   141  H    0.051358
   142  H    0.031720
   143  H    0.032442
   144  H    0.042855
   145  H    0.037353
   146  H    0.047646
   147  H    0.039935
   148  H    0.030711
   149  H    0.027369
   150  H    0.038736
   151  H    0.043352
   152  H    0.019172
   153  H    0.066776
   154  H    0.074744
   155  H    0.069274
   156  H    0.037405
   157  H    0.075525
   158  H    0.056786
 Sum of Mulliken charges =  -0.00000

 Dipole moment (field-independent basis, Debye):
    X=              8.4224    Y=              2.7681    Z=              2.5673  Tot=              9.2299
 Quadrupole moment (field-independent basis, Debye-Ang):
   XX=           -393.8823   YY=           -564.3192   ZZ=           -477.0240
   XY=           -126.8361   XZ=             62.0935   YZ=             -6.1949

 Normal termination of Gaussian 16 at Sun Sep 19 02:42:41 2021.
