 Gaussian 16, Revision A.03,
 Gaussian 16:  ES64L-G16RevA.03 25-Dec-2016

 --------------------------------
 #p wB97XD/Def2SVP td=(nstates=5)
 --------------------------------

 --------------------------------
 TDDFT excited states in gaussian
 --------------------------------
 Symbolic Z-matrix:
 Charge =  0 Multiplicity = 1

                         Standard orientation:
 ---------------------------------------------------------------------
 Center     Atomic      Atomic             Coordinates (Angstroms)
 Number     Number       Type             X           Y           Z
 ---------------------------------------------------------------------
      1         12           0       -5.215547   -0.214698    0.625244
      2          6           0       -4.572752    3.276360   -0.138507
      3          6           0       -2.774843    0.085792    2.931229
      4          6           0       -5.756145   -3.302321    1.239345
      5          6           0       -7.490568   -0.308457   -2.086280
      6          7           0       -3.807123    1.603983    1.340988
      7          6           0       -3.814791    2.890017    0.949947
      8          6           0       -2.893479    3.728161    1.856740
      9          6           0       -2.049585    2.515297    2.469386
     10          6           0       -2.938081    1.355936    2.296126
     11          6           0       -0.580501    2.398710    2.099027
     12          6           0       -3.763860    4.530479    2.839409
     13          6           0       -3.066202    5.827012    3.346272
     14          1           0       -1.735505    6.418778    2.687507
     15          7           0       -4.406733   -1.484360    1.967056
     16          6           0       -3.334069   -1.225823    2.798735
     17          6           0       -3.008963   -2.459364    3.508321
     18          6           0       -3.928672   -3.447401    3.078056
     19          6           0       -4.741460   -2.743150    2.046211
     20          6           0       -1.916079   -2.593400    4.472992
     21          6           0       -4.122196   -4.974772    3.573782
     22          8           0       -5.066313   -5.631886    3.229913
     23          6           0       -3.290065   -5.556278    4.730786
     24          7           0       -6.262294   -1.661275   -0.488366
     25          6           0       -6.446396   -2.843256    0.094315
     26          6           0       -7.440373   -3.732174   -0.603616
     27          6           0       -8.237903   -2.649272   -1.370656
     28          6           0       -7.162024   -1.510793   -1.429896
     29          6           0       -6.784608   -4.799307   -1.598263
     30          6           0       -9.623784   -2.216926   -0.731375
     31          6           0      -10.440795   -3.237157    0.113695
     32          7           0       -5.831392    1.108304   -0.885813
     33          6           0       -6.770200    0.994380   -1.857624
     34          6           0       -7.017377    2.212253   -2.485954
     35          6           0       -6.153530    3.078568   -1.879047
     36          6           0       -5.450895    2.411714   -0.894939
     37          6           0       -8.076492    2.474370   -3.553162
     38          6           0       -5.764337    4.496607   -1.899735
     39          8           0       -5.990034    5.412166   -2.676815
     40          6           0       -4.759063    4.655618   -0.676930
     41          6           0       -3.560763    5.304257   -1.179845
     42          8           0       -2.647680    4.780606   -1.826052
     43          8           0       -3.748815    6.633552   -1.044066
     44          6           0       -2.815147    7.411661   -1.838355
     45          1           0       -1.869715    0.140012    3.539842
     46          1           0       -5.885508   -4.365412    1.450163
     47          1           0       -8.270049   -0.363543   -2.848817
     48          1           0       -2.202880    4.337656    1.273775
     49          1           0       -2.006315    2.702638    3.541426
     50          1           0        0.073176    2.582557    2.951138
     51          1           0       -0.334549    3.106192    1.307369
     52          1           0       -0.307007    1.438625    1.661319
     53          1           0       -3.883596    3.921281    3.735589
     54          1           0       -4.768720    4.740802    2.473646
     55          1           0       -2.931647    5.816264    4.428359
     56          1           0       -3.890071    6.540335    3.328506
     57          1           0       -1.647324   -1.634450    4.915524
     58          1           0       -1.086376   -3.012409    3.903412
     59          1           0       -2.143375   -3.248073    5.314611
     60          1           0       -3.483738   -5.083558    5.693631
     61          1           0       -2.264193   -5.539357    4.362165
     62          1           0       -3.480622   -6.625983    4.821368
     63          1           0       -7.937193   -4.233931    0.226408
     64          1           0       -8.469766   -2.935464   -2.396249
     65          1           0       -7.326898   -5.706014   -1.331087
     66          1           0       -5.716786   -4.960518   -1.446271
     67          1           0       -6.945389   -4.618516   -2.660389
     68          1           0      -10.255781   -1.808090   -1.518470
     69          1           0       -9.282897   -1.485272    0.001358
     70          1           0      -10.112891   -3.218233    1.152749
     71          1           0      -10.302609   -4.174689   -0.425989
     72          1           0      -11.512182   -3.044666    0.069178
     73          1           0       -8.866518    1.755590   -3.334356
     74          1           0       -7.735349    2.246784   -4.562654
     75          1           0       -8.414662    3.505421   -3.451416
     76          1           0       -5.266092    5.284130    0.056266
     77          1           0       -2.969328    8.487236   -1.756799
     78          1           0       -2.658668    7.085822   -2.866809
     79          1           0       -1.805583    7.316774   -1.437024
     80         12           0        4.476634   -1.030695   -1.072032
     81          6           0        7.202490    0.988852   -0.073990
     82          6           0        2.430551    1.679005   -0.624652
     83          6           0        1.878821   -3.063658   -1.365711
     84          6           0        6.626104   -3.792410   -1.007470
     85          7           0        4.767588    1.054789   -0.263172
     86          6           0        6.004073    1.664181   -0.034073
     87          6           0        5.822581    3.197736    0.082165
     88          6           0        4.270377    3.389953   -0.079556
     89          6           0        3.739441    1.962244   -0.386543
     90          6           0        3.559474    4.211923    0.981334
     91          6           0        6.639155    4.061054   -0.892072
     92          6           0        7.518567    5.136038   -0.196278
     93          1           0        7.285371    6.560126   -0.649672
     94          7           0        2.430599   -0.687477   -1.084730
     95          6           0        1.753596    0.473802   -0.853386
     96          6           0        0.357673    0.229600   -1.128243
     97          6           0        0.157038   -1.214837   -1.205662
     98          6           0        1.534102   -1.684073   -1.193566
     99          6           0       -0.763334    1.388464   -1.023805
    100          6           0       -1.037621   -2.048381   -1.023400
    101          8           0       -1.115200   -3.240661   -1.111167
    102          6           0       -2.321155   -1.303921   -0.667957
    103          7           0        4.288288   -3.181043   -0.962193
    104          6           0        3.093473   -3.765310   -1.177245
    105          6           0        3.262053   -5.265343   -1.429838
    106          6           0        4.774598   -5.401947   -1.667068
    107          6           0        5.288785   -4.048095   -1.231105
    108          6           0        2.764058   -6.127000   -0.180367
    109          6           0        5.027257   -5.613186   -3.246014
    110          6           0        4.809489   -4.359794   -4.136976
    111          7           0        6.534265   -1.415867   -0.759256
    112          6           0        7.233590   -2.562024   -0.780936
    113          6           0        8.609766   -2.253247   -0.499290
    114          6           0        8.645013   -0.890487   -0.270660
    115          6           0        7.340307   -0.399774   -0.371306
    116          6           0        9.803988   -3.185360   -0.423258
    117          6           0        9.587028    0.163738    0.114721
    118          8           0       10.732805    0.264723    0.452303
    119          6           0        8.710192    1.442018    0.182201
    120          6           0        8.863143    1.956558    1.565754
    121          8           0        8.637142    1.261037    2.523944
    122          8           0        9.363783    3.247274    1.623522
    123          6           0        9.825056    3.723469    2.970449
    124          1           0        1.828263    2.588188   -0.682389
    125          1           0        1.069328   -3.763939   -1.583800
    126          1           0        7.398243   -4.546952   -1.171729
    127          1           0        6.044926    3.497663    1.106440
    128          1           0        4.101594    4.023161   -0.950786
    129          1           0        4.175093    4.321352    1.872935
    130          1           0        2.582205    3.817625    1.260995
    131          1           0        3.470996    5.216040    0.567345
    132          1           0        6.096648    4.659817   -1.623713
    133          1           0        7.290473    3.438752   -1.505351
    134          1           0        8.573302    4.861772   -0.213806
    135          1           0        7.243651    5.150157    0.857621
    136          1           0       -1.379312    1.336445   -1.921493
    137          1           0       -0.396322    2.413846   -1.000002
    138          1           0       -1.414025    1.410636   -0.149646
    139          1           0       -2.486666   -0.664278   -1.535202
    140          1           0       -2.071671   -0.735738    0.227603
    141          1           0       -3.202789   -1.937569   -0.566599
    142          1           0        2.774170   -5.611511   -2.341632
    143          1           0        5.357042   -6.131616   -1.104097
    144          1           0        2.425846   -7.085858   -0.574065
    145          1           0        1.937915   -5.745879    0.420865
    146          1           0        3.665737   -6.271966    0.414461
    147          1           0        4.440322   -6.432053   -3.661565
    148          1           0        6.089722   -5.779171   -3.424637
    149          1           0        4.811700   -4.542603   -5.211012
    150          1           0        5.624064   -3.665898   -3.928807
    151          1           0        3.869829   -3.899273   -3.830180
    152          1           0       10.041899   -3.688566   -1.360150
    153          1           0        9.495137   -3.935515    0.304270
    154          1           0       10.686355   -2.705583    0.000195
    155          1           0        9.205281    2.118782   -0.513974
    156          1           0        9.386696    4.721232    2.950261
    157          1           0       10.909404    3.800349    3.048128
    158          1           0        9.532884    3.187383    3.873071
 ---------------------------------------------------------------------

 SCF Done:  E(RwB97XD) =  -4070.61481926     A.U. after   19 cycles

 Excitation energies and oscillator strengths:

 Excited State   1:      Singlet-A      1.6333 eV  759.09 nm  f=0.4945  <S**2>=0.000
     309 -> 315       -0.17428
     311 -> 313        0.14817
     312 -> 313        0.66786
     309 <- 315       -0.11323
 This state for optimization and/or second-order correction.
 Total Energy, E(TD-HF/TD-DFT) =  -4070.55479588
 Copying the excited state density for this state as the 1-particle RhoCI density.

 Excited State   2:      Singlet-A      1.8055 eV  686.70 nm  f=0.3165  <S**2>=0.000
     310 -> 316       -0.18390
     311 -> 314        0.66160
     312 -> 314       -0.15193
     310 <- 316       -0.10788

 Excited State   3:      Singlet-A      2.1371 eV  580.16 nm  f=0.0796  <S**2>=0.000
     309 -> 313        0.64384
     310 -> 314        0.11461
     312 -> 315        0.23931

 Excited State   4:      Singlet-A      2.1861 eV  567.16 nm  f=0.1735  <S**2>=0.000
     309 -> 313       -0.11076
     310 -> 314        0.64275
     311 -> 316        0.23695

 Excited State   5:      Singlet-A      2.8036 eV  442.24 nm  f=0.0000  <S**2>=0.000
     311 -> 313        0.68332
     312 -> 313       -0.15284

 The electronic state is 1-A.
 Alpha  occ. eigenvalues --  -46.95829 -46.95728 -19.30555 -19.30387 -19.25490
 Alpha  occ. eigenvalues --  -19.24607 -19.24279 -19.24227 -19.24083 -19.23366
 Alpha  occ. eigenvalues --  -14.46693 -14.46466 -14.46258 -14.45774 -14.44507
 Alpha  occ. eigenvalues --  -14.44289 -14.43760 -14.43365 -10.42649 -10.42531
 Alpha  occ. eigenvalues --  -10.40924 -10.39135 -10.39038 -10.38322 -10.35601
 Alpha  occ. eigenvalues --  -10.35554 -10.35497 -10.35128 -10.34915 -10.34828
 Alpha  occ. eigenvalues --  -10.34792 -10.34726 -10.34696 -10.34675 -10.34224
 Alpha  occ. eigenvalues --  -10.33892 -10.33793 -10.33657 -10.33653 -10.33615
 Alpha  occ. eigenvalues --  -10.33452 -10.33275 -10.33099 -10.32782 -10.32706
 Alpha  occ. eigenvalues --  -10.32473 -10.32367 -10.32229 -10.32111 -10.32053
 Alpha  occ. eigenvalues --  -10.32051 -10.31987 -10.31981 -10.31862 -10.31837
 Alpha  occ. eigenvalues --  -10.31818 -10.31812 -10.31695 -10.31494 -10.31436
 Alpha  occ. eigenvalues --  -10.31426 -10.31338 -10.31122 -10.30963 -10.30953
 Alpha  occ. eigenvalues --  -10.30889 -10.30630 -10.30602 -10.30498 -10.30407
 Alpha  occ. eigenvalues --  -10.30307 -10.30241 -10.30193 -10.30167 -10.30032
 Alpha  occ. eigenvalues --  -10.29973 -10.29837 -10.29742 -10.29593 -10.29539
 Alpha  occ. eigenvalues --  -10.29397 -10.29382 -10.29171 -10.29027 -10.28745
 Alpha  occ. eigenvalues --  -10.27853  -3.21693  -3.21686  -1.95273  -1.95261
 Alpha  occ. eigenvalues --   -1.94830  -1.94827  -1.94652  -1.94637  -1.19116
 Alpha  occ. eigenvalues --   -1.17860  -1.14777  -1.13881  -1.13225  -1.11877
 Alpha  occ. eigenvalues --   -1.09841  -1.09327  -1.07907  -1.07441  -1.07150
 Alpha  occ. eigenvalues --   -1.06799  -1.06272  -1.05807  -1.05579  -1.03959
 Alpha  occ. eigenvalues --   -0.94537  -0.94292  -0.91194  -0.90899  -0.90740
 Alpha  occ. eigenvalues --   -0.90630  -0.90112  -0.89979  -0.89649  -0.89638
 Alpha  occ. eigenvalues --   -0.88926  -0.88440  -0.88054  -0.87627  -0.86487
 Alpha  occ. eigenvalues --   -0.86277  -0.85377  -0.85255  -0.84371  -0.84355
 Alpha  occ. eigenvalues --   -0.83777  -0.83032  -0.82797  -0.82776  -0.82242
 Alpha  occ. eigenvalues --   -0.82002  -0.80589  -0.80140  -0.79265  -0.78930
 Alpha  occ. eigenvalues --   -0.78701  -0.78507  -0.78078  -0.77793  -0.77279
 Alpha  occ. eigenvalues --   -0.77022  -0.74990  -0.74850  -0.73786  -0.73716
 Alpha  occ. eigenvalues --   -0.71686  -0.71245  -0.71130  -0.70860  -0.70003
 Alpha  occ. eigenvalues --   -0.69758  -0.69190  -0.68871  -0.67658  -0.67377
 Alpha  occ. eigenvalues --   -0.67254  -0.67206  -0.67095  -0.66702  -0.66402
 Alpha  occ. eigenvalues --   -0.65808  -0.64278  -0.64063  -0.62860  -0.62314
 Alpha  occ. eigenvalues --   -0.61728  -0.61643  -0.61384  -0.61213  -0.60698
 Alpha  occ. eigenvalues --   -0.60497  -0.60130  -0.60067  -0.59671  -0.59487
 Alpha  occ. eigenvalues --   -0.58592  -0.57884  -0.57688  -0.57366  -0.57279
 Alpha  occ. eigenvalues --   -0.57161  -0.56615  -0.56503  -0.56345  -0.56099
 Alpha  occ. eigenvalues --   -0.55934  -0.55730  -0.55320  -0.55055  -0.54940
 Alpha  occ. eigenvalues --   -0.54899  -0.54708  -0.54306  -0.54196  -0.53971
 Alpha  occ. eigenvalues --   -0.53807  -0.53647  -0.53433  -0.53363  -0.53168
 Alpha  occ. eigenvalues --   -0.53128  -0.52735  -0.52641  -0.52526  -0.52077
 Alpha  occ. eigenvalues --   -0.51992  -0.51835  -0.51763  -0.51475  -0.51335
 Alpha  occ. eigenvalues --   -0.51247  -0.51047  -0.50959  -0.50902  -0.50787
 Alpha  occ. eigenvalues --   -0.50706  -0.50336  -0.50295  -0.50154  -0.50057
 Alpha  occ. eigenvalues --   -0.49706  -0.49579  -0.49500  -0.49371  -0.48987
 Alpha  occ. eigenvalues --   -0.48903  -0.48792  -0.48515  -0.48288  -0.48129
 Alpha  occ. eigenvalues --   -0.48016  -0.47945  -0.47800  -0.47755  -0.47482
 Alpha  occ. eigenvalues --   -0.47465  -0.47167  -0.47020  -0.46957  -0.46649
 Alpha  occ. eigenvalues --   -0.46456  -0.46366  -0.46262  -0.46167  -0.46049
 Alpha  occ. eigenvalues --   -0.45941  -0.45756  -0.45553  -0.45353  -0.45305
 Alpha  occ. eigenvalues --   -0.45265  -0.45132  -0.44994  -0.44898  -0.44747
 Alpha  occ. eigenvalues --   -0.44682  -0.44594  -0.44337  -0.44207  -0.44145
 Alpha  occ. eigenvalues --   -0.44091  -0.43934  -0.43807  -0.43655  -0.43297
 Alpha  occ. eigenvalues --   -0.43278  -0.43216  -0.42712  -0.42317  -0.42220
 Alpha  occ. eigenvalues --   -0.41699  -0.41600  -0.41345  -0.40945  -0.40853
 Alpha  occ. eigenvalues --   -0.40324  -0.40184  -0.40155  -0.39961  -0.39711
 Alpha  occ. eigenvalues --   -0.39476  -0.39113  -0.38762  -0.38385  -0.38351
 Alpha  occ. eigenvalues --   -0.38183  -0.37760  -0.36349  -0.36292  -0.36151
 Alpha  occ. eigenvalues --   -0.36039  -0.35593  -0.34891  -0.33866  -0.33770
 Alpha  occ. eigenvalues --   -0.33711  -0.33198  -0.32951  -0.32553  -0.32450
 Alpha  occ. eigenvalues --   -0.32267  -0.32172  -0.31722  -0.26054  -0.25456
 Alpha  occ. eigenvalues --   -0.23387  -0.23322
 Alpha virt. eigenvalues --   -0.07454  -0.06704   0.00500   0.00685   0.02563
 Alpha virt. eigenvalues --    0.02674   0.04573   0.04674   0.04913   0.05458
 Alpha virt. eigenvalues --    0.06483   0.07481   0.07571   0.07917   0.08728

 Mulliken charges:
               1
     1  Mg   0.882401
     2  C    0.000129
     3  C   -0.061674
     4  C   -0.076505
     5  C   -0.075830
     6  N   -0.248163
     7  C   -0.077835
     8  C   -0.051589
     9  C   -0.092406
    10  C   -0.014569
    11  C    0.034792
    12  C    0.011064
    13  C   -0.092143
    14  H    0.046651
    15  N   -0.463538
    16  C    0.152798
    17  C   -0.159136
    18  C   -0.083027
    19  C    0.117732
    20  C    0.059502
    21  C    0.080339
    22  O   -0.197422
    23  C   -0.025532
    24  N   -0.317997
    25  C    0.063946
    26  C   -0.103786
    27  C   -0.112920
    28  C    0.057818
    29  C    0.028502
    30  C   -0.010840
    31  C   -0.053012
    32  N   -0.407799
    33  C    0.090070
    34  C   -0.219995
    35  C   -0.050700
    36  C    0.153224
    37  C    0.096063
    38  C    0.137437
    39  O   -0.197956
    40  C   -0.092760
    41  C    0.255223
    42  O   -0.276575
    43  O   -0.329798
    44  C    0.153454
    45  H   -0.008425
    46  H    0.013653
    47  H    0.003058
    48  H    0.035666
    49  H    0.019259
    50  H    0.043294
    51  H    0.028278
    52  H    0.045727
    53  H    0.033148
    54  H    0.048554
    55  H    0.039676
    56  H    0.037966
    57  H    0.043771
    58  H    0.071247
    59  H    0.040507
    60  H    0.085757
    61  H    0.047788
    62  H    0.050923
    63  H    0.043880
    64  H    0.017914
    65  H    0.041675
    66  H    0.053017
    67  H    0.042441
    68  H    0.037228
    69  H    0.027967
    70  H    0.050600
    71  H    0.035295
    72  H    0.039909
    73  H    0.026008
    74  H    0.052847
    75  H    0.055708
    76  H    0.074216
    77  H    0.051414
    78  H    0.061164
    79  H    0.022560
    80  Mg   0.944889
    81  C   -0.040117
    82  C   -0.093105
    83  C   -0.065792
    84  C   -0.069562
    85  N   -0.371373
    86  C    0.007754
    87  C   -0.037292
    88  C   -0.103693
    89  C    0.073093
    90  C    0.020556
    91  C    0.015455
    92  C   -0.142011
    93  H    0.025932
    94  N   -0.444483
    95  C    0.169284
    96  C   -0.127946
    97  C   -0.075387
    98  C    0.147698
    99  C    0.020749
   100  C    0.043892
   101  O   -0.207156
   102  C   -0.092285
   103  N   -0.331571
   104  C    0.047318
   105  C   -0.087839
   106  C   -0.066865
   107  C    0.055415
   108  C    0.021934
   109  C   -0.041510
   110  C   -0.066501
   111  N   -0.411794
   112  C    0.080155
   113  C   -0.176866
   114  C   -0.085073
   115  C    0.177285
   116  C    0.073663
   117  C    0.147394
   118  O   -0.174902
   119  C   -0.066472
   120  C    0.252133
   121  O   -0.232092
   122  O   -0.381786
   123  C    0.126426
   124  H   -0.007792
   125  H    0.025544
   126  H   -0.004484
   127  H    0.039588
   128  H    0.036663
   129  H    0.028359
   130  H    0.042559
   131  H    0.032465
   132  H    0.043708
   133  H    0.033250
   134  H    0.067717
   135  H    0.035580
   136  H    0.062415
   137  H    0.038273
   138  H    0.046111
   139  H    0.073872
   140  H    0.080259
   141  H    0.109137
   142  H    0.042700
   143  H    0.039251
   144  H    0.040014
   145  H    0.053813
   146  H    0.036217
   147  H    0.044929
   148  H    0.027654
   149  H    0.048699
   150  H    0.041313
   151  H    0.039932
   152  H    0.051702
   153  H    0.040845
   154  H    0.060412
   155  H    0.063100
   156  H    0.052940
   157  H    0.061606
   158  H    0.072766
 Sum of Mulliken charges =  -0.00000

 Dipole moment (field-independent basis, Debye):
    X=             -0.8240    Y=             -1.0246    Z=              3.2830  Tot=              3.5365
 Quadrupole moment (field-independent basis, Debye-Ang):
   XX=           -540.9194   YY=           -489.8122   ZZ=           -492.4029
   XY=             11.1014   XZ=            -25.6742   YZ=             28.7268

 Normal termination of Gaussian 16 at Sun Sep 19 15:41:42 2021.
