 Gaussian 16, Revision A.03,
 Gaussian 16:  ES64L-G16RevA.03 25-Dec-2016

 --------------------------------
 #p wB97XD/Def2SVP td=(nstates=5)
 --------------------------------

 --------------------------------
 TDDFT excited states in gaussian
 --------------------------------
 Symbolic Z-matrix:
 Charge =  0 Multiplicity = 1

                         Standard orientation:
 ---------------------------------------------------------------------
 Center     Atomic      Atomic             Coordinates (Angstroms)
 Number     Number       Type             X           Y           Z
 ---------------------------------------------------------------------
      1         12           0      -15.976073    0.706384    0.429277
      2          6           0      -15.642440   -2.088770   -1.646474
      3          6           0      -13.895418    2.363293   -1.798618
      4          6           0      -15.926492    3.164968    2.556288
      5          6           0      -17.887443   -1.287679    2.646045
      6          7           0      -14.543183    0.060983   -1.331729
      7          6           0      -14.737357   -1.050131   -2.049463
      8          6           0      -13.883235   -0.957994   -3.269560
      9          6           0      -13.004640    0.298368   -3.052308
     10          6           0      -13.861702    0.995115   -2.014139
     11          6           0      -11.544064    0.142431   -2.625268
     12          6           0      -14.736991   -0.851451   -4.572867
     13          6           0      -14.407156   -1.795109   -5.774241
     14          1           0      -12.938086   -2.279735   -5.980084
     15          7           0      -15.140087    2.611988    0.312840
     16          6           0      -14.479686    3.126478   -0.795010
     17          6           0      -14.206567    4.496311   -0.504246
     18          6           0      -14.679980    4.747366    0.845716
     19          6           0      -15.291725    3.512409    1.313193
     20          6           0      -13.422479    5.450902   -1.431101
     21          6           0      -14.544412    6.021461    1.728228
     22          8           0      -14.955488    6.117491    2.840976
     23          6           0      -13.895124    7.221022    1.066515
     24          7           0      -16.809407    0.875506    2.306955
     25          6           0      -16.586823    1.997302    3.027657
     26          6           0      -17.253537    1.987863    4.430860
     27          6           0      -18.103017    0.649647    4.319132
     28          6           0      -17.618912    0.027155    3.014913
     29          6           0      -16.118959    2.022813    5.609055
     30          6           0      -19.641319    0.867258    4.471046
     31          6           0      -20.474491    0.954327    3.204875
     32          7           0      -16.707561   -1.288906    0.535010
     33          6           0      -17.528961   -1.910522    1.436371
     34          6           0      -17.786112   -3.310421    0.947006
     35          6           0      -17.057475   -3.399726   -0.260605
     36          6           0      -16.368655   -2.159936   -0.473810
     37          6           0      -18.489916   -4.425453    1.671685
     38          6           0      -16.704564   -4.276936   -1.374166
     39          8           0      -17.049389   -5.447932   -1.557027
     40          6           0      -15.929269   -3.403727   -2.356245
     41          6           0      -14.681212   -4.171701   -2.685244
     42          8           0      -13.700124   -4.255843   -1.969425
     43          8           0      -14.960134   -4.860187   -3.779876
     44          6           0      -14.114606   -5.995993   -4.112383
     45          1           0      -13.131663    2.842936   -2.413549
     46          1           0      -16.074792    4.034060    3.200117
     47          1           0      -18.489820   -1.897005    3.323496
     48          1           0      -13.281525   -1.863494   -3.341032
     49          1           0      -12.949897    0.795946   -4.020652
     50          1           0      -11.171957   -0.878276   -2.535206
     51          1           0      -11.375478    0.640980   -1.670329
     52          1           0      -10.953719    0.655549   -3.384092
     53          1           0      -14.831348    0.166980   -4.949111
     54          1           0      -15.711321   -1.111528   -4.159406
     55          1           0      -14.700261   -1.205818   -6.644022
     56          1           0      -15.041137   -2.678685   -5.704859
     57          1           0      -12.583531    5.939756   -0.935737
     58          1           0      -14.020384    6.306609   -1.745132
     59          1           0      -13.053747    4.988940   -2.347877
     60          1           0      -14.342812    7.466541    0.103279
     61          1           0      -12.824799    7.026708    0.996506
     62          1           0      -13.904237    8.076724    1.741613
     63          1           0      -17.906605    2.845866    4.589397
     64          1           0      -17.901569   -0.052416    5.128098
     65          1           0      -16.143852    1.019854    6.035358
     66          1           0      -16.388062    2.658783    6.452689
     67          1           0      -15.101006    2.160846    5.242864
     68          1           0      -19.719295    1.866404    4.899909
     69          1           0      -20.096830    0.160955    5.164826
     70          1           0      -19.883746    1.591500    2.545620
     71          1           0      -21.380800    1.427797    3.581679
     72          1           0      -20.662139    0.069493    2.597175
     73          1           0      -18.809755   -4.260932    2.700679
     74          1           0      -17.836420   -5.297248    1.706589
     75          1           0      -19.316553   -4.706847    1.020073
     76          1           0      -16.390966   -3.299582   -3.338324
     77          1           0      -13.338428   -6.320702   -3.420148
     78          1           0      -13.572728   -5.637454   -4.988091
     79          1           0      -14.717022   -6.715497   -4.667054
     80         12           0       15.882521    0.408325   -0.601091
     81          6           0       15.517094   -2.830783    0.712243
     82          6           0       12.601903    0.285113   -1.623108
     83          6           0       16.089016    3.671051   -1.108559
     84          6           0       19.171798    0.502973    0.736645
     85          7           0       14.207838   -0.986632   -0.241596
     86          6           0       14.274902   -2.285182    0.326185
     87          6           0       13.092843   -3.107325    0.014993
     88          6           0       12.198942   -2.102972   -0.832957
     89          6           0       13.060666   -0.855414   -0.947466
     90          6           0       11.690244   -2.730093   -2.153550
     91          6           0       12.287583   -3.523464    1.208018
     92          6           0       12.158223   -2.499952    2.345933
     93          1           0       10.830905   -2.372256    3.190391
     94          7           0       14.545709    1.829481   -1.315701
     95          6           0       13.317520    1.534437   -1.782778
     96          6           0       12.758543    2.723276   -2.376217
     97          6           0       13.771245    3.711969   -2.313210
     98          6           0       14.894282    3.099501   -1.585390
     99          6           0       11.361143    2.867498   -2.916344
    100          6           0       13.674766    5.124653   -2.888555
    101          8           0       12.667424    5.504389   -3.452937
    102          6           0       14.677793    6.232428   -2.758548
    103          7           0       17.295984    1.924964   -0.012050
    104          6           0       17.174655    3.233310   -0.397883
    105          6           0       18.515924    4.014258   -0.203947
    106          6           0       19.344760    3.024403    0.669467
    107          6           0       18.580781    1.738116    0.443625
    108          6           0       19.275880    4.365609   -1.505767
    109          6           0       19.279601    3.258569    2.252290
    110          6           0       20.569258    3.223465    2.989310
    111          7           0       17.134655   -0.844724    0.374957
    112          6           0       18.438648   -0.722405    0.657550
    113          6           0       19.045256   -2.084197    0.907397
    114          6           0       17.892232   -2.931584    0.877114
    115          6           0       16.743311   -2.110679    0.696095
    116          6           0       20.486684   -2.490879    1.177883
    117          6           0       17.468710   -4.275170    1.147508
    118          8           0       18.108924   -5.257186    1.488560
    119          6           0       15.892247   -4.259196    1.016378
    120          6           0       15.332569   -4.530850    2.397350
    121          8           0       15.380452   -3.826446    3.351032
    122          8           0       14.636203   -5.719590    2.345433
    123          6           0       13.802947   -5.966494    3.526554
    124          1           0       11.634555    0.166362   -2.115258
    125          1           0       16.241073    4.703209   -1.428576
    126          1           0       20.230461    0.570483    0.995692
    127          1           0       13.439121   -3.995131   -0.514140
    128          1           0       11.342879   -1.670385   -0.315249
    129          1           0       10.634419   -2.463509   -2.102717
    130          1           0       11.883127   -3.801129   -2.091033
    131          1           0       12.115062   -2.260083   -3.040747
    132          1           0       12.528853   -4.520080    1.578627
    133          1           0       11.237960   -3.731881    0.999595
    134          1           0       12.395481   -1.540786    1.884457
    135          1           0       13.009809   -2.755980    2.976537
    136          1           0       10.899017    3.790770   -2.565333
    137          1           0       10.777935    1.978947   -2.674892
    138          1           0       11.501652    2.924670   -3.996002
    139          1           0       14.829093    6.611636   -1.748411
    140          1           0       14.153548    7.045813   -3.260441
    141          1           0       15.565932    6.082165   -3.373262
    142          1           0       18.283376    4.948498    0.306987
    143          1           0       20.379503    2.919526    0.342242
    144          1           0       20.196985    3.783873   -1.536190
    145          1           0       19.321720    5.442065   -1.670002
    146          1           0       18.684909    4.020631   -2.353448
    147          1           0       18.579086    2.568167    2.721538
    148          1           0       18.845632    4.254063    2.347451
    149          1           0       20.756929    4.130425    3.563657
    150          1           0       21.430886    3.028140    2.350500
    151          1           0       20.585455    2.431740    3.737828
    152          1           0       20.488070   -2.988292    2.147784
    153          1           0       21.113301   -1.610796    1.028136
    154          1           0       20.706401   -3.275573    0.454063
    155          1           0       15.530460   -4.980936    0.284392
    156          1           0       13.443474   -5.049839    3.993924
    157          1           0       14.473487   -6.499523    4.200685
    158          1           0       13.064405   -6.705257    3.216472
 ---------------------------------------------------------------------

 SCF Done:  E(RwB97XD) =  -4070.59986948     A.U. after   19 cycles

 Excitation energies and oscillator strengths:

 Excited State   1:      Singlet-A      1.6066 eV  771.74 nm  f=0.3679  <S**2>=0.000
     309 -> 315       -0.17855
     312 -> 313        0.68535
     309 <- 315       -0.11726
 This state for optimization and/or second-order correction.
 Total Energy, E(TD-HF/TD-DFT) =  -4070.54082959
 Copying the excited state density for this state as the 1-particle RhoCI density.

 Excited State   2:      Singlet-A      1.6770 eV  739.30 nm  f=0.3991  <S**2>=0.000
     310 -> 316        0.19188
     311 -> 314        0.68155
     310 <- 316        0.11864

 Excited State   3:      Singlet-A      2.1598 eV  574.04 nm  f=0.0978  <S**2>=0.000
     310 -> 314        0.64013
     311 -> 316       -0.28506

 Excited State   4:      Singlet-A      2.2110 eV  560.75 nm  f=0.0985  <S**2>=0.000
     309 -> 313        0.62753
     312 -> 315        0.31204

 Excited State   5:      Singlet-A      3.3634 eV  368.63 nm  f=0.0023  <S**2>=0.000
     305 -> 314       -0.35366
     308 -> 314        0.58153

 The electronic state is 1-A.
 Alpha  occ. eigenvalues --  -46.95127 -46.94935 -19.31509 -19.29837 -19.25330
 Alpha  occ. eigenvalues --  -19.24637 -19.24550 -19.24180 -19.23556 -19.23252
 Alpha  occ. eigenvalues --  -14.46991 -14.46486 -14.46352 -14.46182 -14.44177
 Alpha  occ. eigenvalues --  -14.44109 -14.43950 -14.43292 -10.43077 -10.43039
 Alpha  occ. eigenvalues --  -10.39558 -10.39005 -10.38565 -10.38382 -10.35824
 Alpha  occ. eigenvalues --  -10.35317 -10.35242 -10.35194 -10.35132 -10.34970
 Alpha  occ. eigenvalues --  -10.34833 -10.34779 -10.34748 -10.34654 -10.34600
 Alpha  occ. eigenvalues --  -10.34507 -10.33993 -10.33695 -10.33624 -10.33529
 Alpha  occ. eigenvalues --  -10.33483 -10.33346 -10.33322 -10.32910 -10.32863
 Alpha  occ. eigenvalues --  -10.32560 -10.32550 -10.32454 -10.32431 -10.32399
 Alpha  occ. eigenvalues --  -10.32382 -10.32283 -10.32175 -10.32128 -10.32103
 Alpha  occ. eigenvalues --  -10.31881 -10.31874 -10.31615 -10.31520 -10.31187
 Alpha  occ. eigenvalues --  -10.31117 -10.31067 -10.31039 -10.30856 -10.30712
 Alpha  occ. eigenvalues --  -10.30622 -10.30592 -10.30538 -10.30490 -10.30421
 Alpha  occ. eigenvalues --  -10.30420 -10.30364 -10.30332 -10.30299 -10.30264
 Alpha  occ. eigenvalues --  -10.29950 -10.29944 -10.29934 -10.29797 -10.29436
 Alpha  occ. eigenvalues --  -10.29366 -10.29209 -10.29180 -10.29153 -10.29026
 Alpha  occ. eigenvalues --  -10.28888  -3.21033  -3.21005  -1.94628  -1.94558
 Alpha  occ. eigenvalues --   -1.94191  -1.94135  -1.93994  -1.93961  -1.20566
 Alpha  occ. eigenvalues --   -1.19402  -1.13510  -1.12611  -1.12190  -1.11920
 Alpha  occ. eigenvalues --   -1.11153  -1.10896  -1.07020  -1.06590  -1.06032
 Alpha  occ. eigenvalues --   -1.05775  -1.05327  -1.04672  -1.04649  -1.03853
 Alpha  occ. eigenvalues --   -0.95403  -0.95156  -0.91739  -0.91309  -0.90586
 Alpha  occ. eigenvalues --   -0.90484  -0.90295  -0.89930  -0.89447  -0.89024
 Alpha  occ. eigenvalues --   -0.88283  -0.88229  -0.87754  -0.87427  -0.86644
 Alpha  occ. eigenvalues --   -0.86379  -0.86049  -0.85614  -0.84627  -0.84502
 Alpha  occ. eigenvalues --   -0.83598  -0.83345  -0.82815  -0.82697  -0.82464
 Alpha  occ. eigenvalues --   -0.81954  -0.79882  -0.79872  -0.79438  -0.79307
 Alpha  occ. eigenvalues --   -0.78904  -0.78776  -0.78224  -0.77975  -0.77092
 Alpha  occ. eigenvalues --   -0.77030  -0.74689  -0.74689  -0.73689  -0.73651
 Alpha  occ. eigenvalues --   -0.71553  -0.71457  -0.70885  -0.70808  -0.70569
 Alpha  occ. eigenvalues --   -0.69998  -0.69088  -0.68060  -0.67787  -0.67245
 Alpha  occ. eigenvalues --   -0.67072  -0.66901  -0.66623  -0.66517  -0.66365
 Alpha  occ. eigenvalues --   -0.66334  -0.64812  -0.64092  -0.61974  -0.61832
 Alpha  occ. eigenvalues --   -0.61649  -0.61424  -0.61175  -0.61003  -0.60922
 Alpha  occ. eigenvalues --   -0.60478  -0.60104  -0.60102  -0.59395  -0.59300
 Alpha  occ. eigenvalues --   -0.58834  -0.58534  -0.58013  -0.57999  -0.57358
 Alpha  occ. eigenvalues --   -0.57050  -0.56915  -0.56738  -0.56642  -0.56558
 Alpha  occ. eigenvalues --   -0.56020  -0.55589  -0.55208  -0.54988  -0.54828
 Alpha  occ. eigenvalues --   -0.54802  -0.54446  -0.54299  -0.54206  -0.54015
 Alpha  occ. eigenvalues --   -0.53889  -0.53602  -0.53528  -0.53339  -0.53337
 Alpha  occ. eigenvalues --   -0.53138  -0.53074  -0.52994  -0.52869  -0.52130
 Alpha  occ. eigenvalues --   -0.52098  -0.51620  -0.51548  -0.51333  -0.51319
 Alpha  occ. eigenvalues --   -0.51210  -0.51100  -0.50842  -0.50754  -0.50686
 Alpha  occ. eigenvalues --   -0.50625  -0.50550  -0.50307  -0.50281  -0.50012
 Alpha  occ. eigenvalues --   -0.49882  -0.49462  -0.49253  -0.49126  -0.49042
 Alpha  occ. eigenvalues --   -0.48821  -0.48813  -0.48735  -0.48316  -0.48307
 Alpha  occ. eigenvalues --   -0.47947  -0.47924  -0.47829  -0.47820  -0.47787
 Alpha  occ. eigenvalues --   -0.47595  -0.47531  -0.47421  -0.47322  -0.47164
 Alpha  occ. eigenvalues --   -0.46954  -0.46741  -0.46599  -0.46424  -0.46293
 Alpha  occ. eigenvalues --   -0.46020  -0.45832  -0.45703  -0.45532  -0.45325
 Alpha  occ. eigenvalues --   -0.45160  -0.45148  -0.45025  -0.44899  -0.44693
 Alpha  occ. eigenvalues --   -0.44632  -0.44520  -0.44377  -0.44109  -0.44099
 Alpha  occ. eigenvalues --   -0.44078  -0.43788  -0.43705  -0.43543  -0.43103
 Alpha  occ. eigenvalues --   -0.43054  -0.42947  -0.42669  -0.42594  -0.42291
 Alpha  occ. eigenvalues --   -0.42162  -0.41760  -0.41536  -0.41191  -0.41028
 Alpha  occ. eigenvalues --   -0.40402  -0.40282  -0.39805  -0.39309  -0.39186
 Alpha  occ. eigenvalues --   -0.39072  -0.39020  -0.38785  -0.38470  -0.38426
 Alpha  occ. eigenvalues --   -0.38143  -0.37704  -0.37042  -0.36413  -0.36211
 Alpha  occ. eigenvalues --   -0.36085  -0.35338  -0.35294  -0.33575  -0.33446
 Alpha  occ. eigenvalues --   -0.33116  -0.32999  -0.32465  -0.32270  -0.32148
 Alpha  occ. eigenvalues --   -0.32070  -0.31822  -0.31069  -0.26224  -0.25715
 Alpha  occ. eigenvalues --   -0.22876  -0.22848
 Alpha virt. eigenvalues --   -0.07117  -0.06828   0.00131   0.00400   0.02219
 Alpha virt. eigenvalues --    0.02301   0.04495   0.04655   0.04992   0.05892
 Alpha virt. eigenvalues --    0.07588   0.07693   0.07779   0.07867   0.08161

 Mulliken charges:
               1
     1  Mg   0.943775
     2  C   -0.010025
     3  C   -0.053626
     4  C   -0.049908
     5  C   -0.089464
     6  N   -0.281431
     7  C    0.032731
     8  C   -0.102516
     9  C   -0.079059
    10  C   -0.023209
    11  C    0.044042
    12  C   -0.008016
    13  C   -0.108852
    14  H    0.034678
    15  N   -0.486505
    16  C    0.194361
    17  C   -0.162009
    18  C   -0.110846
    19  C    0.127582
    20  C    0.066642
    21  C    0.057506
    22  O   -0.197946
    23  C   -0.024853
    24  N   -0.388375
    25  C    0.068384
    26  C   -0.106276
    27  C   -0.052045
    28  C    0.081302
    29  C    0.014960
    30  C   -0.034385
    31  C   -0.035125
    32  N   -0.431216
    33  C    0.126616
    34  C   -0.181595
    35  C   -0.031561
    36  C    0.144939
    37  C    0.071997
    38  C    0.142817
    39  O   -0.213903
    40  C   -0.092688
    41  C    0.223798
    42  O   -0.247899
    43  O   -0.327061
    44  C    0.146655
    45  H   -0.006211
    46  H    0.024731
    47  H   -0.006549
    48  H    0.040463
    49  H    0.021001
    50  H    0.046931
    51  H    0.041514
    52  H    0.029969
    53  H    0.038474
    54  H    0.025589
    55  H    0.053003
    56  H    0.060546
    57  H    0.037231
    58  H    0.040684
    59  H    0.034255
    60  H    0.057389
    61  H    0.052131
    62  H    0.039937
    63  H    0.050024
    64  H    0.031425
    65  H    0.019122
    66  H    0.045906
    67  H    0.058998
    68  H    0.022770
    69  H    0.029625
    70  H    0.030063
    71  H    0.044297
    72  H    0.041671
    73  H    0.038408
    74  H    0.061865
    75  H    0.059392
    76  H    0.073385
    77  H    0.085450
    78  H    0.026924
    79  H    0.057194
    80  Mg   0.971170
    81  C   -0.073502
    82  C   -0.088683
    83  C   -0.070225
    84  C   -0.087627
    85  N   -0.366562
    86  C    0.021164
    87  C   -0.041302
    88  C   -0.131821
    89  C    0.060206
    90  C    0.036711
    91  C   -0.026154
    92  C   -0.106360
    93  H    0.042176
    94  N   -0.438516
    95  C    0.155044
    96  C   -0.199163
    97  C   -0.050512
    98  C    0.165414
    99  C    0.110892
   100  C    0.017544
   101  O   -0.237421
   102  C   -0.009451
   103  N   -0.357053
   104  C    0.045755
   105  C   -0.080028
   106  C   -0.111563
   107  C    0.037549
   108  C    0.042918
   109  C    0.014729
   110  C   -0.045869
   111  N   -0.434647
   112  C    0.147849
   113  C   -0.205206
   114  C   -0.044326
   115  C    0.163313
   116  C    0.102092
   117  C    0.124236
   118  O   -0.206564
   119  C   -0.072781
   120  C    0.257741
   121  O   -0.210073
   122  O   -0.374913
   123  C    0.128919
   124  H   -0.001856
   125  H   -0.030314
   126  H    0.001587
   127  H    0.040531
   128  H    0.052554
   129  H    0.037920
   130  H    0.045553
   131  H    0.046090
   132  H    0.018122
   133  H    0.023489
   134  H    0.051728
   135  H    0.057337
   136  H    0.065731
   137  H    0.021441
   138  H    0.056198
   139  H    0.066116
   140  H    0.044636
   141  H    0.054428
   142  H    0.033929
   143  H    0.029515
   144  H    0.040553
   145  H    0.046090
   146  H    0.027721
   147  H    0.057256
   148  H    0.024520
   149  H    0.038673
   150  H    0.024894
   151  H    0.035873
   152  H    0.069407
   153  H    0.037733
   154  H    0.057394
   155  H    0.064945
   156  H    0.073174
   157  H    0.055957
   158  H    0.055972
 Sum of Mulliken charges =  -0.00000

 Dipole moment (field-independent basis, Debye):
    X=              0.6642    Y=              1.8602    Z=             -3.9486  Tot=              4.4151
 Quadrupole moment (field-independent basis, Debye-Ang):
   XX=           -439.1235   YY=           -532.0923   ZZ=           -492.5283
   XY=             48.9400   XZ=            -13.7520   YZ=              4.3069

 Normal termination of Gaussian 16 at Mon Sep 20 18:46:43 2021.
