 Gaussian 16, Revision A.03,
 Gaussian 16:  ES64L-G16RevA.03 25-Dec-2016

 --------------------------------
 #p wB97XD/Def2SVP td=(nstates=5)
 --------------------------------

 --------------------------------
 TDDFT excited states in gaussian
 --------------------------------
 Symbolic Z-matrix:
 Charge =  0 Multiplicity = 1

                         Standard orientation:
 ---------------------------------------------------------------------
 Center     Atomic      Atomic             Coordinates (Angstroms)
 Number     Number       Type             X           Y           Z
 ---------------------------------------------------------------------
      1         12           0       11.236591    0.750129   -0.068252
      2          6           0       12.266606   -2.559069    0.676729
      3          6           0        8.394945    0.131000    1.683703
      4          6           0       10.668480    4.102196   -0.085102
      5          6           0       14.402484    1.336189   -1.351371
      6          7           0       10.596010   -1.035451    1.159724
      7          6           0       11.083658   -2.311318    1.261918
      8          6           0       10.161861   -3.201768    2.009140
      9          6           0        8.788417   -2.379398    2.015488
     10          6           0        9.265392   -1.024057    1.618806
     11          6           0        7.763355   -2.980401    1.067317
     12          6           0       10.814891   -3.497547    3.368437
     13          6           0       10.999874   -5.019142    3.778856
     14          1           0       10.434310   -5.570318    5.122376
     15          7           0        9.749565    1.995773    0.630087
     16          6           0        8.598310    1.506793    1.262961
     17          6           0        7.678620    2.596691    1.394267
     18          6           0        8.307204    3.797183    0.919584
     19          6           0        9.608310    3.308978    0.389187
     20          6           0        6.278942    2.373689    1.952449
     21          6           0        7.771460    5.211448    0.910200
     22          8           0        6.564510    5.295118    1.279994
     23          6           0        8.529306    6.537164    0.617009
     24          7           0       12.371972    2.519522   -0.649787
     25          6           0       11.898488    3.783612   -0.588150
     26          6           0       12.928280    4.845505   -1.056795
     27          6           0       14.093116    3.930594   -1.570380
     28          6           0       13.602355    2.479389   -1.105566
     29          6           0       12.305487    5.723044   -2.127775
     30          6           0       15.447554    4.238617   -1.008787
     31          6           0       16.415521    4.788220   -2.021162
     32          7           0       12.907182   -0.325420   -0.473477
     33          6           0       14.144636   -0.015049   -1.051528
     34          6           0       14.883442   -1.140348   -1.323449
     35          6           0       14.168813   -2.180040   -0.694190
     36          6           0       13.024799   -1.619748   -0.130513
     37          6           0       16.095407   -1.150548   -2.230856
     38          6           0       14.143654   -3.653131   -0.491928
     39          8           0       14.907685   -4.481431   -0.880074
     40          6           0       12.923896   -3.855483    0.484556
     41          6           0       12.199594   -5.104623    0.032143
     42          8           0       12.267844   -6.196432    0.596715
     43          8           0       11.394180   -4.824218   -1.098314
     44          6           0       10.576476   -5.969056   -1.498238
     45          1           0        7.393645   -0.112663    2.045624
     46          1           0       10.487688    5.173304   -0.202102
     47          1           0       15.468478    1.485760   -1.531547
     48          1           0       10.044505   -4.139654    1.466131
     49          1           0        8.377129   -2.415142    3.023929
     50          1           0        8.202242   -3.366875    0.148495
     51          1           0        7.096323   -2.183700    0.736333
     52          1           0        7.124715   -3.733042    1.529615
     53          1           0       10.206811   -3.005535    4.127420
     54          1           0       11.771216   -2.995895    3.516404
     55          1           0       12.088295   -5.068846    3.819367
     56          1           0       10.777666   -5.674798    2.937753
     57          1           0        6.315236    1.829921    2.896442
     58          1           0        5.760806    1.749182    1.224794
     59          1           0        5.700387    3.255943    2.229740
     60          1           0        8.733737    6.473418   -0.451274
     61          1           0        9.453682    6.542842    1.194705
     62          1           0        7.951010    7.419844    0.891342
     63          1           0       13.265884    5.516431   -0.267274
     64          1           0       14.071948    3.879267   -2.658663
     65          1           0       11.350977    6.084201   -1.744548
     66          1           0       12.141083    5.109957   -3.014468
     67          1           0       12.883731    6.544028   -2.550018
     68          1           0       15.961572    3.366982   -0.603638
     69          1           0       15.484148    4.930513   -0.167565
     70          1           0       16.804441    5.729360   -1.634410
     71          1           0       15.935844    5.055672   -2.962693
     72          1           0       17.215893    4.099866   -2.294681
     73          1           0       16.248853   -2.192482   -2.513639
     74          1           0       16.988345   -0.773085   -1.733144
     75          1           0       15.818637   -0.509088   -3.067235
     76          1           0       13.423118   -4.175174    1.399987
     77          1           0        9.673008   -5.633683   -2.007701
     78          1           0       10.166246   -6.486443   -0.632148
     79          1           0       11.123455   -6.696424   -2.098744
     80         12           0      -11.821240    0.380048   -0.401098
     81          6           0       -9.508725   -2.214393   -0.280443
     82          6           0      -14.336321   -2.000373   -0.223207
     83          6           0      -14.095011    2.737246    0.044764
     84          6           0       -9.239623    2.661345   -0.070245
     85          7           0      -11.919622   -1.820659   -0.105279
     86          6           0      -10.850898   -2.685243   -0.224520
     87          6           0      -11.269911   -4.124403   -0.284101
     88          6           0      -12.814707   -3.992991   -0.646906
     89          6           0      -13.080015   -2.540179   -0.275144
     90          6           0      -13.408328   -4.514513   -2.040722
     91          6           0      -10.925162   -4.992621    1.013342
     92          6           0      -10.937731   -4.269930    2.393198
     93          1           0      -11.563542   -5.072275    3.508637
     94          7           0      -13.922791    0.378245   -0.007391
     95          6           0      -14.783608   -0.726242    0.010517
     96          6           0      -16.130711   -0.339980    0.329507
     97          6           0      -16.092463    1.070498    0.439830
     98          6           0      -14.679048    1.482565    0.190003
     99          6           0      -17.271294   -1.352308    0.212470
    100          6           0      -17.364533    1.898948    0.730762
    101          8           0      -18.451884    1.366504    0.975572
    102          6           0      -17.215459    3.359499    0.643015
    103          7           0      -11.618899    2.385510    0.057823
    104          6           0      -12.739270    3.186281   -0.087148
    105          6           0      -12.407097    4.694686   -0.077927
    106          6           0      -10.840647    4.581688    0.126156
    107          6           0      -10.539573    3.149587    0.088075
    108          6           0      -12.785646    5.538360   -1.254088
    109          6           0      -10.345006    5.192118    1.533332
    110          6           0       -9.137027    6.072826    1.347261
    111          7           0       -9.738399    0.316625   -0.404253
    112          6           0       -8.817448    1.337754   -0.260564
    113          6           0       -7.444501    0.782995   -0.268945
    114          6           0       -7.673490   -0.636952   -0.279702
    115          6           0       -9.057281   -0.833710   -0.355245
    116          6           0       -6.147255    1.434356   -0.008688
    117          6           0       -7.079985   -1.988068   -0.190237
    118          8           0       -5.926934   -2.308657   -0.016794
    119          6           0       -8.228933   -3.046508   -0.228453
    120          6           0       -8.015047   -3.989057   -1.327256
    121          8           0       -7.831975   -5.206376   -1.302120
    122          8           0       -7.757537   -3.213320   -2.487919
    123          6           0       -7.569117   -3.982793   -3.736405
    124          1           0      -15.084648   -2.771029   -0.422154
    125          1           0      -14.756924    3.604028   -0.007940
    126          1           0       -8.500860    3.464236   -0.040905
    127          1           0      -10.734777   -4.640232   -1.081302
    128          1           0      -13.251102   -4.613647    0.136088
    129          1           0      -12.709284   -5.048428   -2.684195
    130          1           0      -13.761402   -3.716629   -2.693907
    131          1           0      -14.140811   -5.298536   -1.846727
    132          1           0       -9.985633   -5.527299    0.877605
    133          1           0      -11.657649   -5.799441    1.036720
    134          1           0      -11.432275   -3.301159    2.316107
    135          1           0       -9.915651   -4.068239    2.712596
    136          1           0      -18.092667   -1.172345    0.906774
    137          1           0      -16.905918   -2.336593    0.504188
    138          1           0      -17.639159   -1.264861   -0.810118
    139          1           0      -17.072826    3.630019   -0.402780
    140          1           0      -16.388380    3.683800    1.275357
    141          1           0      -18.162662    3.759999    1.004158
    142          1           0      -12.760172    5.098582    0.871206
    143          1           0      -10.455186    4.981305   -0.811814
    144          1           0      -12.271298    6.489184   -1.113556
    145          1           0      -13.845901    5.769548   -1.151376
    146          1           0      -12.550144    5.022976   -2.185982
    147          1           0      -10.158750    4.340451    2.187477
    148          1           0      -11.085338    5.723929    2.132320
    149          1           0       -8.283229    5.565869    1.796203
    150          1           0       -9.168535    6.960099    1.980474
    151          1           0       -8.909870    6.168450    0.285687
    152          1           0       -6.183654    2.508409    0.179452
    153          1           0       -5.565382    1.311889   -0.921551
    154          1           0       -5.891248    0.979781    0.948140
    155          1           0       -8.171394   -3.544319    0.739238
    156          1           0       -8.179766   -3.417896   -4.441680
    157          1           0       -7.859412   -5.031511   -3.800433
    158          1           0       -6.552629   -3.742851   -4.048854
 ---------------------------------------------------------------------

 SCF Done:  E(RwB97XD) =  -4070.60885737     A.U. after   20 cycles

 Excitation energies and oscillator strengths:

 Excited State   1:      Singlet-A      1.6240 eV  763.45 nm  f=0.4528  <S**2>=0.000
     309 -> 316       -0.17769
     311 -> 313        0.67840
     309 <- 316       -0.11626
 This state for optimization and/or second-order correction.
 Total Energy, E(TD-HF/TD-DFT) =  -4070.54917618
 Copying the excited state density for this state as the 1-particle RhoCI density.

 Excited State   2:      Singlet-A      1.6620 eV  746.00 nm  f=0.2935  <S**2>=0.000
     310 -> 315        0.18614
     312 -> 314        0.67505
     310 <- 315        0.11373

 Excited State   3:      Singlet-A      2.1479 eV  577.24 nm  f=0.0749  <S**2>=0.000
     310 -> 314        0.62761
     312 -> 315       -0.30640

 Excited State   4:      Singlet-A      2.1632 eV  573.15 nm  f=0.1632  <S**2>=0.000
     309 -> 313        0.64565
     311 -> 316        0.26972

 Excited State   5:      Singlet-A      3.5516 eV  349.09 nm  f=0.0000  <S**2>=0.000
     312 -> 313        0.70692

 The electronic state is 1-A.
 Alpha  occ. eigenvalues --  -46.95459 -46.95297 -19.30769 -19.29607 -19.25879
 Alpha  occ. eigenvalues --  -19.25515 -19.24810 -19.24067 -19.23894 -19.23314
 Alpha  occ. eigenvalues --  -14.46917 -14.46852 -14.46793 -14.46752 -14.44634
 Alpha  occ. eigenvalues --  -14.44268 -14.43781 -14.43543 -10.44164 -10.43626
 Alpha  occ. eigenvalues --  -10.39629 -10.39420 -10.39162 -10.39083 -10.35983
 Alpha  occ. eigenvalues --  -10.35692 -10.35302 -10.35221 -10.35058 -10.35057
 Alpha  occ. eigenvalues --  -10.34828 -10.34739 -10.34676 -10.34669 -10.34651
 Alpha  occ. eigenvalues --  -10.34475 -10.34143 -10.34089 -10.33404 -10.32990
 Alpha  occ. eigenvalues --  -10.32956 -10.32804 -10.32798 -10.32645 -10.32629
 Alpha  occ. eigenvalues --  -10.32579 -10.32485 -10.32482 -10.32397 -10.32394
 Alpha  occ. eigenvalues --  -10.32393 -10.32354 -10.32323 -10.32290 -10.32290
 Alpha  occ. eigenvalues --  -10.32175 -10.32113 -10.31986 -10.31797 -10.31717
 Alpha  occ. eigenvalues --  -10.31494 -10.31432 -10.31324 -10.31222 -10.31213
 Alpha  occ. eigenvalues --  -10.31082 -10.31026 -10.31019 -10.30885 -10.30836
 Alpha  occ. eigenvalues --  -10.30826 -10.30749 -10.30745 -10.30337 -10.30329
 Alpha  occ. eigenvalues --  -10.30120 -10.30085 -10.30062 -10.29912 -10.29903
 Alpha  occ. eigenvalues --  -10.29831 -10.29546 -10.29453 -10.29231 -10.29062
 Alpha  occ. eigenvalues --  -10.28972  -3.21428  -3.21302  -1.94999  -1.94871
 Alpha  occ. eigenvalues --   -1.94566  -1.94431  -1.94390  -1.94275  -1.17666
 Alpha  occ. eigenvalues --   -1.16999  -1.14210  -1.12628  -1.11599  -1.10083
 Alpha  occ. eigenvalues --   -1.09806  -1.09139  -1.07195  -1.07065  -1.06225
 Alpha  occ. eigenvalues --   -1.05732  -1.05326  -1.05226  -1.04738  -1.04399
 Alpha  occ. eigenvalues --   -0.95215  -0.94445  -0.91735  -0.91505  -0.91197
 Alpha  occ. eigenvalues --   -0.91173  -0.90858  -0.89892  -0.89721  -0.89571
 Alpha  occ. eigenvalues --   -0.88902  -0.88819  -0.88164  -0.87842  -0.86734
 Alpha  occ. eigenvalues --   -0.86716  -0.86365  -0.86142  -0.84667  -0.84491
 Alpha  occ. eigenvalues --   -0.84286  -0.83811  -0.82806  -0.82599  -0.82376
 Alpha  occ. eigenvalues --   -0.82118  -0.80236  -0.79710  -0.79465  -0.79316
 Alpha  occ. eigenvalues --   -0.78772  -0.78739  -0.78349  -0.78160  -0.77711
 Alpha  occ. eigenvalues --   -0.77392  -0.75456  -0.74637  -0.74138  -0.74133
 Alpha  occ. eigenvalues --   -0.71368  -0.71310  -0.71232  -0.70870  -0.70091
 Alpha  occ. eigenvalues --   -0.69583  -0.69190  -0.68833  -0.68346  -0.68194
 Alpha  occ. eigenvalues --   -0.67595  -0.67310  -0.66909  -0.66875  -0.66526
 Alpha  occ. eigenvalues --   -0.65999  -0.65034  -0.64548  -0.62467  -0.62257
 Alpha  occ. eigenvalues --   -0.61986  -0.61543  -0.61408  -0.60945  -0.60904
 Alpha  occ. eigenvalues --   -0.60283  -0.60022  -0.59522  -0.59211  -0.58751
 Alpha  occ. eigenvalues --   -0.58300  -0.58167  -0.57772  -0.57715  -0.57562
 Alpha  occ. eigenvalues --   -0.57354  -0.57058  -0.56784  -0.56559  -0.56241
 Alpha  occ. eigenvalues --   -0.55816  -0.55762  -0.55469  -0.55098  -0.54866
 Alpha  occ. eigenvalues --   -0.54657  -0.54566  -0.54565  -0.54180  -0.54115
 Alpha  occ. eigenvalues --   -0.53954  -0.53917  -0.53620  -0.53547  -0.53056
 Alpha  occ. eigenvalues --   -0.52978  -0.52748  -0.52736  -0.52422  -0.52379
 Alpha  occ. eigenvalues --   -0.52236  -0.52184  -0.51930  -0.51759  -0.51558
 Alpha  occ. eigenvalues --   -0.51531  -0.51502  -0.51265  -0.50805  -0.50771
 Alpha  occ. eigenvalues --   -0.50514  -0.50492  -0.50204  -0.50189  -0.50110
 Alpha  occ. eigenvalues --   -0.49845  -0.49689  -0.49619  -0.49213  -0.49097
 Alpha  occ. eigenvalues --   -0.48882  -0.48784  -0.48494  -0.48470  -0.48361
 Alpha  occ. eigenvalues --   -0.48223  -0.48155  -0.47882  -0.47762  -0.47668
 Alpha  occ. eigenvalues --   -0.47621  -0.47358  -0.47325  -0.47184  -0.47062
 Alpha  occ. eigenvalues --   -0.47059  -0.46907  -0.46866  -0.46729  -0.46638
 Alpha  occ. eigenvalues --   -0.46582  -0.45926  -0.45865  -0.45830  -0.45575
 Alpha  occ. eigenvalues --   -0.45361  -0.45181  -0.45143  -0.45058  -0.44753
 Alpha  occ. eigenvalues --   -0.44559  -0.44462  -0.44349  -0.44305  -0.44258
 Alpha  occ. eigenvalues --   -0.44070  -0.43965  -0.43933  -0.43679  -0.43593
 Alpha  occ. eigenvalues --   -0.43583  -0.43406  -0.43363  -0.43131  -0.42948
 Alpha  occ. eigenvalues --   -0.42383  -0.41981  -0.41872  -0.41024  -0.40897
 Alpha  occ. eigenvalues --   -0.40614  -0.40438  -0.40091  -0.39969  -0.39670
 Alpha  occ. eigenvalues --   -0.39430  -0.39404  -0.39184  -0.38907  -0.38558
 Alpha  occ. eigenvalues --   -0.38296  -0.37685  -0.37300  -0.37157  -0.36790
 Alpha  occ. eigenvalues --   -0.36621  -0.35579  -0.35413  -0.33914  -0.33507
 Alpha  occ. eigenvalues --   -0.33147  -0.33049  -0.32814  -0.32502  -0.32176
 Alpha  occ. eigenvalues --   -0.32105  -0.31894  -0.31840  -0.26258  -0.26025
 Alpha  occ. eigenvalues --   -0.23397  -0.23028
 Alpha virt. eigenvalues --   -0.07628  -0.07015  -0.00320   0.00143   0.02379
 Alpha virt. eigenvalues --    0.02712   0.04500   0.04551   0.04849   0.05071
 Alpha virt. eigenvalues --    0.06187   0.06357   0.07455   0.07523   0.08244

 Mulliken charges:
               1
     1  Mg   0.972094
     2  C    0.037750
     3  C   -0.077414
     4  C   -0.047594
     5  C   -0.093301
     6  N   -0.359287
     7  C   -0.051847
     8  C   -0.053809
     9  C   -0.082044
    10  C    0.068360
    11  C    0.030441
    12  C    0.005083
    13  C   -0.116248
    14  H    0.048180
    15  N   -0.473530
    16  C    0.150624
    17  C   -0.148651
    18  C   -0.063380
    19  C    0.180461
    20  C    0.070495
    21  C    0.021497
    22  O   -0.276366
    23  C    0.023652
    24  N   -0.303376
    25  C    0.005086
    26  C   -0.045708
    27  C   -0.065042
    28  C    0.055510
    29  C    0.009449
    30  C   -0.002717
    31  C   -0.061462
    32  N   -0.466363
    33  C    0.108555
    34  C   -0.190748
    35  C   -0.079791
    36  C    0.147632
    37  C    0.086690
    38  C    0.122373
    39  O   -0.159577
    40  C   -0.057520
    41  C    0.245590
    42  O   -0.241395
    43  O   -0.390744
    44  C    0.139917
    45  H    0.006431
    46  H   -0.060736
    47  H    0.006749
    48  H    0.035450
    49  H    0.038805
    50  H    0.037938
    51  H    0.024923
    52  H    0.048323
    53  H    0.031421
    54  H    0.047438
    55  H    0.050399
    56  H    0.054933
    57  H    0.034508
    58  H    0.047455
    59  H    0.064868
    60  H    0.062797
    61  H    0.064219
    62  H    0.063159
    63  H    0.043305
    64  H    0.042983
    65  H    0.033343
    66  H    0.024370
    67  H    0.039946
    68  H    0.030966
    69  H    0.026527
    70  H    0.031174
    71  H    0.020766
    72  H    0.039920
    73  H    0.062246
    74  H    0.051890
    75  H    0.046360
    76  H    0.069811
    77  H    0.047558
    78  H    0.044225
    79  H    0.064007
    80  Mg   0.956392
    81  C   -0.040975
    82  C   -0.109790
    83  C   -0.099601
    84  C   -0.098424
    85  N   -0.351209
    86  C    0.005756
    87  C   -0.079447
    88  C   -0.049995
    89  C    0.025438
    90  C    0.014898
    91  C   -0.014165
    92  C   -0.131222
    93  H    0.040668
    94  N   -0.438429
    95  C    0.180583
    96  C   -0.147204
    97  C   -0.106964
    98  C    0.206987
    99  C    0.079807
   100  C    0.051257
   101  O   -0.236316
   102  C   -0.010335
   103  N   -0.368935
   104  C    0.022452
   105  C   -0.081672
   106  C   -0.120633
   107  C    0.043091
   108  C    0.052807
   109  C   -0.004626
   110  C   -0.029223
   111  N   -0.430779
   112  C    0.160513
   113  C   -0.200343
   114  C   -0.051454
   115  C    0.127630
   116  C    0.085746
   117  C    0.113341
   118  O   -0.186726
   119  C   -0.040799
   120  C    0.283600
   121  O   -0.240074
   122  O   -0.406646
   123  C    0.140524
   124  H   -0.005371
   125  H   -0.020513
   126  H   -0.017445
   127  H    0.039045
   128  H    0.033403
   129  H    0.033316
   130  H    0.047827
   131  H    0.043641
   132  H    0.053231
   133  H    0.034509
   134  H    0.067948
   135  H    0.053276
   136  H    0.060305
   137  H    0.036780
   138  H    0.064850
   139  H    0.070834
   140  H    0.065214
   141  H    0.051351
   142  H    0.031742
   143  H    0.032461
   144  H    0.042927
   145  H    0.037323
   146  H    0.047602
   147  H    0.039933
   148  H    0.030723
   149  H    0.027558
   150  H    0.038832
   151  H    0.043377
   152  H    0.019529
   153  H    0.066758
   154  H    0.074751
   155  H    0.069218
   156  H    0.037473
   157  H    0.075497
   158  H    0.056593
 Sum of Mulliken charges =  -0.00000

 Dipole moment (field-independent basis, Debye):
    X=             -2.0850    Y=              7.9964    Z=             -4.8610  Tot=              9.5875
 Quadrupole moment (field-independent basis, Debye-Ang):
   XX=           -547.5520   YY=           -499.1919   ZZ=           -496.1020
   XY=             60.2852   XZ=             21.3832   YZ=              1.4228

 Normal termination of Gaussian 16 at Sun Sep 19 20:14:28 2021.
