 Gaussian 16, Revision A.03,
 Gaussian 16:  ES64L-G16RevA.03 25-Dec-2016

 --------------------------------
 #p wB97XD/Def2SVP td=(nstates=5)
 --------------------------------

 --------------------------------
 TDDFT excited states in gaussian
 --------------------------------
 Symbolic Z-matrix:
 Charge =  0 Multiplicity = 1

                         Standard orientation:
 ---------------------------------------------------------------------
 Center     Atomic      Atomic             Coordinates (Angstroms)
 Number     Number       Type             X           Y           Z
 ---------------------------------------------------------------------
      1         12           0      -20.279529    0.702536    0.206038
      2          6           0      -19.292443   -1.885694   -1.783026
      3          6           0      -20.599878   -1.587519    2.883154
      4          6           0      -21.474080    3.168586    2.130844
      5          6           0      -19.868714    2.843383   -2.448539
      6          7           0      -20.291127   -1.506523    0.449975
      7          6           0      -19.729075   -2.352880   -0.514306
      8          6           0      -19.652028   -3.825645   -0.021374
      9          6           0      -20.149759   -3.619898    1.434005
     10          6           0      -20.436321   -2.139491    1.608949
     11          6           0      -21.337580   -4.484639    2.036768
     12          6           0      -18.226052   -4.530384   -0.088358
     13          6           0      -18.268869   -5.980740    0.463112
     14          1           0      -18.141577   -7.045495   -0.627273
     15          7           0      -20.912391    0.778966    2.291422
     16          6           0      -20.729415   -0.215600    3.227952
     17          6           0      -21.276470    0.309543    4.473486
     18          6           0      -21.535406    1.698008    4.237131
     19          6           0      -21.293597    1.962262    2.853672
     20          6           0      -21.379693   -0.543280    5.678748
     21          6           0      -22.144052    2.652384    5.323088
     22          8           0      -22.570374    3.798602    5.075375
     23          6           0      -22.308969    2.170002    6.740691
     24          7           0      -20.631084    2.601401   -0.101064
     25          6           0      -21.162580    3.497397    0.868721
     26          6           0      -21.582259    4.801059    0.228233
     27          6           0      -20.660413    4.803041   -0.989710
     28          6           0      -20.300948    3.338707   -1.197622
     29          6           0      -23.099838    4.833571   -0.155365
     30          6           0      -19.350027    5.584868   -0.746973
     31          6           0      -19.349312    7.072299   -0.977265
     32          7           0      -19.740398    0.609641   -1.781732
     33          6           0      -19.465306    1.547484   -2.702531
     34          6           0      -19.049601    0.912447   -3.918162
     35          6           0      -18.941125   -0.429575   -3.621458
     36          6           0      -19.334178   -0.568053   -2.281205
     37          6           0      -18.722457    1.679288   -5.151803
     38          6           0      -18.583501   -1.669106   -4.166634
     39          8           0      -18.158279   -1.978632   -5.262881
     40          6           0      -18.798505   -2.703771   -2.964642
     41          6           0      -19.749163   -3.750212   -3.427716
     42          8           0      -20.920734   -3.610496   -3.682041
     43          8           0      -19.186254   -4.961908   -3.399334
     44          6           0      -20.071043   -6.123208   -3.799076
     45          1           0      -20.523612   -2.318221    3.690881
     46          1           0      -21.855889    3.984207    2.748189
     47          1           0      -19.593501    3.473466   -3.296477
     48          1           0      -20.377362   -4.414977   -0.582428
     49          1           0      -19.326379   -3.796792    2.126646
     50          1           0      -21.248347   -4.762057    3.087427
     51          1           0      -21.581680   -5.300877    1.356630
     52          1           0      -22.183827   -3.797826    2.045496
     53          1           0      -17.581675   -3.843617    0.459113
     54          1           0      -17.898591   -4.536776   -1.127906
     55          1           0      -19.138452   -6.107665    1.107953
     56          1           0      -17.384401   -6.098058    1.088565
     57          1           0      -22.437808   -0.716801    5.875603
     58          1           0      -20.783304   -0.046848    6.444254
     59          1           0      -20.876303   -1.497398    5.522013
     60          1           0      -22.686878    2.979061    7.365765
     61          1           0      -21.285096    2.007830    7.080356
     62          1           0      -22.897553    1.265391    6.891230
     63          1           0      -21.398720    5.644527    0.894375
     64          1           0      -21.136787    5.183806   -1.892908
     65          1           0      -23.296235    4.218243   -1.032513
     66          1           0      -23.424387    5.860010   -0.328270
     67          1           0      -23.624605    4.447157    0.717670
     68          1           0      -18.503241    5.173922   -1.295214
     69          1           0      -19.006768    5.409003    0.272606
     70          1           0      -19.078770    7.533014   -0.027615
     71          1           0      -20.407463    7.299333   -1.108077
     72          1           0      -18.756394    7.399063   -1.831688
     73          1           0      -17.647293    1.838191   -5.225024
     74          1           0      -19.288238    2.586954   -5.364124
     75          1           0      -18.971581    1.008209   -5.973991
     76          1           0      -17.835041   -3.155389   -2.727142
     77          1           0      -20.986930   -6.040392   -3.213519
     78          1           0      -19.638166   -7.095325   -3.561609
     79          1           0      -20.274486   -6.032717   -4.866319
     80         12           0       20.647316    0.551051   -0.462515
     81          6           0       18.364975   -2.067080   -0.094689
     82          6           0       23.070187   -1.613957    0.855384
     83          6           0       22.812568    3.091801   -0.227452
     84          6           0       18.002845    2.737262   -0.728138
     85          7           0       20.758774   -1.687690    0.219420
     86          6           0       19.640667   -2.456628    0.303080
     87          6           0       19.991486   -3.883301    0.884749
     88          6           0       21.486515   -3.617809    1.424676
     89          6           0       21.802862   -2.223449    0.858193
     90          6           0       21.403298   -3.496052    2.987766
     91          6           0       19.997568   -4.892523   -0.321684
     92          6           0       20.447248   -6.350466   -0.031855
     93          1           0       21.365726   -7.229719   -0.827258
     94          7           0       22.679433    0.645028    0.024397
     95          6           0       23.548157   -0.344904    0.513317
     96          6           0       24.804008    0.246619    0.712967
     97          6           0       24.802345    1.548939    0.231505
     98          6           0       23.395728    1.811804   -0.024036
     99          6           0       25.955899   -0.578698    1.185187
    100          6           0       25.948536    2.609845    0.142572
    101          8           0       25.824982    3.737994   -0.322137
    102          6           0       27.408395    2.255777    0.438862
    103          7           0       20.397280    2.607765   -0.360798
    104          6           0       21.466036    3.433796   -0.412493
    105          6           0       21.098370    4.903158   -0.697391
    106          6           0       19.547203    4.812435   -0.717773
    107          6           0       19.269002    3.319990   -0.720734
    108          6           0       21.781370    5.940764    0.254188
    109          6           0       18.804558    5.587170   -1.840740
    110          6           0       18.854652    4.999455   -3.187019
    111          7           0       18.600506    0.416489   -0.521181
    112          6           0       17.676119    1.342286   -0.630730
    113          6           0       16.333001    0.765457   -0.748779
    114          6           0       16.610187   -0.623233   -0.539030
    115          6           0       17.971750   -0.781753   -0.369739
    116          6           0       15.135863    1.338238   -1.350324
    117          6           0       15.967460   -1.924361   -0.479138
    118          8           0       14.820828   -2.248840   -0.689873
    119          6           0       17.105410   -2.884678   -0.112419
    120          6           0       16.802143   -3.660246    1.173830
    121          8           0       16.916671   -3.207032    2.282896
    122          8           0       16.315575   -4.904315    0.850429
    123          6           0       16.006089   -5.720759    2.046765
    124          1           0       23.840261   -2.331969    1.142071
    125          1           0       23.515571    3.915345   -0.370758
    126          1           0       17.380381    3.603334   -0.959593
    127          1           0       19.351285   -4.162608    1.721935
    128          1           0       22.213596   -4.380612    1.143354
    129          1           0       21.498271   -2.493683    3.404074
    130          1           0       22.293735   -3.903034    3.467549
    131          1           0       20.503476   -3.934850    3.418425
    132          1           0       20.620325   -4.456676   -1.102440
    133          1           0       18.994164   -4.880790   -0.748153
    134          1           0       19.510590   -6.876532    0.154929
    135          1           0       20.998551   -6.202914    0.895975
    136          1           0       25.728176   -1.619435    1.417187
    137          1           0       26.465146   -0.020290    1.971842
    138          1           0       26.618058   -0.610239    0.319504
    139          1           0       27.599171    2.017411    1.485288
    140          1           0       28.136105    2.976815    0.066174
    141          1           0       27.639905    1.385294   -0.175234
    142          1           0       21.536074    4.962565   -1.693488
    143          1           0       19.250015    5.182620    0.263424
    144          1           0       22.746725    5.574722    0.602196
    145          1           0       21.144554    6.102223    1.124352
    146          1           0       21.987203    6.892212   -0.236638
    147          1           0       19.331607    6.540629   -1.824965
    148          1           0       17.784587    5.805159   -1.523541
    149          1           0       18.080803    4.237518   -3.278990
    150          1           0       19.850064    4.616765   -3.411573
    151          1           0       18.593297    5.725199   -3.957716
    152          1           0       15.509460    2.087002   -2.049208
    153          1           0       14.442884    1.914599   -0.737186
    154          1           0       14.603959    0.513668   -1.823763
    155          1           0       17.232762   -3.578389   -0.944125
    156          1           0       15.135054   -6.337075    1.824958
    157          1           0       15.630689   -5.178086    2.914596
    158          1           0       16.826337   -6.399107    2.279320
 ---------------------------------------------------------------------

 SCF Done:  E(RwB97XD) =  -4070.64832193     A.U. after   19 cycles

 Excitation energies and oscillator strengths:

 Excited State   1:      Singlet-A      1.5970 eV  776.35 nm  f=0.3905  <S**2>=0.000
     309 -> 315       -0.16564
     311 -> 313        0.68828
     309 <- 315       -0.11237
 This state for optimization and/or second-order correction.
 Total Energy, E(TD-HF/TD-DFT) =  -4070.58963275
 Copying the excited state density for this state as the 1-particle RhoCI density.

 Excited State   2:      Singlet-A      1.6939 eV  731.93 nm  f=0.3893  <S**2>=0.000
     310 -> 316       -0.19055
     312 -> 314        0.68142
     310 <- 316       -0.11527

 Excited State   3:      Singlet-A      2.1950 eV  564.86 nm  f=0.1041  <S**2>=0.000
     309 -> 313        0.63719
     311 -> 315        0.28944

 Excited State   4:      Singlet-A      2.2137 eV  560.08 nm  f=0.1138  <S**2>=0.000
     310 -> 314        0.64263
     312 -> 316        0.27812

 Excited State   5:      Singlet-A      3.2156 eV  385.57 nm  f=0.0019  <S**2>=0.000
     308 -> 313        0.67727

 The electronic state is 1-A.
 Alpha  occ. eigenvalues --  -46.95059 -46.93840 -19.31031 -19.30136 -19.25354
 Alpha  occ. eigenvalues --  -19.24506 -19.24474 -19.23862 -19.23684 -19.23535
 Alpha  occ. eigenvalues --  -14.47322 -14.46866 -14.46350 -14.45627 -14.43797
 Alpha  occ. eigenvalues --  -14.43703 -14.43466 -14.43416 -10.43648 -10.42363
 Alpha  occ. eigenvalues --  -10.40207 -10.39151 -10.38986 -10.38500 -10.36122
 Alpha  occ. eigenvalues --  -10.36052 -10.35575 -10.35388 -10.35138 -10.34693
 Alpha  occ. eigenvalues --  -10.34577 -10.34509 -10.34471 -10.34010 -10.33951
 Alpha  occ. eigenvalues --  -10.33751 -10.33581 -10.33524 -10.33445 -10.33238
 Alpha  occ. eigenvalues --  -10.33018 -10.33007 -10.32766 -10.32684 -10.32657
 Alpha  occ. eigenvalues --  -10.32657 -10.32635 -10.32583 -10.32255 -10.32131
 Alpha  occ. eigenvalues --  -10.32013 -10.31853 -10.31776 -10.31738 -10.31698
 Alpha  occ. eigenvalues --  -10.31662 -10.31578 -10.31535 -10.31501 -10.31384
 Alpha  occ. eigenvalues --  -10.31378 -10.31333 -10.31163 -10.31142 -10.31020
 Alpha  occ. eigenvalues --  -10.30918 -10.30710 -10.30652 -10.30394 -10.30363
 Alpha  occ. eigenvalues --  -10.30262 -10.30107 -10.30072 -10.29986 -10.29882
 Alpha  occ. eigenvalues --  -10.29721 -10.29663 -10.29575 -10.29496 -10.29476
 Alpha  occ. eigenvalues --  -10.29335 -10.29116 -10.29084 -10.28940 -10.28878
 Alpha  occ. eigenvalues --  -10.28316  -3.21065  -3.20025  -1.94640  -1.94203
 Alpha  occ. eigenvalues --   -1.94021  -1.93624  -1.93169  -1.93001  -1.19086
 Alpha  occ. eigenvalues --   -1.19007  -1.12717  -1.12661  -1.12520  -1.10981
 Alpha  occ. eigenvalues --   -1.10441  -1.09340  -1.07503  -1.06973  -1.05916
 Alpha  occ. eigenvalues --   -1.05812  -1.05369  -1.05079  -1.04515  -1.03959
 Alpha  occ. eigenvalues --   -0.95809  -0.95342  -0.91293  -0.90927  -0.90654
 Alpha  occ. eigenvalues --   -0.90533  -0.90524  -0.90106  -0.89857  -0.89472
 Alpha  occ. eigenvalues --   -0.89147  -0.89100  -0.88468  -0.88123  -0.86267
 Alpha  occ. eigenvalues --   -0.85992  -0.85828  -0.85526  -0.84404  -0.84313
 Alpha  occ. eigenvalues --   -0.83483  -0.83478  -0.83152  -0.82869  -0.82563
 Alpha  occ. eigenvalues --   -0.82380  -0.80514  -0.80326  -0.79531  -0.79462
 Alpha  occ. eigenvalues --   -0.79128  -0.78525  -0.78133  -0.78061  -0.77120
 Alpha  occ. eigenvalues --   -0.76818  -0.75214  -0.74463  -0.73771  -0.73768
 Alpha  occ. eigenvalues --   -0.71965  -0.71413  -0.71142  -0.70912  -0.70327
 Alpha  occ. eigenvalues --   -0.70204  -0.69038  -0.68035  -0.67754  -0.67349
 Alpha  occ. eigenvalues --   -0.66862  -0.66792  -0.66624  -0.66422  -0.66138
 Alpha  occ. eigenvalues --   -0.65982  -0.64493  -0.64090  -0.62194  -0.62113
 Alpha  occ. eigenvalues --   -0.62006  -0.61461  -0.61342  -0.61112  -0.60855
 Alpha  occ. eigenvalues --   -0.60575  -0.60304  -0.60255  -0.59981  -0.59354
 Alpha  occ. eigenvalues --   -0.58514  -0.58487  -0.57982  -0.57612  -0.57478
 Alpha  occ. eigenvalues --   -0.57237  -0.57004  -0.56671  -0.56571  -0.56194
 Alpha  occ. eigenvalues --   -0.55947  -0.55370  -0.55310  -0.55236  -0.55081
 Alpha  occ. eigenvalues --   -0.54814  -0.54633  -0.54606  -0.54518  -0.54211
 Alpha  occ. eigenvalues --   -0.54040  -0.53713  -0.53574  -0.53255  -0.53075
 Alpha  occ. eigenvalues --   -0.52928  -0.52514  -0.52281  -0.52273  -0.52159
 Alpha  occ. eigenvalues --   -0.51913  -0.51878  -0.51815  -0.51663  -0.51617
 Alpha  occ. eigenvalues --   -0.51379  -0.51176  -0.51158  -0.50911  -0.50864
 Alpha  occ. eigenvalues --   -0.50751  -0.50668  -0.50467  -0.50151  -0.49967
 Alpha  occ. eigenvalues --   -0.49855  -0.49670  -0.49446  -0.49422  -0.49068
 Alpha  occ. eigenvalues --   -0.49061  -0.48821  -0.48622  -0.48432  -0.48391
 Alpha  occ. eigenvalues --   -0.48078  -0.47936  -0.47913  -0.47834  -0.47650
 Alpha  occ. eigenvalues --   -0.47428  -0.47284  -0.47204  -0.47000  -0.46920
 Alpha  occ. eigenvalues --   -0.46647  -0.46636  -0.46359  -0.46159  -0.46133
 Alpha  occ. eigenvalues --   -0.45995  -0.45773  -0.45665  -0.45654  -0.45627
 Alpha  occ. eigenvalues --   -0.45468  -0.45274  -0.45255  -0.45187  -0.44843
 Alpha  occ. eigenvalues --   -0.44790  -0.44533  -0.44434  -0.44320  -0.43892
 Alpha  occ. eigenvalues --   -0.43817  -0.43705  -0.43630  -0.43520  -0.43514
 Alpha  occ. eigenvalues --   -0.43085  -0.42809  -0.42639  -0.42533  -0.42273
 Alpha  occ. eigenvalues --   -0.42165  -0.41945  -0.41717  -0.41514  -0.40737
 Alpha  occ. eigenvalues --   -0.40405  -0.40295  -0.40013  -0.39828  -0.39684
 Alpha  occ. eigenvalues --   -0.39374  -0.39332  -0.39017  -0.38826  -0.38648
 Alpha  occ. eigenvalues --   -0.38553  -0.38280  -0.36916  -0.36264  -0.36237
 Alpha  occ. eigenvalues --   -0.35979  -0.35449  -0.35417  -0.33663  -0.33629
 Alpha  occ. eigenvalues --   -0.33272  -0.33111  -0.32792  -0.32786  -0.32413
 Alpha  occ. eigenvalues --   -0.32269  -0.31340  -0.31227  -0.26522  -0.25739
 Alpha  occ. eigenvalues --   -0.22907  -0.22900
 Alpha virt. eigenvalues --   -0.07406  -0.06735   0.00389   0.00587   0.02465
 Alpha virt. eigenvalues --    0.02476   0.04342   0.04491   0.05382   0.06397
 Alpha virt. eigenvalues --    0.07320   0.07340   0.08018   0.08058   0.08407

 Mulliken charges:
               1
     1  Mg   0.971377
     2  C   -0.006180
     3  C   -0.072438
     4  C   -0.076368
     5  C   -0.099614
     6  N   -0.341046
     7  C   -0.009343
     8  C   -0.022238
     9  C   -0.153783
    10  C    0.065413
    11  C    0.013353
    12  C   -0.006105
    13  C   -0.111518
    14  H    0.047932
    15  N   -0.435221
    16  C    0.162694
    17  C   -0.218433
    18  C   -0.077879
    19  C    0.134287
    20  C    0.083561
    21  C    0.066445
    22  O   -0.256651
    23  C   -0.006422
    24  N   -0.468513
    25  C    0.098926
    26  C   -0.069463
    27  C   -0.080546
    28  C    0.140010
    29  C    0.040734
    30  C   -0.043690
    31  C   -0.003969
    32  N   -0.428232
    33  C    0.106874
    34  C   -0.178873
    35  C    0.017661
    36  C    0.137107
    37  C    0.064736
    38  C    0.098831
    39  O   -0.191626
    40  C   -0.123829
    41  C    0.249296
    42  O   -0.247103
    43  O   -0.362851
    44  C    0.139187
    45  H   -0.004150
    46  H    0.019898
    47  H   -0.001741
    48  H    0.044451
    49  H    0.034752
    50  H    0.042238
    51  H    0.043388
    52  H    0.037618
    53  H    0.035463
    54  H    0.054701
    55  H    0.050932
    56  H    0.053031
    57  H    0.065771
    58  H    0.049370
    59  H    0.025703
    60  H    0.051212
    61  H    0.045732
    62  H    0.060677
    63  H    0.028066
    64  H    0.023052
    65  H    0.041804
    66  H    0.042097
    67  H    0.041561
    68  H    0.022376
    69  H    0.020645
    70  H    0.035342
    71  H    0.017872
    72  H    0.051260
    73  H    0.062430
    74  H    0.044977
    75  H    0.051478
    76  H    0.073945
    77  H    0.057959
    78  H    0.059977
    79  H    0.069625
    80  Mg   0.973050
    81  C   -0.006733
    82  C   -0.074186
    83  C   -0.111488
    84  C   -0.060506
    85  N   -0.282031
    86  C   -0.051459
    87  C   -0.080949
    88  C   -0.121238
    89  C    0.038041
    90  C    0.009301
    91  C   -0.013359
    92  C   -0.096430
    93  H    0.058587
    94  N   -0.474768
    95  C    0.176512
    96  C   -0.164479
    97  C   -0.081314
    98  C    0.151264
    99  C    0.071041
   100  C    0.085481
   101  O   -0.233784
   102  C   -0.021531
   103  N   -0.406128
   104  C    0.075902
   105  C   -0.112133
   106  C   -0.035695
   107  C   -0.010159
   108  C    0.035595
   109  C   -0.020910
   110  C   -0.015382
   111  N   -0.411311
   112  C    0.152453
   113  C   -0.157298
   114  C   -0.070557
   115  C    0.151146
   116  C    0.070566
   117  C    0.116324
   118  O   -0.187670
   119  C   -0.074735
   120  C    0.263701
   121  O   -0.227631
   122  O   -0.360622
   123  C    0.124838
   124  H   -0.012614
   125  H    0.022438
   126  H   -0.019474
   127  H    0.047391
   128  H    0.048708
   129  H    0.042530
   130  H    0.025851
   131  H    0.050525
   132  H    0.035484
   133  H    0.032167
   134  H    0.051104
   135  H    0.036211
   136  H    0.044505
   137  H    0.048718
   138  H    0.050264
   139  H    0.058374
   140  H    0.054786
   141  H    0.041276
   142  H    0.041056
   143  H    0.042832
   144  H    0.049046
   145  H    0.031773
   146  H    0.040101
   147  H    0.022787
   148  H    0.034917
   149  H    0.032039
   150  H    0.032805
   151  H    0.035447
   152  H    0.029568
   153  H    0.041830
   154  H    0.063970
   155  H    0.079216
   156  H    0.049930
   157  H    0.069057
   158  H    0.056060
 Sum of Mulliken charges =  -0.00000

 Dipole moment (field-independent basis, Debye):
    X=              5.6037    Y=             -2.8101    Z=              3.3155  Tot=              7.0916
 Quadrupole moment (field-independent basis, Debye-Ang):
   XX=           -424.1131   YY=           -460.7833   ZZ=           -516.9425
   XY=              0.5206   XZ=            -44.6798   YZ=            -41.4509

 Normal termination of Gaussian 16 at Mon Sep 20 01:36:31 2021.
