 Gaussian 16, Revision A.03,
 Gaussian 16:  ES64L-G16RevA.03 25-Dec-2016

 --------------------------------
 #p wB97XD/Def2SVP td=(nstates=5)
 --------------------------------

 --------------------------------
 TDDFT excited states in gaussian
 --------------------------------
 Symbolic Z-matrix:
 Charge =  0 Multiplicity = 1

                         Standard orientation:
 ---------------------------------------------------------------------
 Center     Atomic      Atomic             Coordinates (Angstroms)
 Number     Number       Type             X           Y           Z
 ---------------------------------------------------------------------
      1         12           0       20.913398    0.522901   -0.372652
      2          6           0       19.012881   -2.329198   -0.012657
      3          6           0       23.631299   -1.333522    0.562093
      4          6           0       22.730411    3.368669   -0.439580
      5          6           0       18.016574    2.411447   -0.734498
      6          7           0       21.176117   -1.617500    0.341897
      7          6           0       20.356122   -2.588614    0.215224
      8          6           0       20.927712   -4.063633    0.540777
      9          6           0       22.371427   -3.637296    1.019875
     10          6           0       22.416217   -2.066393    0.709186
     11          6           0       22.656591   -3.836524    2.599773
     12          6           0       20.928207   -5.081412   -0.680875
     13          6           0       20.735527   -6.606415   -0.361726
     14          1           0       20.823962   -7.007527    1.079771
     15          7           0       22.861498    0.946156   -0.078623
     16          6           0       23.918489    0.004430    0.236172
     17          6           0       25.173344    0.748795    0.259468
     18          6           0       24.915383    2.131057    0.082665
     19          6           0       23.464047    2.197281   -0.201693
     20          6           0       26.421930   -0.038609    0.433459
     21          6           0       25.869648    3.347379    0.035711
     22          8           0       25.536775    4.493782   -0.020627
     23          6           0       27.358775    3.013013    0.256551
     24          7           0       20.488466    2.647640   -0.452057
     25          6           0       21.356710    3.609037   -0.463976
     26          6           0       20.675563    5.001859   -0.344302
     27          6           0       19.172686    4.697773   -0.553393
     28          6           0       19.190869    3.151917   -0.605908
     29          6           0       20.999366    5.663074    1.012327
     30          6           0       18.590640    5.401274   -1.817703
     31          6           0       18.427314    6.924951   -1.695585
     32          7           0       18.882704    0.158363   -0.381660
     33          6           0       17.837556    1.026217   -0.643840
     34          6           0       16.640311    0.228060   -0.675041
     35          6           0       16.993943   -1.125404   -0.392920
     36          6           0       18.408133   -1.059065   -0.264620
     37          6           0       15.332421    0.732227   -0.881655
     38          6           0       16.571595   -2.484771   -0.276429
     39          8           0       15.391656   -2.946533   -0.286256
     40          6           0       17.876703   -3.290389    0.094386
     41          6           0       17.650669   -3.907823    1.383754
     42          8           0       17.783034   -3.332080    2.463452
     43          8           0       17.129242   -5.154536    1.148499
     44          6           0       16.606574   -5.804045    2.369186
     45          1           0       24.511687   -1.893869    0.882195
     46          1           0       23.385447    4.242624   -0.470291
     47          1           0       17.143676    3.040704   -0.922818
     48          1           0       20.329278   -4.382922    1.394405
     49          1           0       23.127579   -4.217554    0.491442
     50          1           0       21.694458   -3.902677    3.108527
     51          1           0       23.218828   -2.984336    2.981253
     52          1           0       23.240594   -4.714059    2.879128
     53          1           0       21.920273   -4.956770   -1.114076
     54          1           0       20.358496   -4.781508   -1.561086
     55          1           0       21.426578   -7.258039   -0.896318
     56          1           0       19.720243   -6.898180   -0.630532
     57          1           0       26.619190   -0.217630    1.490796
     58          1           0       27.259597    0.358143   -0.140303
     59          1           0       26.250715   -1.005462   -0.039212
     60          1           0       27.849123    2.537859   -0.593662
     61          1           0       27.303021    2.361965    1.128393
     62          1           0       27.992008    3.844829    0.563650
     63          1           0       21.089834    5.537344   -1.198214
     64          1           0       18.616103    4.978411    0.340756
     65          1           0       21.264401    4.980856    1.820359
     66          1           0       20.207682    6.222642    1.511650
     67          1           0       21.837806    6.330157    0.812234
     68          1           0       17.590518    5.012642   -2.004529
     69          1           0       19.209341    5.169894   -2.685412
     70          1           0       18.860043    7.226167   -0.741574
     71          1           0       17.375885    7.151655   -1.518309
     72          1           0       18.745002    7.558386   -2.523447
     73          1           0       15.439524    1.433272   -1.709492
     74          1           0       14.894127    1.292537   -0.055952
     75          1           0       14.656865   -0.110794   -1.030332
     76          1           0       17.906961   -4.066402   -0.670911
     77          1           0       15.747795   -5.209500    2.682090
     78          1           0       17.386271   -5.958256    3.114367
     79          1           0       16.246221   -6.791223    2.079410
     80         12           0      -20.436306    0.716378    0.463720
     81          6           0      -19.268281   -2.039803   -1.540768
     82          6           0      -21.550401   -1.457944    2.741198
     83          6           0      -22.226470    3.230888    1.768827
     84          6           0      -19.626041    2.792184   -2.245294
     85          7           0      -20.450379   -1.457546    0.538987
     86          6           0      -19.764101   -2.383794   -0.264741
     87          6           0      -19.754834   -3.817223    0.390814
     88          6           0      -20.547493   -3.586387    1.712922
     89          6           0      -20.826875   -2.059874    1.703026
     90          6           0      -21.807639   -4.389323    1.913737
     91          6           0      -18.258819   -4.417415    0.566725
     92          6           0      -18.042542   -5.817026   -0.021884
     93          1           0      -17.556465   -6.884188    1.027999
     94          7           0      -21.609846    0.893549    2.130246
     95          6           0      -21.971473   -0.098867    2.949711
     96          6           0      -22.852558    0.377680    4.017273
     97          6           0      -23.116395    1.744182    3.656712
     98          6           0      -22.317842    2.022335    2.458368
     99          6           0      -23.323814   -0.472558    5.117837
    100          6           0      -24.153767    2.650219    4.391406
    101          8           0      -24.306110    3.824872    4.100673
    102          6           0      -25.010811    2.154949    5.512368
    103          7           0      -20.836395    2.656653   -0.145963
    104          6           0      -21.522368    3.562908    0.655491
    105          6           0      -21.514880    4.991648    0.019231
    106          6           0      -20.384642    4.880437   -1.070963
    107          6           0      -20.215991    3.362765   -1.138716
    108          6           0      -22.883220    5.595069   -0.436771
    109          6           0      -19.054308    5.581643   -0.682118
    110          6           0      -18.289702    6.325924   -1.747547
    111          7           0      -19.664217    0.461425   -1.519649
    112          6           0      -19.398579    1.395103   -2.480714
    113          6           0      -18.673980    0.709415   -3.638131
    114          6           0      -18.559371   -0.614178   -3.287853
    115          6           0      -19.237143   -0.731896   -2.026094
    116          6           0      -18.129582    1.469338   -4.826236
    117          6           0      -18.101004   -1.937115   -3.672867
    118          8           0      -17.499604   -2.186467   -4.738532
    119          6           0      -18.646104   -3.000001   -2.544564
    120          6           0      -19.689638   -3.977047   -3.044527
    121          8           0      -20.724785   -3.572483   -3.609905
    122          8           0      -19.265049   -5.303630   -2.958989
    123          6           0      -20.054720   -6.192660   -3.803147
    124          1           0      -21.843421   -2.097878    3.575861
    125          1           0      -22.785220    4.006320    2.296358
    126          1           0      -19.294042    3.517776   -2.991405
    127          1           0      -20.290831   -4.414096   -0.346861
    128          1           0      -19.908782   -4.006671    2.490998
    129          1           0      -22.051594   -5.025871    1.063106
    130          1           0      -22.538161   -3.582334    1.868352
    131          1           0      -21.776623   -5.027576    2.797299
    132          1           0      -18.120518   -4.398672    1.647395
    133          1           0      -17.540085   -3.692461    0.185598
    134          1           0      -17.362818   -5.697101   -0.865502
    135          1           0      -18.989793   -6.190142   -0.413338
    136          1           0      -24.391388   -0.585284    5.304127
    137          1           0      -23.074942    0.089979    6.016959
    138          1           0      -22.771973   -1.401510    5.263099
    139          1           0      -24.309173    1.852007    6.290488
    140          1           0      -25.499202    1.249253    5.151712
    141          1           0      -25.680886    2.978631    5.755436
    142          1           0      -21.149995    5.627813    0.825650
    143          1           0      -20.721310    5.179439   -2.063333
    144          1           0      -23.622245    4.882724   -0.070720
    145          1           0      -22.950738    5.795832   -1.505612
    146          1           0      -23.148100    6.487593    0.131449
    147          1           0      -18.515090    4.693072   -0.354373
    148          1           0      -19.121636    6.245663    0.179893
    149          1           0      -17.956808    7.250149   -1.275078
    150          1           0      -18.907818    6.608757   -2.600236
    151          1           0      -17.375903    5.754238   -1.911427
    152          1           0      -18.396179    2.516713   -4.685874
    153          1           0      -18.668973    1.139752   -5.713948
    154          1           0      -17.064328    1.265788   -4.933442
    155          1           0      -17.784670   -3.504965   -2.107469
    156          1           0      -19.530913   -6.604077   -4.664853
    157          1           0      -20.983610   -5.753267   -4.167017
    158          1           0      -20.348412   -7.028253   -3.168347
 ---------------------------------------------------------------------

 SCF Done:  E(RwB97XD) =  -4070.61044247     A.U. after   19 cycles

 Excitation energies and oscillator strengths:

 Excited State   1:      Singlet-A      1.6412 eV  755.44 nm  f=0.4173  <S**2>=0.000
     309 -> 316        0.17863
     312 -> 314        0.68584
     309 <- 316        0.11672
 This state for optimization and/or second-order correction.
 Total Energy, E(TD-HF/TD-DFT) =  -4070.55012870
 Copying the excited state density for this state as the 1-particle RhoCI density.

 Excited State   2:      Singlet-A      1.7222 eV  719.91 nm  f=0.3793  <S**2>=0.000
     310 -> 315       -0.20375
     311 -> 313        0.67762
     310 <- 315       -0.11868

 Excited State   3:      Singlet-A      2.1613 eV  573.65 nm  f=0.1076  <S**2>=0.000
     310 -> 313        0.64085
     311 -> 315        0.28350

 Excited State   4:      Singlet-A      2.2310 eV  555.73 nm  f=0.0894  <S**2>=0.000
     309 -> 314        0.62832
     312 -> 316       -0.31484

 Excited State   5:      Singlet-A      3.4552 eV  358.83 nm  f=0.0011  <S**2>=0.000
     305 -> 313       -0.28148
     305 -> 318        0.15489
     305 -> 319       -0.10049
     306 -> 313       -0.39178
     306 -> 318        0.30032
     306 -> 319       -0.19491
     308 -> 313        0.27348

 The electronic state is 1-A.
 Alpha  occ. eigenvalues --  -46.94734 -46.94713 -19.31909 -19.30000 -19.25796
 Alpha  occ. eigenvalues --  -19.25195 -19.25041 -19.24228 -19.23503 -19.23280
 Alpha  occ. eigenvalues --  -14.47160 -14.46783 -14.46224 -14.46099 -14.44332
 Alpha  occ. eigenvalues --  -14.44282 -14.43906 -14.43495 -10.44695 -10.42372
 Alpha  occ. eigenvalues --  -10.40584 -10.40262 -10.38834 -10.38772 -10.35925
 Alpha  occ. eigenvalues --  -10.35643 -10.35458 -10.34982 -10.34934 -10.34803
 Alpha  occ. eigenvalues --  -10.34757 -10.34712 -10.34458 -10.34431 -10.34334
 Alpha  occ. eigenvalues --  -10.34300 -10.34089 -10.34014 -10.33741 -10.33618
 Alpha  occ. eigenvalues --  -10.33454 -10.33161 -10.33143 -10.33055 -10.33035
 Alpha  occ. eigenvalues --  -10.32996 -10.32986 -10.32875 -10.32618 -10.32313
 Alpha  occ. eigenvalues --  -10.32236 -10.32153 -10.32127 -10.31839 -10.31724
 Alpha  occ. eigenvalues --  -10.31713 -10.31633 -10.31578 -10.31477 -10.31391
 Alpha  occ. eigenvalues --  -10.31267 -10.31236 -10.31143 -10.31142 -10.31138
 Alpha  occ. eigenvalues --  -10.31026 -10.30984 -10.30971 -10.30660 -10.30524
 Alpha  occ. eigenvalues --  -10.30476 -10.30159 -10.30023 -10.30022 -10.29972
 Alpha  occ. eigenvalues --  -10.29813 -10.29796 -10.29516 -10.29369 -10.29339
 Alpha  occ. eigenvalues --  -10.29314 -10.29212 -10.29191 -10.29178 -10.28460
 Alpha  occ. eigenvalues --  -10.28452  -3.20788  -3.20778  -1.94362  -1.94361
 Alpha  occ. eigenvalues --   -1.93908  -1.93898  -1.93788  -1.93751  -1.18505
 Alpha  occ. eigenvalues --   -1.17664  -1.14756  -1.12262  -1.11317  -1.10147
 Alpha  occ. eigenvalues --   -1.09389  -1.08935  -1.07386  -1.06294  -1.05901
 Alpha  occ. eigenvalues --   -1.05463  -1.05305  -1.04610  -1.03886  -1.02934
 Alpha  occ. eigenvalues --   -0.94612  -0.94482  -0.91186  -0.90969  -0.90579
 Alpha  occ. eigenvalues --   -0.90264  -0.89896  -0.89712  -0.89379  -0.89261
 Alpha  occ. eigenvalues --   -0.89112  -0.88884  -0.88786  -0.88052  -0.86168
 Alpha  occ. eigenvalues --   -0.85842  -0.85531  -0.85337  -0.84593  -0.84214
 Alpha  occ. eigenvalues --   -0.83810  -0.83637  -0.83139  -0.82979  -0.82232
 Alpha  occ. eigenvalues --   -0.82170  -0.80525  -0.80357  -0.79512  -0.79288
 Alpha  occ. eigenvalues --   -0.78850  -0.78280  -0.78118  -0.77653  -0.76759
 Alpha  occ. eigenvalues --   -0.76626  -0.74433  -0.74182  -0.73434  -0.72924
 Alpha  occ. eigenvalues --   -0.71303  -0.70987  -0.70723  -0.70309  -0.70151
 Alpha  occ. eigenvalues --   -0.69810  -0.68995  -0.68654  -0.67740  -0.67299
 Alpha  occ. eigenvalues --   -0.67239  -0.66916  -0.66875  -0.66758  -0.66336
 Alpha  occ. eigenvalues --   -0.66068  -0.64570  -0.63528  -0.62228  -0.62036
 Alpha  occ. eigenvalues --   -0.61726  -0.61358  -0.61074  -0.60863  -0.60477
 Alpha  occ. eigenvalues --   -0.60318  -0.60256  -0.59844  -0.59617  -0.59293
 Alpha  occ. eigenvalues --   -0.58226  -0.57979  -0.57583  -0.57383  -0.57155
 Alpha  occ. eigenvalues --   -0.57030  -0.56829  -0.56440  -0.55877  -0.55681
 Alpha  occ. eigenvalues --   -0.55421  -0.55305  -0.55107  -0.55090  -0.54902
 Alpha  occ. eigenvalues --   -0.54674  -0.54515  -0.54335  -0.54004  -0.53793
 Alpha  occ. eigenvalues --   -0.53735  -0.53522  -0.53421  -0.53239  -0.53158
 Alpha  occ. eigenvalues --   -0.53063  -0.53037  -0.52841  -0.52751  -0.52647
 Alpha  occ. eigenvalues --   -0.52350  -0.52159  -0.51535  -0.51315  -0.51312
 Alpha  occ. eigenvalues --   -0.51054  -0.51043  -0.50832  -0.50703  -0.50546
 Alpha  occ. eigenvalues --   -0.50478  -0.50366  -0.50235  -0.50121  -0.50054
 Alpha  occ. eigenvalues --   -0.49843  -0.49747  -0.49693  -0.49158  -0.48962
 Alpha  occ. eigenvalues --   -0.48903  -0.48661  -0.48564  -0.48402  -0.48359
 Alpha  occ. eigenvalues --   -0.48144  -0.47950  -0.47931  -0.47865  -0.47574
 Alpha  occ. eigenvalues --   -0.47528  -0.47296  -0.47066  -0.46759  -0.46477
 Alpha  occ. eigenvalues --   -0.46303  -0.46294  -0.46200  -0.46073  -0.46048
 Alpha  occ. eigenvalues --   -0.45922  -0.45730  -0.45694  -0.45530  -0.45452
 Alpha  occ. eigenvalues --   -0.45158  -0.45125  -0.44930  -0.44877  -0.44791
 Alpha  occ. eigenvalues --   -0.44664  -0.44572  -0.44547  -0.44206  -0.43701
 Alpha  occ. eigenvalues --   -0.43650  -0.43623  -0.43608  -0.43375  -0.43082
 Alpha  occ. eigenvalues --   -0.43007  -0.42660  -0.42517  -0.42432  -0.42107
 Alpha  occ. eigenvalues --   -0.42067  -0.41694  -0.41400  -0.41260  -0.41003
 Alpha  occ. eigenvalues --   -0.40180  -0.40125  -0.39881  -0.39721  -0.39523
 Alpha  occ. eigenvalues --   -0.39461  -0.39405  -0.39043  -0.38548  -0.38474
 Alpha  occ. eigenvalues --   -0.38224  -0.38009  -0.37060  -0.36409  -0.36282
 Alpha  occ. eigenvalues --   -0.35863  -0.35609  -0.35135  -0.33809  -0.33682
 Alpha  occ. eigenvalues --   -0.33484  -0.33337  -0.32584  -0.32551  -0.32433
 Alpha  occ. eigenvalues --   -0.32262  -0.31912  -0.31296  -0.26071  -0.25586
 Alpha  occ. eigenvalues --   -0.23045  -0.22552
 Alpha virt. eigenvalues --   -0.06756  -0.06740   0.00232   0.00620   0.02002
 Alpha virt. eigenvalues --    0.02035   0.04211   0.04311   0.04910   0.05143
 Alpha virt. eigenvalues --    0.05713   0.07029   0.07660   0.08041   0.08298

 Mulliken charges:
               1
     1  Mg   0.972908
     2  C    0.036693
     3  C   -0.076451
     4  C   -0.083406
     5  C   -0.099847
     6  N   -0.274842
     7  C   -0.097158
     8  C   -0.014253
     9  C   -0.137558
    10  C    0.065891
    11  C    0.000624
    12  C    0.023597
    13  C   -0.131680
    14  H    0.035199
    15  N   -0.532051
    16  C    0.160593
    17  C   -0.146736
    18  C   -0.099991
    19  C    0.147685
    20  C    0.050180
    21  C    0.084754
    22  O   -0.192562
    23  C   -0.045363
    24  N   -0.332347
    25  C    0.040134
    26  C   -0.054392
    27  C   -0.067569
    28  C    0.054601
    29  C    0.016555
    30  C   -0.022570
    31  C   -0.039112
    32  N   -0.427805
    33  C    0.163697
    34  C   -0.180228
    35  C    0.016066
    36  C    0.116684
    37  C    0.057374
    38  C    0.086168
    39  O   -0.253862
    40  C   -0.075542
    41  C    0.267779
    42  O   -0.262085
    43  O   -0.366861
    44  C    0.144979
    45  H   -0.003056
    46  H    0.012718
    47  H   -0.006261
    48  H    0.049150
    49  H    0.040265
    50  H    0.048169
    51  H    0.038262
    52  H    0.039835
    53  H    0.016294
    54  H    0.039546
    55  H    0.057663
    56  H    0.064725
    57  H    0.067849
    58  H    0.043833
    59  H    0.042713
    60  H    0.070931
    61  H    0.053280
    62  H    0.049672
    63  H    0.038228
    64  H    0.035314
    65  H    0.043599
    66  H    0.034019
    67  H    0.050543
    68  H    0.028791
    69  H    0.032101
    70  H    0.024450
    71  H    0.026114
    72  H    0.050573
    73  H    0.038289
    74  H    0.050016
    75  H    0.057933
    76  H    0.063390
    77  H    0.068087
    78  H    0.056051
    79  H    0.049021
    80  Mg   0.976020
    81  C   -0.099572
    82  C   -0.080746
    83  C   -0.088250
    84  C   -0.101407
    85  N   -0.370353
    86  C   -0.011461
    87  C   -0.072328
    88  C   -0.107094
    89  C    0.104570
    90  C    0.024241
    91  C    0.006642
    92  C   -0.108865
    93  H    0.027773
    94  N   -0.454588
    95  C    0.114152
    96  C   -0.149561
    97  C   -0.076263
    98  C    0.118041
    99  C    0.069315
   100  C    0.031472
   101  O   -0.238355
   102  C    0.011930
   103  N   -0.401005
   104  C    0.093599
   105  C   -0.058234
   106  C   -0.103691
   107  C    0.063646
   108  C    0.035225
   109  C   -0.016667
   110  C   -0.026207
   111  N   -0.388592
   112  C    0.149258
   113  C   -0.228776
   114  C    0.015703
   115  C    0.154109
   116  C    0.098503
   117  C    0.146840
   118  O   -0.221158
   119  C   -0.037579
   120  C    0.292943
   121  O   -0.256348
   122  O   -0.367169
   123  C    0.121114
   124  H   -0.014043
   125  H    0.016108
   126  H   -0.003764
   127  H    0.041627
   128  H    0.034200
   129  H    0.028885
   130  H    0.041557
   131  H    0.042980
   132  H    0.032014
   133  H    0.038000
   134  H    0.064384
   135  H    0.054452
   136  H    0.046786
   137  H    0.028302
   138  H    0.042619
   139  H    0.049382
   140  H    0.052029
   141  H    0.067693
   142  H    0.030978
   143  H    0.029166
   144  H    0.038561
   145  H    0.045315
   146  H    0.035479
   147  H    0.029378
   148  H    0.034946
   149  H    0.028932
   150  H    0.041821
   151  H    0.043852
   152  H    0.023024
   153  H    0.059010
   154  H    0.067139
   155  H    0.058257
   156  H    0.063460
   157  H    0.072032
   158  H    0.044614
 Sum of Mulliken charges =  -0.00000

 Dipole moment (field-independent basis, Debye):
    X=              5.5460    Y=             -1.7018    Z=              2.4502  Tot=              6.2974
 Quadrupole moment (field-independent basis, Debye-Ang):
   XX=           -357.7641   YY=           -466.8879   ZZ=           -513.0041
   XY=             -4.3622   XZ=            -86.6644   YZ=            -25.9694

 Normal termination of Gaussian 16 at Mon Sep 20 10:53:29 2021.
