 Gaussian 16, Revision A.03,
 Gaussian 16:  ES64L-G16RevA.03 25-Dec-2016

 --------------------------------
 #p wB97XD/Def2SVP td=(nstates=5)
 --------------------------------

 --------------------------------
 TDDFT excited states in gaussian
 --------------------------------
 Symbolic Z-matrix:
 Charge =  0 Multiplicity = 1

                         Standard orientation:
 ---------------------------------------------------------------------
 Center     Atomic      Atomic             Coordinates (Angstroms)
 Number     Number       Type             X           Y           Z
 ---------------------------------------------------------------------
      1         12           0      -24.234303   -0.809268   -0.123138
      2          6           0      -25.764664    2.219204    0.638287
      3          6           0      -22.400459    0.779460   -2.543019
      4          6           0      -23.009787   -3.856017   -1.035339
      5          6           0      -26.421819   -2.280035    2.261174
      6          7           0      -24.122851    1.242905   -0.887674
      7          6           0      -24.762518    2.314540   -0.322689
      8          6           0      -24.259461    3.557637   -1.060681
      9          6           0      -23.446672    3.040134   -2.234068
     10          6           0      -23.281366    1.577647   -1.836854
     11          6           0      -23.954048    3.227700   -3.638659
     12          6           0      -23.502118    4.639920   -0.153301
     13          6           0      -22.795043    5.800937   -0.923842
     14          1           0      -23.590287    7.105362   -1.192410
     15          7           0      -22.786948   -1.400560   -1.487823
     16          6           0      -22.173967   -0.616192   -2.408999
     17          6           0      -21.329934   -1.481653   -3.191082
     18          6           0      -21.518823   -2.824338   -2.749804
     19          6           0      -22.477686   -2.757778   -1.740596
     20          6           0      -20.462011   -0.917943   -4.273542
     21          6           0      -20.906557   -4.101732   -3.394829
     22          8           0      -21.372593   -5.208853   -3.193185
     23          6           0      -19.826919   -4.072907   -4.368187
     24          7           0      -24.643546   -2.659730    0.501076
     25          6           0      -23.989271   -3.796006    0.026175
     26          6           0      -24.443786   -5.080048    0.741623
     27          6           0      -25.282071   -4.498393    1.930388
     28          6           0      -25.417761   -3.031593    1.556288
     29          6           0      -24.998562   -6.148515   -0.106614
     30          6           0      -24.774517   -4.738967    3.458341
     31          6           0      -25.661902   -5.472543    4.468421
     32          7           0      -25.872059   -0.183113    1.198877
     33          6           0      -26.637903   -0.911234    2.065570
     34          6           0      -27.576493   -0.083174    2.744934
     35          6           0      -27.219951    1.232968    2.260053
     36          6           0      -26.228252    1.084460    1.250279
     37          6           0      -28.536202   -0.569342    3.763101
     38          6           0      -27.477613    2.642388    2.446484
     39          8           0      -28.172893    3.280935    3.211959
     40          6           0      -26.499255    3.352885    1.338418
     41          6           0      -27.246011    4.318214    0.492075
     42          8           0      -28.105816    3.995380   -0.298016
     43          8           0      -26.852279    5.588588    0.689473
     44          6           0      -27.352178    6.628260   -0.289986
     45          1           0      -21.774670    1.289296   -3.278859
     46          1           0      -22.606484   -4.820021   -1.351806
     47          1           0      -26.978486   -2.908922    2.959345
     48          1           0      -25.211317    3.977380   -1.385790
     49          1           0      -22.484652    3.551415   -2.258307
     50          1           0      -24.254641    2.202124   -3.850781
     51          1           0      -23.198461    3.641071   -4.306882
     52          1           0      -24.877830    3.805602   -3.673575
     53          1           0      -22.762083    4.018899    0.351901
     54          1           0      -24.199243    5.074848    0.561939
     55          1           0      -22.481315    5.490445   -1.919683
     56          1           0      -21.889254    6.060411   -0.375843
     57          1           0      -20.423533    0.165180   -4.393699
     58          1           0      -20.892882   -1.276295   -5.207854
     59          1           0      -19.444675   -1.309234   -4.253321
     60          1           0      -19.877026   -3.394416   -5.219177
     61          1           0      -19.534489   -5.041716   -4.772938
     62          1           0      -18.971723   -3.813654   -3.744417
     63          1           0      -23.466874   -5.382912    1.119463
     64          1           0      -26.244096   -4.952831    1.694086
     65          1           0      -24.442394   -7.085343   -0.149761
     66          1           0      -25.071462   -5.754793   -1.120741
     67          1           0      -25.990128   -6.486159    0.194611
     68          1           0      -24.569984   -3.759204    3.889581
     69          1           0      -23.826977   -5.261105    3.596480
     70          1           0      -26.156397   -4.829813    5.197223
     71          1           0      -25.201577   -6.342799    4.935383
     72          1           0      -26.520265   -5.861585    3.920563
     73          1           0      -29.003711   -1.479911    3.389147
     74          1           0      -29.267124    0.187141    4.047471
     75          1           0      -27.951458   -0.982581    4.585564
     76          1           0      -25.786098    3.937424    1.918740
     77          1           0      -27.217828    7.551028    0.273965
     78          1           0      -28.396662    6.417343   -0.518593
     79          1           0      -26.674024    6.603387   -1.143100
     80         12           0       25.037332   -0.536259    0.087260
     81          6           0       23.735120    2.651997    0.903231
     82          6           0       25.400599    0.532359   -3.093204
     83          6           0       26.104878   -3.544958   -0.638262
     84          6           0       23.874645   -1.649193    3.293096
     85          7           0       24.519141    1.375366   -1.044582
     86          6           0       24.244441    2.575252   -0.410086
     87          6           0       24.434757    3.652510   -1.422562
     88          6           0       24.403970    2.930880   -2.770197
     89          6           0       24.824331    1.507187   -2.326916
     90          6           0       22.947411    2.918099   -3.368510
     91          6           0       25.761457    4.573786   -1.268595
     92          6           0       25.680255    6.117603   -1.473270
     93          1           0       24.964296    6.616808   -2.761547
     94          7           0       25.657942   -1.371075   -1.677669
     95          6           0       25.743712   -0.769077   -2.827155
     96          6           0       26.210269   -1.746213   -3.826066
     97          6           0       26.639705   -2.906836   -3.113827
     98          6           0       26.113546   -2.659426   -1.741386
     99          6           0       26.298683   -1.589061   -5.387761
    100          6           0       27.416004   -4.145151   -3.560816
    101          8           0       27.617720   -5.143241   -2.842982
    102          6           0       27.770705   -4.267608   -4.966394
    103          7           0       24.819035   -2.414328    1.173922
    104          6           0       25.481232   -3.528155    0.664348
    105          6           0       25.517290   -4.651078    1.771593
    106          6           0       24.928852   -3.941690    3.016617
    107          6           0       24.544834   -2.557857    2.487999
    108          6           0       24.850913   -5.952566    1.324777
    109          6           0       25.810128   -3.953519    4.290993
    110          6           0       25.105660   -4.159407    5.652276
    111          7           0       24.006443    0.270631    1.767893
    112          6           0       23.561575   -0.295451    2.958414
    113          6           0       23.059277    0.755889    3.805963
    114          6           0       23.056742    1.909284    3.020076
    115          6           0       23.656711    1.595574    1.769377
    116          6           0       22.672083    0.647142    5.150778
    117          6           0       22.769872    3.351165    2.993993
    118          8           0       22.339022    4.126305    3.832985
    119          6           0       23.233025    3.892687    1.602007
    120          6           0       22.032491    4.560926    0.955929
    121          8           0       21.097248    4.146385    0.309337
    122          8           0       22.293034    5.881096    1.184904
    123          6           0       21.520120    6.881160    0.410333
    124          1           0       25.606262    0.889955   -4.104663
    125          1           0       26.654778   -4.461416   -0.861960
    126          1           0       23.722226   -1.911662    4.341625
    127          1           0       23.660381    4.419269   -1.456375
    128          1           0       25.193728    3.262894   -3.443662
    129          1           0       22.916744    2.948918   -4.457120
    130          1           0       22.370626    3.808085   -3.115632
    131          1           0       22.522873    1.967326   -3.047993
    132          1           0       26.566794    4.146513   -1.865157
    133          1           0       26.177103    4.447923   -0.268157
    134          1           0       26.729206    6.384899   -1.606202
    135          1           0       25.206048    6.436058   -0.544899
    136          1           0       27.308004   -1.544377   -5.796250
    137          1           0       25.767840   -0.671498   -5.643050
    138          1           0       25.912635   -2.431279   -5.962049
    139          1           0       28.326438   -3.393071   -5.305721
    140          1           0       26.879508   -4.394560   -5.581139
    141          1           0       28.511154   -5.063961   -5.034968
    142          1           0       26.570214   -4.797317    2.013028
    143          1           0       23.937319   -4.331372    3.246259
    144          1           0       23.791433   -5.915914    1.580402
    145          1           0       25.208938   -6.844703    1.837608
    146          1           0       24.805469   -5.971210    0.236384
    147          1           0       26.479440   -3.097572    4.376062
    148          1           0       26.564461   -4.739490    4.234967
    149          1           0       24.991204   -3.149324    6.045906
    150          1           0       25.840775   -4.679616    6.267194
    151          1           0       24.152627   -4.668059    5.509622
    152          1           0       21.985982    1.375937    5.581727
    153          1           0       23.590540    0.586452    5.735454
    154          1           0       22.130546   -0.295809    5.216917
    155          1           0       24.055245    4.596434    1.730289
    156          1           0       22.260096    7.618804    0.101150
    157          1           0       20.738561    7.412087    0.953233
    158          1           0       21.098362    6.416480   -0.480512
 ---------------------------------------------------------------------

 SCF Done:  E(RwB97XD) =  -4070.60527549     A.U. after   19 cycles

 Excitation energies and oscillator strengths:

 Excited State   1:      Singlet-A      1.6386 eV  756.64 nm  f=0.3956  <S**2>=0.000
     309 -> 316       -0.18463
     311 -> 313        0.68355
     309 <- 316       -0.11771
 This state for optimization and/or second-order correction.
 Total Energy, E(TD-HF/TD-DFT) =  -4070.54505750
 Copying the excited state density for this state as the 1-particle RhoCI density.

 Excited State   2:      Singlet-A      1.6742 eV  740.54 nm  f=0.3824  <S**2>=0.000
     310 -> 315       -0.19699
     312 -> 314        0.67926
     310 <- 315       -0.11759

 Excited State   3:      Singlet-A      2.1629 eV  573.23 nm  f=0.0915  <S**2>=0.000
     309 -> 313        0.63066
     311 -> 316        0.30290

 Excited State   4:      Singlet-A      2.2066 eV  561.87 nm  f=0.0673  <S**2>=0.000
     310 -> 314        0.62035
     312 -> 315        0.32389

 Excited State   5:      Singlet-A      3.2556 eV  380.83 nm  f=0.0003  <S**2>=0.000
     306 -> 313       -0.22809
     308 -> 313        0.64122

 The electronic state is 1-A.
 Alpha  occ. eigenvalues --  -46.95730 -46.94205 -19.29628 -19.29620 -19.24996
 Alpha  occ. eigenvalues --  -19.24324 -19.24090 -19.23750 -19.23704 -19.23184
 Alpha  occ. eigenvalues --  -14.47320 -14.46599 -14.46387 -14.46025 -14.44452
 Alpha  occ. eigenvalues --  -14.43675 -14.43580 -14.43013 -10.43110 -10.41782
 Alpha  occ. eigenvalues --  -10.39535 -10.39516 -10.38854 -10.38661 -10.35845
 Alpha  occ. eigenvalues --  -10.35798 -10.35648 -10.35224 -10.35122 -10.35106
 Alpha  occ. eigenvalues --  -10.34854 -10.34843 -10.34433 -10.34348 -10.34066
 Alpha  occ. eigenvalues --  -10.34013 -10.33856 -10.33848 -10.33731 -10.33673
 Alpha  occ. eigenvalues --  -10.33584 -10.33582 -10.32972 -10.32440 -10.32222
 Alpha  occ. eigenvalues --  -10.32191 -10.32162 -10.32093 -10.31985 -10.31950
 Alpha  occ. eigenvalues --  -10.31854 -10.31663 -10.31640 -10.31616 -10.31604
 Alpha  occ. eigenvalues --  -10.31602 -10.31562 -10.31472 -10.31370 -10.31320
 Alpha  occ. eigenvalues --  -10.31302 -10.31274 -10.31219 -10.31181 -10.31119
 Alpha  occ. eigenvalues --  -10.30989 -10.30953 -10.30938 -10.30899 -10.30879
 Alpha  occ. eigenvalues --  -10.30789 -10.30590 -10.30324 -10.30249 -10.30113
 Alpha  occ. eigenvalues --  -10.29999 -10.29940 -10.29653 -10.29585 -10.29578
 Alpha  occ. eigenvalues --  -10.29492 -10.29385 -10.29313 -10.29294 -10.29114
 Alpha  occ. eigenvalues --  -10.28860  -3.21576  -3.20283  -1.95158  -1.94696
 Alpha  occ. eigenvalues --   -1.94534  -1.93895  -1.93409  -1.93261  -1.18311
 Alpha  occ. eigenvalues --   -1.18000  -1.13182  -1.11848  -1.11723  -1.11603
 Alpha  occ. eigenvalues --   -1.09989  -1.08908  -1.07221  -1.07208  -1.06116
 Alpha  occ. eigenvalues --   -1.05968  -1.05324  -1.05070  -1.04401  -1.04113
 Alpha  occ. eigenvalues --   -0.94767  -0.94385  -0.91056  -0.90786  -0.90564
 Alpha  occ. eigenvalues --   -0.90387  -0.90263  -0.89899  -0.89509  -0.89482
 Alpha  occ. eigenvalues --   -0.89095  -0.88904  -0.88828  -0.88635  -0.86521
 Alpha  occ. eigenvalues --   -0.86159  -0.85589  -0.85504  -0.84633  -0.84547
 Alpha  occ. eigenvalues --   -0.84426  -0.84360  -0.83466  -0.83330  -0.82696
 Alpha  occ. eigenvalues --   -0.82588  -0.80750  -0.80367  -0.79703  -0.79393
 Alpha  occ. eigenvalues --   -0.79184  -0.78973  -0.77821  -0.77807  -0.77084
 Alpha  occ. eigenvalues --   -0.77069  -0.74758  -0.74515  -0.73811  -0.73783
 Alpha  occ. eigenvalues --   -0.71288  -0.70882  -0.70825  -0.70688  -0.70217
 Alpha  occ. eigenvalues --   -0.69716  -0.69346  -0.68920  -0.67527  -0.67449
 Alpha  occ. eigenvalues --   -0.67357  -0.67306  -0.66988  -0.66601  -0.66347
 Alpha  occ. eigenvalues --   -0.66193  -0.63959  -0.63410  -0.62518  -0.62507
 Alpha  occ. eigenvalues --   -0.61690  -0.61580  -0.61251  -0.60949  -0.60803
 Alpha  occ. eigenvalues --   -0.60311  -0.59953  -0.59917  -0.59517  -0.59218
 Alpha  occ. eigenvalues --   -0.58320  -0.58180  -0.57879  -0.57737  -0.57277
 Alpha  occ. eigenvalues --   -0.57156  -0.56704  -0.56474  -0.56425  -0.55751
 Alpha  occ. eigenvalues --   -0.55660  -0.55529  -0.55203  -0.55156  -0.55090
 Alpha  occ. eigenvalues --   -0.54897  -0.54892  -0.54527  -0.54354  -0.54216
 Alpha  occ. eigenvalues --   -0.54056  -0.54016  -0.53625  -0.53525  -0.53236
 Alpha  occ. eigenvalues --   -0.53173  -0.52902  -0.52755  -0.52739  -0.52440
 Alpha  occ. eigenvalues --   -0.52368  -0.52249  -0.51918  -0.51828  -0.51614
 Alpha  occ. eigenvalues --   -0.51369  -0.51350  -0.51243  -0.51034  -0.50953
 Alpha  occ. eigenvalues --   -0.50893  -0.50753  -0.50537  -0.50163  -0.50121
 Alpha  occ. eigenvalues --   -0.49634  -0.49592  -0.49361  -0.49333  -0.49049
 Alpha  occ. eigenvalues --   -0.49033  -0.48876  -0.48764  -0.48594  -0.48494
 Alpha  occ. eigenvalues --   -0.48489  -0.48212  -0.48161  -0.48006  -0.47879
 Alpha  occ. eigenvalues --   -0.47486  -0.47061  -0.47012  -0.46989  -0.46837
 Alpha  occ. eigenvalues --   -0.46725  -0.46627  -0.46324  -0.46313  -0.46174
 Alpha  occ. eigenvalues --   -0.46021  -0.45910  -0.45787  -0.45637  -0.45637
 Alpha  occ. eigenvalues --   -0.45267  -0.44967  -0.44912  -0.44779  -0.44707
 Alpha  occ. eigenvalues --   -0.44635  -0.44249  -0.44109  -0.43966  -0.43941
 Alpha  occ. eigenvalues --   -0.43715  -0.43523  -0.43452  -0.43223  -0.43205
 Alpha  occ. eigenvalues --   -0.42819  -0.42812  -0.42459  -0.42275  -0.42145
 Alpha  occ. eigenvalues --   -0.42090  -0.41784  -0.41503  -0.41428  -0.41174
 Alpha  occ. eigenvalues --   -0.40691  -0.40687  -0.39741  -0.39711  -0.39349
 Alpha  occ. eigenvalues --   -0.39198  -0.38880  -0.38595  -0.38494  -0.38270
 Alpha  occ. eigenvalues --   -0.38054  -0.37857  -0.36671  -0.36206  -0.36028
 Alpha  occ. eigenvalues --   -0.35935  -0.35333  -0.34958  -0.33705  -0.33384
 Alpha  occ. eigenvalues --   -0.33244  -0.33165  -0.32751  -0.32456  -0.32211
 Alpha  occ. eigenvalues --   -0.31890  -0.31443  -0.31204  -0.26111  -0.25911
 Alpha  occ. eigenvalues --   -0.22916  -0.22796
 Alpha virt. eigenvalues --   -0.07146  -0.06642  -0.00166   0.00050   0.01906
 Alpha virt. eigenvalues --    0.02692   0.04264   0.04843   0.04999   0.06494
 Alpha virt. eigenvalues --    0.07354   0.07833   0.07943   0.08021   0.08285

 Mulliken charges:
               1
     1  Mg   0.969769
     2  C    0.027036
     3  C   -0.088503
     4  C   -0.071797
     5  C   -0.105543
     6  N   -0.331533
     7  C   -0.006757
     8  C   -0.044343
     9  C   -0.151702
    10  C    0.059713
    11  C    0.050740
    12  C    0.000389
    13  C   -0.115575
    14  H    0.029150
    15  N   -0.488194
    16  C    0.172371
    17  C   -0.166699
    18  C   -0.057427
    19  C    0.125953
    20  C    0.053298
    21  C    0.071591
    22  O   -0.233745
    23  C   -0.004447
    24  N   -0.422775
    25  C    0.060723
    26  C   -0.086760
    27  C   -0.053544
    28  C    0.048495
    29  C    0.042987
    30  C   -0.002780
    31  C   -0.069041
    32  N   -0.373868
    33  C    0.160006
    34  C   -0.166709
    35  C   -0.076295
    36  C    0.113076
    37  C    0.102548
    38  C    0.145423
    39  O   -0.193131
    40  C   -0.138448
    41  C    0.241239
    42  O   -0.254375
    43  O   -0.372478
    44  C    0.133511
    45  H   -0.016226
    46  H    0.028697
    47  H    0.001733
    48  H    0.035361
    49  H    0.021868
    50  H    0.039172
    51  H    0.043589
    52  H    0.038573
    53  H    0.034504
    54  H    0.060886
    55  H    0.043697
    56  H    0.059129
    57  H    0.039660
    58  H    0.049874
    59  H    0.047200
    60  H    0.056563
    61  H    0.050140
    62  H    0.049752
    63  H    0.038413
    64  H    0.031791
    65  H    0.040573
    66  H    0.046729
    67  H    0.027928
    68  H    0.036114
    69  H    0.035544
    70  H    0.039391
    71  H    0.045773
    72  H    0.018524
    73  H    0.034819
    74  H    0.072741
    75  H    0.044365
    76  H    0.067402
    77  H    0.062669
    78  H    0.082003
    79  H    0.059505
    80  Mg   0.942215
    81  C   -0.051903
    82  C   -0.101191
    83  C   -0.067653
    84  C   -0.090931
    85  N   -0.320403
    86  C    0.052268
    87  C   -0.094501
    88  C   -0.080840
    89  C   -0.005842
    90  C    0.041945
    91  C   -0.020865
    92  C   -0.113958
    93  H    0.029597
    94  N   -0.428054
    95  C    0.195020
    96  C   -0.167194
    97  C   -0.071076
    98  C    0.113726
    99  C    0.058539
   100  C    0.066900
   101  O   -0.250755
   102  C   -0.004038
   103  N   -0.356323
   104  C    0.033209
   105  C   -0.062101
   106  C   -0.056395
   107  C    0.068522
   108  C    0.048394
   109  C   -0.039110
   110  C   -0.040892
   111  N   -0.439475
   112  C    0.135531
   113  C   -0.196857
   114  C   -0.015746
   115  C    0.167322
   116  C    0.061224
   117  C    0.109527
   118  O   -0.199682
   119  C   -0.077085
   120  C    0.279482
   121  O   -0.226470
   122  O   -0.373831
   123  C    0.131574
   124  H   -0.012444
   125  H    0.026212
   126  H   -0.012793
   127  H    0.024528
   128  H    0.020089
   129  H    0.029346
   130  H    0.045909
   131  H    0.057421
   132  H    0.021584
   133  H    0.024531
   134  H    0.065227
   135  H    0.071845
   136  H    0.043740
   137  H    0.041030
   138  H    0.041567
   139  H    0.037672
   140  H    0.075138
   141  H    0.054603
   142  H    0.039223
   143  H    0.033347
   144  H    0.015951
   145  H    0.046713
   146  H    0.047933
   147  H    0.025327
   148  H    0.022988
   149  H    0.043236
   150  H    0.039877
   151  H    0.045428
   152  H    0.059997
   153  H    0.054187
   154  H    0.037928
   155  H    0.081386
   156  H    0.047561
   157  H    0.063801
   158  H    0.058086
 Sum of Mulliken charges =  -0.00000

 Dipole moment (field-independent basis, Debye):
    X=              8.7141    Y=             -0.8349    Z=             -4.4197  Tot=              9.8065
 Quadrupole moment (field-independent basis, Debye-Ang):
   XX=           -595.3186   YY=           -495.4145   ZZ=           -480.9247
   XY=             53.4215   XZ=            -22.7315   YZ=            -57.3510

 Normal termination of Gaussian 16 at Mon Sep 20 02:58:38 2021.
