 Gaussian 16, Revision A.03,
 Gaussian 16:  ES64L-G16RevA.03 25-Dec-2016

 --------------------------------
 #p wB97XD/Def2SVP td=(nstates=5)
 --------------------------------

 --------------------------------
 TDDFT excited states in gaussian
 --------------------------------
 Symbolic Z-matrix:
 Charge =  0 Multiplicity = 1

                         Standard orientation:
 ---------------------------------------------------------------------
 Center     Atomic      Atomic             Coordinates (Angstroms)
 Number     Number       Type             X           Y           Z
 ---------------------------------------------------------------------
      1         12           0      -24.844633    0.560596   -0.029491
      2          6           0      -21.724579   -0.621489    0.790112
      3          6           0      -26.213862   -2.445544    1.292613
      4          6           0      -27.905126    1.325569   -1.245169
      5          6           0      -23.525412    3.232297   -1.569722
      6          7           0      -24.043516   -1.324237    0.930594
      7          6           0      -22.709139   -1.552886    1.134356
      8          6           0      -22.485675   -2.857378    1.902669
      9          6           0      -23.954076   -3.486427    1.853091
     10          6           0      -24.797910   -2.362444    1.327002
     11          6           0      -24.050942   -4.834128    1.048095
     12          6           0      -21.966648   -2.640537    3.397115
     13          6           0      -20.865275   -3.474819    4.005673
     14          1           0      -20.923565   -4.952083    3.841800
     15          7           0      -26.838075   -0.386223    0.046019
     16          6           0      -27.201745   -1.472908    0.761948
     17          6           0      -28.616687   -1.637761    0.776604
     18          6           0      -29.152753   -0.520479    0.061792
     19          6           0      -27.929417    0.150629   -0.470561
     20          6           0      -29.189468   -2.850408    1.436473
     21          6           0      -30.599896   -0.223034   -0.292094
     22          8           0      -30.913886    0.613327   -1.144731
     23          6           0      -31.725684   -0.977116    0.393612
     24          7           0      -25.610684    2.010047   -1.388992
     25          6           0      -26.937329    2.190411   -1.622448
     26          6           0      -27.179379    3.492111   -2.384695
     27          6           0      -25.763357    4.181125   -2.322100
     28          6           0      -24.905714    3.086754   -1.717983
     29          6           0      -27.839382    3.491631   -3.795223
     30          6           0      -25.682626    5.580478   -1.580679
     31          6           0      -25.332942    5.649750   -0.109194
     32          7           0      -23.031807    1.155568   -0.432253
     33          6           0      -22.570623    2.341141   -0.945677
     34          6           0      -21.156341    2.420238   -0.998364
     35          6           0      -20.766977    1.294714   -0.279016
     36          6           0      -21.941252    0.574825    0.060728
     37          6           0      -20.189473    3.465259   -1.539694
     38          6           0      -19.685328    0.556158    0.207507
     39          8           0      -18.497093    0.780260    0.067413
     40          6           0      -20.224267   -0.796022    0.942278
     41          6           0      -19.665329   -1.941529    0.234992
     42          8           0      -19.912020   -2.265158   -0.943733
     43          8           0      -18.767180   -2.646913    0.972293
     44          6           0      -17.901175   -3.618231    0.294553
     45          1           0      -26.522168   -3.360610    1.801842
     46          1           0      -28.901602    1.742759   -1.403375
     47          1           0      -23.098247    4.225346   -1.719295
     48          1           0      -21.697873   -3.420521    1.400701
     49          1           0      -24.297696   -3.772404    2.847338
     50          1           0      -24.415664   -5.600706    1.730928
     51          1           0      -23.051395   -4.979589    0.638037
     52          1           0      -24.809651   -4.856133    0.265216
     53          1           0      -22.884737   -2.801803    3.962370
     54          1           0      -21.805375   -1.583211    3.604573
     55          1           0      -20.721228   -3.196819    5.049712
     56          1           0      -19.966834   -3.217590    3.445822
     57          1           0      -30.022850   -2.475482    2.029496
     58          1           0      -28.478386   -3.279016    2.143138
     59          1           0      -29.528655   -3.646730    0.773081
     60          1           0      -31.582394   -1.109759    1.466388
     61          1           0      -31.978338   -1.865335   -0.187089
     62          1           0      -32.582790   -0.308770    0.305869
     63          1           0      -27.948273    3.983738   -1.788318
     64          1           0      -25.407976    4.503996   -3.299929
     65          1           0      -27.104283    3.753867   -4.555982
     66          1           0      -28.610078    4.261823   -3.769662
     67          1           0      -28.246129    2.489855   -3.929003
     68          1           0      -26.656312    6.051616   -1.708028
     69          1           0      -24.942650    6.213872   -2.070434
     70          1           0      -26.062733    6.231578    0.454309
     71          1           0      -24.344207    6.067286    0.085578
     72          1           0      -25.340551    4.612598    0.226054
     73          1           0      -20.759572    4.310033   -1.928171
     74          1           0      -19.572753    3.013010   -2.316781
     75          1           0      -19.544944    3.793609   -0.724783
     76          1           0      -19.730353   -0.696001    1.909225
     77          1           0      -16.973680   -3.832947    0.825534
     78          1           0      -17.719843   -3.429023   -0.763048
     79          1           0      -18.416611   -4.572629    0.403147
     80         12           0       25.051927    0.033618    0.297216
     81          6           0       21.741114   -1.091338   -0.110745
     82          6           0       25.644293   -1.132738   -2.924977
     83          6           0       28.069347    1.440572    0.382182
     84          6           0       23.969600    1.881959    3.027710
     85          7           0       23.720876   -0.853417   -1.364356
     86          6           0       22.435200   -1.353999   -1.298431
     87          6           0       22.052209   -2.308893   -2.409526
     88          6           0       23.316427   -2.339861   -3.301169
     89          6           0       24.297348   -1.393457   -2.534461
     90          6           0       23.916056   -3.785897   -3.533509
     91          6           0       20.762774   -1.925707   -3.264316
     92          6           0       20.446059   -0.434345   -3.462142
     93          1           0       20.759569    0.210474   -4.844711
     94          7           0       26.601592    0.125929   -1.051011
     95          6           0       26.681232   -0.457595   -2.283442
     96          6           0       28.025356   -0.261561   -2.844583
     97          6           0       28.760294    0.494341   -1.880638
     98          6           0       27.781263    0.727768   -0.774938
     99          6           0       28.466057   -0.816514   -4.193871
    100          6           0       30.223012    0.962144   -2.226669
    101          8           0       30.665393    0.687342   -3.333391
    102          6           0       31.046229    1.842079   -1.194645
    103          7           0       25.830856    1.524942    1.437217
    104          6           0       27.186351    1.844113    1.402457
    105          6           0       27.569570    2.860892    2.619722
    106          6           0       26.113576    3.047725    3.313552
    107          6           0       25.267806    2.085667    2.543065
    108          6           0       28.655451    2.276583    3.570511
    109          6           0       25.520741    4.520826    3.261006
    110          6           0       25.028037    5.171768    4.562744
    111          7           0       23.254859    0.272619    1.380050
    112          6           0       22.928672    1.053497    2.459163
    113          6           0       21.494156    0.862362    2.760132
    114          6           0       21.037798   -0.088467    1.808247
    115          6           0       22.158000   -0.359983    0.973940
    116          6           0       20.679894    1.539705    3.827378
    117          6           0       19.818217   -0.778120    1.346901
    118          8           0       18.672739   -0.865926    1.812768
    119          6           0       20.313171   -1.618492    0.179169
    120          6           0       20.213403   -3.018346    0.421361
    121          8           0       21.053564   -3.634862    1.126587
    122          8           0       19.108182   -3.581034   -0.247382
    123          6           0       18.958379   -5.032641   -0.234396
    124          1           0       25.938341   -1.625806   -3.853537
    125          1           0       29.096429    1.784160    0.518799
    126          1           0       23.725209    2.447083    3.929082
    127          1           0       21.877646   -3.239025   -1.870037
    128          1           0       23.053158   -1.780179   -4.197963
    129          1           0       23.769170   -4.076215   -4.573780
    130          1           0       23.371054   -4.446840   -2.859011
    131          1           0       24.986749   -3.810901   -3.328092
    132          1           0       19.969659   -2.347405   -2.645568
    133          1           0       20.793878   -2.459863   -4.214230
    134          1           0       20.950150    0.168603   -2.706132
    135          1           0       19.390804   -0.281505   -3.239800
    136          1           0       28.509191   -0.081956   -4.998055
    137          1           0       27.939336   -1.741676   -4.428177
    138          1           0       29.471073   -1.233200   -4.129770
    139          1           0       30.953879    1.355735   -0.223245
    140          1           0       30.602473    2.837296   -1.190595
    141          1           0       32.052307    2.093767   -1.530146
    142          1           0       28.047668    3.719546    2.149244
    143          1           0       26.201568    2.679242    4.335849
    144          1           0       28.137179    1.801749    4.403334
    145          1           0       29.394004    3.017855    3.875944
    146          1           0       29.305250    1.536773    3.103316
    147          1           0       24.732035    4.510252    2.508036
    148          1           0       26.383336    5.084207    2.905175
    149          1           0       24.344999    6.000329    4.373525
    150          1           0       25.957848    5.522265    5.010180
    151          1           0       24.538300    4.357558    5.097310
    152          1           0       21.198179    2.483622    3.994029
    153          1           0       20.849474    0.895163    4.689860
    154          1           0       19.608183    1.592389    3.633397
    155          1           0       19.637679   -1.299099   -0.614124
    156          1           0       18.770967   -5.508930    0.727995
    157          1           0       19.842211   -5.501396   -0.668070
    158          1           0       18.209820   -5.269337   -0.990705
 ---------------------------------------------------------------------

 SCF Done:  E(RwB97XD) =  -4070.62488096     A.U. after   20 cycles

 Excitation energies and oscillator strengths:

 Excited State   1:      Singlet-A      1.6604 eV  746.72 nm  f=0.5093  <S**2>=0.000
     310 -> 316       -0.18217
     311 -> 313        0.67712
     310 <- 316       -0.11513
 This state for optimization and/or second-order correction.
 Total Energy, E(TD-HF/TD-DFT) =  -4070.56386275
 Copying the excited state density for this state as the 1-particle RhoCI density.

 Excited State   2:      Singlet-A      1.6637 eV  745.22 nm  f=0.2821  <S**2>=0.000
     309 -> 315       -0.18494
     312 -> 314        0.67570
     309 <- 315       -0.11584

 Excited State   3:      Singlet-A      2.1344 eV  580.90 nm  f=0.1706  <S**2>=0.000
     310 -> 313        0.66026
     311 -> 316        0.24161

 Excited State   4:      Singlet-A      2.2612 eV  548.31 nm  f=0.0697  <S**2>=0.000
     309 -> 314        0.61505
     312 -> 315        0.33672

 Excited State   5:      Singlet-A      3.4420 eV  360.21 nm  f=0.0031  <S**2>=0.000
     306 -> 317       -0.16957
     307 -> 313        0.65304

 The electronic state is 1-A.
 Alpha  occ. eigenvalues --  -46.95431 -46.95281 -19.31017 -19.30264 -19.25195
 Alpha  occ. eigenvalues --  -19.24642 -19.24252 -19.23918 -19.23637 -19.23464
 Alpha  occ. eigenvalues --  -14.47286 -14.46700 -14.46650 -14.46105 -14.44559
 Alpha  occ. eigenvalues --  -14.44151 -14.44078 -14.43889 -10.43884 -10.42763
 Alpha  occ. eigenvalues --  -10.40504 -10.39379 -10.39348 -10.38521 -10.35968
 Alpha  occ. eigenvalues --  -10.35838 -10.35416 -10.35344 -10.35071 -10.35002
 Alpha  occ. eigenvalues --  -10.34886 -10.34613 -10.34578 -10.34392 -10.34137
 Alpha  occ. eigenvalues --  -10.34115 -10.34107 -10.34099 -10.33894 -10.33877
 Alpha  occ. eigenvalues --  -10.33360 -10.32982 -10.32961 -10.32556 -10.32517
 Alpha  occ. eigenvalues --  -10.32515 -10.32513 -10.32512 -10.32352 -10.32344
 Alpha  occ. eigenvalues --  -10.32304 -10.32258 -10.32125 -10.32103 -10.32079
 Alpha  occ. eigenvalues --  -10.32034 -10.31880 -10.31798 -10.31770 -10.31610
 Alpha  occ. eigenvalues --  -10.31588 -10.31535 -10.31352 -10.31345 -10.31247
 Alpha  occ. eigenvalues --  -10.31021 -10.30850 -10.30798 -10.30751 -10.30674
 Alpha  occ. eigenvalues --  -10.30660 -10.30637 -10.30482 -10.30438 -10.30276
 Alpha  occ. eigenvalues --  -10.30142 -10.30052 -10.29915 -10.29856 -10.29695
 Alpha  occ. eigenvalues --  -10.29556 -10.29414 -10.29230 -10.29222 -10.28828
 Alpha  occ. eigenvalues --  -10.28627  -3.21484  -3.21346  -1.95057  -1.94891
 Alpha  occ. eigenvalues --   -1.94568  -1.94499  -1.94484  -1.94321  -1.18012
 Alpha  occ. eigenvalues --   -1.17135  -1.12641  -1.12111  -1.11683  -1.11286
 Alpha  occ. eigenvalues --   -1.09211  -1.08008  -1.07388  -1.06684  -1.06150
 Alpha  occ. eigenvalues --   -1.06147  -1.05591  -1.05496  -1.04601  -1.03897
 Alpha  occ. eigenvalues --   -0.95124  -0.94575  -0.91053  -0.90939  -0.90708
 Alpha  occ. eigenvalues --   -0.90096  -0.90047  -0.89949  -0.89713  -0.89357
 Alpha  occ. eigenvalues --   -0.88719  -0.88358  -0.88008  -0.87533  -0.86453
 Alpha  occ. eigenvalues --   -0.86204  -0.85779  -0.85645  -0.84681  -0.84554
 Alpha  occ. eigenvalues --   -0.83762  -0.83568  -0.83098  -0.82948  -0.82267
 Alpha  occ. eigenvalues --   -0.82040  -0.80344  -0.80089  -0.79392  -0.79151
 Alpha  occ. eigenvalues --   -0.79020  -0.78691  -0.78440  -0.78149  -0.77418
 Alpha  occ. eigenvalues --   -0.76855  -0.75522  -0.74316  -0.73722  -0.73512
 Alpha  occ. eigenvalues --   -0.71536  -0.71229  -0.71200  -0.70864  -0.70363
 Alpha  occ. eigenvalues --   -0.70081  -0.69112  -0.68820  -0.67686  -0.67544
 Alpha  occ. eigenvalues --   -0.67183  -0.67095  -0.66714  -0.66576  -0.66193
 Alpha  occ. eigenvalues --   -0.66180  -0.64427  -0.64221  -0.62235  -0.62191
 Alpha  occ. eigenvalues --   -0.61792  -0.61593  -0.61050  -0.61022  -0.60639
 Alpha  occ. eigenvalues --   -0.60259  -0.59866  -0.59714  -0.59265  -0.59195
 Alpha  occ. eigenvalues --   -0.58225  -0.58105  -0.57525  -0.57317  -0.56986
 Alpha  occ. eigenvalues --   -0.56874  -0.56764  -0.56358  -0.56144  -0.55975
 Alpha  occ. eigenvalues --   -0.55708  -0.55214  -0.55078  -0.54982  -0.54732
 Alpha  occ. eigenvalues --   -0.54493  -0.54472  -0.54295  -0.54157  -0.54050
 Alpha  occ. eigenvalues --   -0.54004  -0.53476  -0.53385  -0.53149  -0.52877
 Alpha  occ. eigenvalues --   -0.52672  -0.52649  -0.52514  -0.52231  -0.52179
 Alpha  occ. eigenvalues --   -0.51938  -0.51787  -0.51449  -0.51313  -0.51245
 Alpha  occ. eigenvalues --   -0.51177  -0.51149  -0.50995  -0.50898  -0.50716
 Alpha  occ. eigenvalues --   -0.50659  -0.50488  -0.50470  -0.50257  -0.50155
 Alpha  occ. eigenvalues --   -0.50067  -0.49762  -0.49489  -0.49263  -0.49186
 Alpha  occ. eigenvalues --   -0.49081  -0.48785  -0.48543  -0.48411  -0.48372
 Alpha  occ. eigenvalues --   -0.48161  -0.48080  -0.48074  -0.47873  -0.47789
 Alpha  occ. eigenvalues --   -0.47673  -0.47288  -0.47220  -0.46940  -0.46889
 Alpha  occ. eigenvalues --   -0.46716  -0.46564  -0.46459  -0.46441  -0.46114
 Alpha  occ. eigenvalues --   -0.45864  -0.45846  -0.45817  -0.45541  -0.45277
 Alpha  occ. eigenvalues --   -0.45154  -0.45148  -0.45007  -0.44912  -0.44875
 Alpha  occ. eigenvalues --   -0.44641  -0.44346  -0.44171  -0.44168  -0.44041
 Alpha  occ. eigenvalues --   -0.43895  -0.43778  -0.43541  -0.43440  -0.43216
 Alpha  occ. eigenvalues --   -0.43019  -0.42951  -0.42481  -0.42480  -0.42138
 Alpha  occ. eigenvalues --   -0.41911  -0.41756  -0.41742  -0.41591  -0.41440
 Alpha  occ. eigenvalues --   -0.40833  -0.40397  -0.40135  -0.39592  -0.39454
 Alpha  occ. eigenvalues --   -0.39261  -0.39148  -0.38978  -0.38645  -0.38631
 Alpha  occ. eigenvalues --   -0.38029  -0.37661  -0.36733  -0.36534  -0.36303
 Alpha  occ. eigenvalues --   -0.35466  -0.35404  -0.35066  -0.33530  -0.33523
 Alpha  occ. eigenvalues --   -0.33234  -0.33230  -0.33017  -0.33009  -0.32438
 Alpha  occ. eigenvalues --   -0.32435  -0.32241  -0.31757  -0.26062  -0.25732
 Alpha  occ. eigenvalues --   -0.23260  -0.22629
 Alpha virt. eigenvalues --   -0.07446  -0.06499   0.00120   0.00741   0.02326
 Alpha virt. eigenvalues --    0.02350   0.04112   0.04572   0.04930   0.04953
 Alpha virt. eigenvalues --    0.05588   0.06889   0.07500   0.07816   0.08569

 Mulliken charges:
               1
     1  Mg   0.974513
     2  C   -0.004187
     3  C   -0.064822
     4  C   -0.065453
     5  C   -0.074833
     6  N   -0.330593
     7  C    0.000532
     8  C   -0.084384
     9  C   -0.117763
    10  C    0.051399
    11  C    0.025240
    12  C    0.010949
    13  C   -0.102362
    14  H    0.032747
    15  N   -0.356544
    16  C    0.128958
    17  C   -0.163777
    18  C   -0.075509
    19  C    0.100089
    20  C    0.082219
    21  C    0.043236
    22  O   -0.246923
    23  C   -0.016983
    24  N   -0.351442
    25  C    0.050134
    26  C   -0.080528
    27  C   -0.041609
    28  C    0.061599
    29  C    0.035312
    30  C   -0.057954
    31  C   -0.043106
    32  N   -0.478567
    33  C    0.099420
    34  C   -0.189118
    35  C    0.041004
    36  C    0.137922
    37  C    0.096915
    38  C    0.037775
    39  O   -0.207861
    40  C   -0.055939
    41  C    0.260068
    42  O   -0.281272
    43  O   -0.359711
    44  C    0.146656
    45  H   -0.010894
    46  H    0.017258
    47  H   -0.000436
    48  H    0.049027
    49  H    0.042620
    50  H    0.031650
    51  H    0.050436
    52  H    0.040571
    53  H    0.012367
    54  H    0.032270
    55  H    0.056016
    56  H    0.054331
    57  H    0.030605
    58  H    0.036833
    59  H    0.063548
    60  H    0.053791
    61  H    0.071474
    62  H    0.050393
    63  H    0.036331
    64  H    0.036879
    65  H    0.036519
    66  H    0.040337
    67  H    0.051417
    68  H    0.029673
    69  H    0.029350
    70  H    0.038445
    71  H    0.037302
    72  H    0.035931
    73  H    0.026400
    74  H    0.066851
    75  H    0.060991
    76  H    0.060706
    77  H    0.053444
    78  H    0.075490
    79  H    0.036626
    80  Mg   0.987028
    81  C   -0.108732
    82  C   -0.085635
    83  C   -0.110634
    84  C   -0.096041
    85  N   -0.342021
    86  C   -0.038520
    87  C   -0.062252
    88  C   -0.058552
    89  C    0.026599
    90  C    0.027363
    91  C   -0.015269
    92  C   -0.118654
    93  H    0.036890
    94  N   -0.448661
    95  C    0.153295
    96  C   -0.157732
    97  C   -0.113691
    98  C    0.207066
    99  C    0.095393
   100  C    0.069728
   101  O   -0.226558
   102  C   -0.026204
   103  N   -0.421815
   104  C    0.079346
   105  C   -0.103184
   106  C   -0.075617
   107  C    0.085836
   108  C    0.009856
   109  C   -0.024311
   110  C   -0.038124
   111  N   -0.406521
   112  C    0.119686
   113  C   -0.211607
   114  C   -0.096359
   115  C    0.263403
   116  C    0.092514
   117  C    0.145543
   118  O   -0.217839
   119  C   -0.059326
   120  C    0.315764
   121  O   -0.277640
   122  O   -0.382210
   123  C    0.152229
   124  H   -0.009092
   125  H   -0.035086
   126  H   -0.015885
   127  H    0.049467
   128  H    0.045658
   129  H    0.043702
   130  H    0.040419
   131  H    0.046376
   132  H    0.038351
   133  H    0.048342
   134  H    0.063083
   135  H    0.056430
   136  H    0.065389
   137  H    0.023009
   138  H    0.044086
   139  H    0.073648
   140  H    0.060937
   141  H    0.052774
   142  H    0.044424
   143  H    0.036115
   144  H    0.037580
   145  H    0.038502
   146  H    0.031770
   147  H    0.048527
   148  H    0.025115
   149  H    0.051622
   150  H    0.041606
   151  H    0.037705
   152  H    0.034748
   153  H    0.054935
   154  H    0.066700
   155  H    0.059831
   156  H    0.069368
   157  H    0.033775
   158  H    0.052239
 Sum of Mulliken charges =  -0.00000

 Dipole moment (field-independent basis, Debye):
    X=              0.0932    Y=             -0.4034    Z=              4.0794  Tot=              4.1004
 Quadrupole moment (field-independent basis, Debye-Ang):
   XX=           -311.2484   YY=           -456.0381   ZZ=           -503.6336
   XY=             31.9781   XZ=            -58.2629   YZ=             11.2754

 Normal termination of Gaussian 16 at Mon Sep 20 21:30:07 2021.
