 Gaussian 16, Revision A.03,
 Gaussian 16:  ES64L-G16RevA.03 25-Dec-2016

 --------------------------------
 #p wB97XD/Def2SVP td=(nstates=5)
 --------------------------------

 --------------------------------
 TDDFT excited states in gaussian
 --------------------------------
 Symbolic Z-matrix:
 Charge =  0 Multiplicity = 1

                         Standard orientation:
 ---------------------------------------------------------------------
 Center     Atomic      Atomic             Coordinates (Angstroms)
 Number     Number       Type             X           Y           Z
 ---------------------------------------------------------------------
      1         12           0      -20.448317   -0.496679   -0.316059
      2          6           0      -18.467690    2.383759   -0.075982
      3          6           0      -22.942912    1.191330    1.545018
      4          6           0      -22.245075   -3.376566   -0.230051
      5          6           0      -17.681697   -2.221560   -1.452556
      6          7           0      -20.695050    1.569949    0.445574
      7          6           0      -19.783446    2.610211    0.243506
      8          6           0      -20.504738    3.982904    0.496721
      9          6           0      -21.852537    3.547472    1.083382
     10          6           0      -21.824011    1.979183    1.073175
     11          6           0      -22.025707    4.111969    2.519206
     12          6           0      -20.556785    4.754424   -0.816308
     13          6           0      -20.588716    6.272668   -0.752234
     14          1           0      -20.884932    6.941216    0.609270
     15          7           0      -22.332485   -1.063137    0.510064
     16          6           0      -23.185141   -0.232830    1.262152
     17          6           0      -24.358402   -0.968338    1.700202
     18          6           0      -24.257037   -2.308396    1.154673
     19          6           0      -22.898746   -2.297363    0.459733
     20          6           0      -25.554136   -0.337179    2.424840
     21          6           0      -25.214737   -3.482600    1.220200
     22          8           0      -24.937537   -4.537421    0.665030
     23          6           0      -26.568619   -3.263419    1.777626
     24          7           0      -20.006574   -2.511759   -0.855005
     25          6           0      -20.952423   -3.490884   -0.809242
     26          6           0      -20.406995   -4.777181   -1.483021
     27          6           0      -18.946258   -4.400272   -1.945773
     28          6           0      -18.866273   -2.916214   -1.503476
     29          6           0      -20.463806   -5.961299   -0.501310
     30          6           0      -18.696053   -4.508291   -3.473465
     31          6           0      -17.935811   -5.797987   -3.766773
     32          7           0      -18.411471   -0.125888   -0.618415
     33          6           0      -17.372793   -0.903230   -1.009398
     34          6           0      -16.133051   -0.110096   -0.825703
     35          6           0      -16.501794    1.179109   -0.574843
     36          6           0      -17.908638    1.100565   -0.412907
     37          6           0      -14.763135   -0.700367   -1.114919
     38          6           0      -16.058009    2.567920   -0.395392
     39          8           0      -14.921225    3.024514   -0.404577
     40          6           0      -17.325414    3.366977   -0.160940
     41          6           0      -17.070513    4.161385    1.051110
     42          8           0      -17.088433    3.829665    2.244164
     43          8           0      -16.705767    5.428654    0.644857
     44          6           0      -16.340100    6.365286    1.685115
     45          1           0      -23.720021    1.769965    2.048296
     46          1           0      -22.930147   -4.226699   -0.251778
     47          1           0      -16.838717   -2.857198   -1.731758
     48          1           0      -19.836878    4.419421    1.240348
     49          1           0      -22.611451    4.073905    0.504655
     50          1           0      -22.000178    3.365053    3.312839
     51          1           0      -23.070280    4.411396    2.599878
     52          1           0      -21.272207    4.861238    2.761195
     53          1           0      -21.413718    4.329697   -1.340043
     54          1           0      -19.719005    4.443340   -1.439257
     55          1           0      -21.291499    6.636552   -1.500538
     56          1           0      -19.585197    6.517539   -1.101983
     57          1           0      -25.389773    0.695452    2.733256
     58          1           0      -25.789012   -0.911690    3.321866
     59          1           0      -26.438089   -0.451454    1.798521
     60          1           0      -27.103865   -2.572404    1.125911
     61          1           0      -26.522807   -3.039576    2.843383
     62          1           0      -27.179009   -4.164974    1.724522
     63          1           0      -21.077668   -5.025362   -2.305323
     64          1           0      -18.287480   -5.002657   -1.318913
     65          1           0      -19.522826   -6.470946   -0.296182
     66          1           0      -21.088975   -6.636344   -1.085365
     67          1           0      -20.809805   -5.705158    0.499684
     68          1           0      -17.949432   -3.777780   -3.785442
     69          1           0      -19.606580   -4.472127   -4.071875
     70          1           0      -18.483308   -6.232787   -4.602872
     71          1           0      -18.038257   -6.563260   -2.997763
     72          1           0      -16.882540   -5.674146   -4.020078
     73          1           0      -14.738030   -1.783734   -1.235174
     74          1           0      -14.025915   -0.440214   -0.356350
     75          1           0      -14.460728   -0.381560   -2.113046
     76          1           0      -17.486472    3.994704   -1.036762
     77          1           0      -15.598092    5.879146    2.319030
     78          1           0      -17.179754    6.674252    2.308094
     79          1           0      -15.692686    7.086528    1.187506
     80         12           0       20.026948   -0.749271    0.409711
     81          6           0       19.906572    2.420206   -1.336227
     82          6           0       21.421100    0.876535    2.828487
     83          6           0       20.294180   -3.765099    1.711984
     84          6           0       19.218571   -2.477122   -2.683944
     85          7           0       20.483504    1.479136    0.731492
     86          6           0       20.379988    2.599038   -0.067228
     87          6           0       20.915502    3.790485    0.641681
     88          6           0       21.819784    3.180601    1.743471
     89          6           0       21.256148    1.740140    1.763063
     90          6           0       23.326117    3.177070    1.402528
     91          6           0       19.745582    4.571801    1.313814
     92          6           0       19.774638    6.142639    1.168114
     93          1           0       18.451748    6.981038    1.380420
     94          7           0       20.760954   -1.344654    2.163777
     95          6           0       21.197117   -0.539921    3.095901
     96          6           0       21.490300   -1.331243    4.275958
     97          6           0       21.033980   -2.629850    3.948733
     98          6           0       20.698219   -2.614105    2.550781
     99          6           0       21.995412   -0.666440    5.569367
    100          6           0       20.980502   -3.814910    4.872194
    101          8           0       20.602577   -4.874246    4.469276
    102          6           0       21.306572   -3.627829    6.318072
    103          7           0       20.044955   -2.883232   -0.528696
    104          6           0       20.029824   -3.879000    0.354962
    105          6           0       19.583237   -5.156181   -0.251231
    106          6           0       19.432822   -4.729823   -1.745888
    107          6           0       19.575332   -3.231240   -1.705093
    108          6           0       20.450529   -6.439222    0.013072
    109          6           0       18.065074   -5.238099   -2.348232
    110          6           0       18.057718   -6.432598   -3.342494
    111          7           0       19.650165   -0.257331   -1.530192
    112          6           0       19.262908   -1.000604   -2.667569
    113          6           0       19.008079   -0.078151   -3.793268
    114          6           0       19.228548    1.199282   -3.295881
    115          6           0       19.648131    1.078903   -1.981896
    116          6           0       18.719998   -0.508653   -5.251953
    117          6           0       19.195142    2.639374   -3.708176
    118          8           0       18.880820    3.212828   -4.724304
    119          6           0       19.807468    3.491558   -2.486874
    120          6           0       19.049164    4.660074   -2.228114
    121          8           0       18.127655    4.676121   -1.400102
    122          8           0       19.358631    5.788155   -2.981549
    123          6           0       18.733375    7.096336   -2.616609
    124          1           0       21.856240    1.307842    3.731724
    125          1           0       20.320786   -4.759562    2.162091
    126          1           0       18.965403   -2.980192   -3.618441
    127          1           0       21.570248    4.354623   -0.023029
    128          1           0       21.767929    3.645515    2.727792
    129          1           0       23.885189    3.757874    2.136756
    130          1           0       23.427544    3.625711    0.414767
    131          1           0       23.773232    2.185478    1.326879
    132          1           0       19.821661    4.324023    2.372707
    133          1           0       18.830375    4.131528    0.918534
    134          1           0       20.199018    6.373648    0.191435
    135          1           0       20.493404    6.428710    1.936916
    136          1           0       21.228743   -0.781659    6.336654
    137          1           0       22.302084    0.375357    5.482564
    138          1           0       22.816792   -1.244699    5.991543
    139          1           0       20.619388   -2.943778    6.815330
    140          1           0       22.255656   -3.144319    6.549233
    141          1           0       21.185179   -4.582998    6.829581
    142          1           0       18.588502   -5.373328    0.137955
    143          1           0       20.302902   -5.072381   -2.306411
    144          1           0       21.213480   -6.146663    0.733722
    145          1           0       20.855518   -6.958155   -0.856433
    146          1           0       19.807385   -7.201892    0.452488
    147          1           0       17.599510   -4.422283   -2.901891
    148          1           0       17.392341   -5.289768   -1.492167
    149          1           0       17.272098   -7.136696   -3.068850
    150          1           0       19.035568   -6.914451   -3.338180
    151          1           0       17.835351   -6.089634   -4.353667
    152          1           0       18.168177   -1.447559   -5.216431
    153          1           0       19.662302   -0.748920   -5.744881
    154          1           0       18.158028    0.248083   -5.799839
    155          1           0       20.823652    3.777340   -2.756937
    156          1           0       19.039556    7.412704   -1.618479
    157          1           0       17.672591    7.115580   -2.863649
    158          1           0       19.253805    7.857949   -3.197159
 ---------------------------------------------------------------------

 SCF Done:  E(RwB97XD) =  -4070.57365226     A.U. after   19 cycles

 Excitation energies and oscillator strengths:

 Excited State   1:      Singlet-A      1.6257 eV  762.64 nm  f=0.3936  <S**2>=0.000
     309 -> 315       -0.17890
     312 -> 314        0.68465
     309 <- 315       -0.11345
 This state for optimization and/or second-order correction.
 Total Energy, E(TD-HF/TD-DFT) =  -4070.51390830
 Copying the excited state density for this state as the 1-particle RhoCI density.

 Excited State   2:      Singlet-A      1.6948 eV  731.55 nm  f=0.3800  <S**2>=0.000
     310 -> 316       -0.16829
     311 -> 313        0.68667
     310 <- 316       -0.11047

 Excited State   3:      Singlet-A      2.1226 eV  584.11 nm  f=0.2178  <S**2>=0.000
     310 -> 313        0.67192
     311 -> 316        0.20537

 Excited State   4:      Singlet-A      2.1420 eV  578.81 nm  f=0.1207  <S**2>=0.000
     309 -> 314        0.64307
     312 -> 315        0.27658

 Excited State   5:      Singlet-A      3.4398 eV  360.44 nm  f=0.0065  <S**2>=0.000
     304 -> 313       -0.20210
     305 -> 313       -0.17537
     308 -> 313        0.63313

 The electronic state is 1-A.
 Alpha  occ. eigenvalues --  -46.95756 -46.95432 -19.29650 -19.29160 -19.24706
 Alpha  occ. eigenvalues --  -19.24596 -19.24290 -19.24289 -19.24263 -19.23422
 Alpha  occ. eigenvalues --  -14.46769 -14.46359 -14.46309 -14.44739 -14.44705
 Alpha  occ. eigenvalues --  -14.44386 -14.44342 -14.43730 -10.43181 -10.42293
 Alpha  occ. eigenvalues --  -10.39903 -10.39465 -10.39359 -10.39098 -10.36059
 Alpha  occ. eigenvalues --  -10.35339 -10.35291 -10.35265 -10.35251 -10.35092
 Alpha  occ. eigenvalues --  -10.35068 -10.34710 -10.34659 -10.34640 -10.34047
 Alpha  occ. eigenvalues --  -10.34020 -10.33998 -10.33802 -10.33760 -10.33556
 Alpha  occ. eigenvalues --  -10.33327 -10.33273 -10.32984 -10.32930 -10.32820
 Alpha  occ. eigenvalues --  -10.32516 -10.32395 -10.32269 -10.32240 -10.32224
 Alpha  occ. eigenvalues --  -10.32214 -10.32106 -10.31946 -10.31871 -10.31807
 Alpha  occ. eigenvalues --  -10.31789 -10.31739 -10.31620 -10.31589 -10.31576
 Alpha  occ. eigenvalues --  -10.31420 -10.31287 -10.31272 -10.31270 -10.30828
 Alpha  occ. eigenvalues --  -10.30695 -10.30533 -10.30503 -10.30381 -10.30365
 Alpha  occ. eigenvalues --  -10.30310 -10.30247 -10.30184 -10.30141 -10.29989
 Alpha  occ. eigenvalues --  -10.29850 -10.29571 -10.29519 -10.29381 -10.29369
 Alpha  occ. eigenvalues --  -10.29319 -10.29299 -10.29105 -10.29053 -10.28782
 Alpha  occ. eigenvalues --  -10.28732  -3.21735  -3.21284  -1.95308  -1.94884
 Alpha  occ. eigenvalues --   -1.94866  -1.94697  -1.94363  -1.94282  -1.17923
 Alpha  occ. eigenvalues --   -1.16291  -1.14400  -1.13015  -1.12700  -1.12186
 Alpha  occ. eigenvalues --   -1.09020  -1.08503  -1.07796  -1.06946  -1.06889
 Alpha  occ. eigenvalues --   -1.06278  -1.04773  -1.04620  -1.03678  -1.02933
 Alpha  occ. eigenvalues --   -0.95302  -0.93161  -0.91118  -0.91096  -0.90787
 Alpha  occ. eigenvalues --   -0.90608  -0.89887  -0.89854  -0.89742  -0.89593
 Alpha  occ. eigenvalues --   -0.89017  -0.88780  -0.87494  -0.87098  -0.86246
 Alpha  occ. eigenvalues --   -0.86231  -0.85730  -0.84916  -0.84600  -0.84317
 Alpha  occ. eigenvalues --   -0.84049  -0.83887  -0.82847  -0.82815  -0.82349
 Alpha  occ. eigenvalues --   -0.81970  -0.80745  -0.80078  -0.79166  -0.79007
 Alpha  occ. eigenvalues --   -0.78685  -0.78576  -0.78102  -0.77832  -0.77357
 Alpha  occ. eigenvalues --   -0.76464  -0.74698  -0.74489  -0.73061  -0.72966
 Alpha  occ. eigenvalues --   -0.71179  -0.71017  -0.70690  -0.70379  -0.69943
 Alpha  occ. eigenvalues --   -0.69849  -0.69252  -0.69062  -0.68026  -0.67505
 Alpha  occ. eigenvalues --   -0.67303  -0.66952  -0.66809  -0.66627  -0.66209
 Alpha  occ. eigenvalues --   -0.65864  -0.64084  -0.63465  -0.63020  -0.62134
 Alpha  occ. eigenvalues --   -0.62043  -0.61579  -0.61034  -0.61031  -0.60726
 Alpha  occ. eigenvalues --   -0.60316  -0.60003  -0.59624  -0.59500  -0.59143
 Alpha  occ. eigenvalues --   -0.58547  -0.57830  -0.57693  -0.57608  -0.57452
 Alpha  occ. eigenvalues --   -0.56997  -0.56698  -0.55889  -0.55804  -0.55545
 Alpha  occ. eigenvalues --   -0.55469  -0.55339  -0.55297  -0.55219  -0.54991
 Alpha  occ. eigenvalues --   -0.54833  -0.54733  -0.54569  -0.54348  -0.53902
 Alpha  occ. eigenvalues --   -0.53789  -0.53746  -0.53640  -0.53294  -0.53194
 Alpha  occ. eigenvalues --   -0.52674  -0.52504  -0.52303  -0.52156  -0.52044
 Alpha  occ. eigenvalues --   -0.51813  -0.51770  -0.51610  -0.51532  -0.51508
 Alpha  occ. eigenvalues --   -0.51200  -0.51173  -0.51143  -0.50935  -0.50729
 Alpha  occ. eigenvalues --   -0.50622  -0.50540  -0.50208  -0.50051  -0.49916
 Alpha  occ. eigenvalues --   -0.49769  -0.49668  -0.49439  -0.49323  -0.49323
 Alpha  occ. eigenvalues --   -0.49086  -0.48620  -0.48347  -0.48283  -0.48116
 Alpha  occ. eigenvalues --   -0.47935  -0.47803  -0.47683  -0.47429  -0.47276
 Alpha  occ. eigenvalues --   -0.47143  -0.46877  -0.46850  -0.46704  -0.46678
 Alpha  occ. eigenvalues --   -0.46495  -0.46401  -0.46360  -0.46291  -0.46110
 Alpha  occ. eigenvalues --   -0.45911  -0.45506  -0.45397  -0.45337  -0.45246
 Alpha  occ. eigenvalues --   -0.45119  -0.44954  -0.44879  -0.44780  -0.44702
 Alpha  occ. eigenvalues --   -0.44634  -0.44597  -0.44228  -0.44131  -0.43747
 Alpha  occ. eigenvalues --   -0.43729  -0.43407  -0.43176  -0.43171  -0.42973
 Alpha  occ. eigenvalues --   -0.42884  -0.42523  -0.42289  -0.42241  -0.42064
 Alpha  occ. eigenvalues --   -0.41846  -0.41758  -0.41734  -0.40800  -0.40324
 Alpha  occ. eigenvalues --   -0.40228  -0.39889  -0.39865  -0.39653  -0.39539
 Alpha  occ. eigenvalues --   -0.39070  -0.38590  -0.38442  -0.38282  -0.38141
 Alpha  occ. eigenvalues --   -0.37742  -0.37689  -0.36279  -0.36031  -0.35529
 Alpha  occ. eigenvalues --   -0.35010  -0.34853  -0.34732  -0.33948  -0.33593
 Alpha  occ. eigenvalues --   -0.33537  -0.33488  -0.33365  -0.33252  -0.32735
 Alpha  occ. eigenvalues --   -0.32437  -0.32152  -0.31766  -0.25706  -0.25437
 Alpha  occ. eigenvalues --   -0.23437  -0.22718
 Alpha virt. eigenvalues --   -0.07396  -0.06996   0.00481   0.01602   0.02254
 Alpha virt. eigenvalues --    0.03069   0.04010   0.04740   0.05516   0.05552
 Alpha virt. eigenvalues --    0.06763   0.07407   0.07755   0.07806   0.08235

 Mulliken charges:
               1
     1  Mg   0.956163
     2  C   -0.016327
     3  C   -0.071925
     4  C   -0.061354
     5  C   -0.075520
     6  N   -0.370298
     7  C   -0.076366
     8  C   -0.019287
     9  C   -0.128229
    10  C    0.112548
    11  C    0.004219
    12  C    0.005645
    13  C   -0.087408
    14  H    0.044104
    15  N   -0.442776
    16  C    0.155470
    17  C   -0.170801
    18  C   -0.084802
    19  C    0.094667
    20  C    0.080356
    21  C    0.059103
    22  O   -0.231379
    23  C   -0.015921
    24  N   -0.372969
    25  C    0.091479
    26  C   -0.107474
    27  C   -0.062913
    28  C    0.055669
    29  C    0.009041
    30  C    0.009700
    31  C   -0.064268
    32  N   -0.405894
    33  C    0.114711
    34  C   -0.207799
    35  C   -0.016072
    36  C    0.137437
    37  C    0.069651
    38  C    0.119933
    39  O   -0.196890
    40  C   -0.032833
    41  C    0.261160
    42  O   -0.260778
    43  O   -0.368871
    44  C    0.150861
    45  H   -0.002629
    46  H    0.022704
    47  H   -0.004991
    48  H    0.035195
    49  H    0.041278
    50  H    0.033179
    51  H    0.028417
    52  H    0.050191
    53  H    0.018847
    54  H    0.026451
    55  H    0.050753
    56  H    0.056909
    57  H    0.044891
    58  H    0.041585
    59  H    0.050533
    60  H    0.068956
    61  H    0.058692
    62  H    0.044864
    63  H    0.042164
    64  H    0.041179
    65  H    0.028400
    66  H    0.042372
    67  H    0.055125
    68  H    0.035754
    69  H    0.040888
    70  H    0.024673
    71  H    0.026443
    72  H    0.047251
    73  H    0.017846
    74  H    0.060261
    75  H    0.049734
    76  H    0.082146
    77  H    0.044834
    78  H    0.059093
    79  H    0.053246
    80  Mg   0.973820
    81  C   -0.021117
    82  C   -0.054243
    83  C   -0.053623
    84  C   -0.109879
    85  N   -0.301970
    86  C   -0.007044
    87  C   -0.073269
    88  C   -0.132759
    89  C    0.070317
    90  C    0.036915
    91  C    0.034116
    92  C   -0.096378
    93  H    0.049941
    94  N   -0.460704
    95  C    0.091575
    96  C   -0.147506
    97  C   -0.078577
    98  C    0.134464
    99  C    0.063253
   100  C    0.051849
   101  O   -0.201382
   102  C   -0.020497
   103  N   -0.271227
   104  C    0.014521
   105  C   -0.095333
   106  C   -0.044755
   107  C    0.058172
   108  C    0.023261
   109  C   -0.029591
   110  C   -0.028128
   111  N   -0.485368
   112  C    0.125876
   113  C   -0.223636
   114  C   -0.055338
   115  C    0.152263
   116  C    0.077588
   117  C    0.163251
   118  O   -0.174803
   119  C   -0.083101
   120  C    0.267172
   121  O   -0.273026
   122  O   -0.390016
   123  C    0.157579
   124  H   -0.025715
   125  H    0.021061
   126  H   -0.000259
   127  H    0.020563
   128  H    0.035028
   129  H    0.041911
   130  H    0.027839
   131  H    0.045251
   132  H    0.025038
   133  H    0.073871
   134  H    0.043893
   135  H    0.037045
   136  H    0.048540
   137  H    0.053693
   138  H    0.042017
   139  H    0.049856
   140  H    0.042866
   141  H    0.056115
   142  H    0.045901
   143  H    0.031621
   144  H    0.049278
   145  H    0.037514
   146  H    0.032025
   147  H    0.020945
   148  H    0.014776
   149  H    0.040166
   150  H    0.034867
   151  H    0.038237
   152  H    0.028693
   153  H    0.052667
   154  H    0.061933
   155  H    0.080177
   156  H    0.043671
   157  H    0.073837
   158  H    0.042415
 Sum of Mulliken charges =  -0.00000

 Dipole moment (field-independent basis, Debye):
    X=             -1.7202    Y=              0.4140    Z=              2.6629  Tot=              3.1971
 Quadrupole moment (field-independent basis, Debye-Ang):
   XX=           -199.2640   YY=           -486.0946   ZZ=           -497.6353
   XY=            -23.6280   XZ=            112.7341   YZ=             30.3242

 Normal termination of Gaussian 16 at Sun Sep 19 23:36:05 2021.
