 Gaussian 16, Revision A.03,
 Gaussian 16:  ES64L-G16RevA.03 25-Dec-2016

 --------------------------------
 #p wB97XD/Def2SVP td=(nstates=5)
 --------------------------------

 --------------------------------
 TDDFT excited states in gaussian
 --------------------------------
 Symbolic Z-matrix:
 Charge =  0 Multiplicity = 1

                         Standard orientation:
 ---------------------------------------------------------------------
 Center     Atomic      Atomic             Coordinates (Angstroms)
 Number     Number       Type             X           Y           Z
 ---------------------------------------------------------------------
      1         12           0      -25.309557   -0.416514   -0.070742
      2          6           0      -24.124266    2.756133   -0.881253
      3          6           0      -25.941765    0.664978    3.133246
      4          6           0      -26.164198   -3.607767    0.627712
      5          6           0      -24.240611   -1.518421   -3.297639
      6          7           0      -24.947375    1.451396    0.983409
      7          6           0      -24.486778    2.624741    0.471022
      8          6           0      -24.561624    3.755384    1.505299
      9          6           0      -25.018418    2.963303    2.809248
     10          6           0      -25.338638    1.575886    2.243197
     11          6           0      -23.914873    2.901372    3.858399
     12          6           0      -25.637331    4.866121    1.231868
     13          6           0      -25.364751    6.243252    1.778798
     14          1           0      -24.331465    6.424777    2.798650
     15          7           0      -26.033925   -1.297161    1.590302
     16          6           0      -26.216986   -0.664752    2.836306
     17          6           0      -26.902305   -1.615127    3.672468
     18          6           0      -27.037821   -2.845376    2.980800
     19          6           0      -26.393941   -2.627277    1.662034
     20          6           0      -27.187708   -1.372918    5.139190
     21          6           0      -27.687668   -4.108553    3.363643
     22          8           0      -27.551824   -5.141947    2.743959
     23          6           0      -28.478081   -4.218075    4.717807
     24          7           0      -25.389812   -2.333344   -1.230936
     25          6           0      -25.750344   -3.461026   -0.695161
     26          6           0      -25.607711   -4.641798   -1.702124
     27          6           0      -25.074479   -3.997882   -2.969012
     28          6           0      -24.814899   -2.517518   -2.511228
     29          6           0      -24.742387   -5.824731   -1.057841
     30          6           0      -26.026763   -4.150520   -4.173896
     31          6           0      -25.747888   -5.341273   -5.165476
     32          7           0      -24.646183    0.406611   -1.798231
     33          6           0      -24.246555   -0.151196   -3.038044
     34          6           0      -23.804331    0.850361   -3.931708
     35          6           0      -23.670824    2.009333   -3.054703
     36          6           0      -24.238560    1.642708   -1.801028
     37          6           0      -23.210875    0.618092   -5.309201
     38          6           0      -23.180180    3.337872   -3.075911
     39          8           0      -22.688709    4.019541   -3.966671
     40          6           0      -23.566728    3.939655   -1.569460
     41          6           0      -22.282367    4.497648   -1.030361
     42          8           0      -21.249900    3.840190   -0.862406
     43          8           0      -22.328771    5.912381   -0.853616
     44          6           0      -21.077582    6.543630   -0.328914
     45          1           0      -26.114410    1.075808    4.130898
     46          1           0      -26.281695   -4.631798    0.987279
     47          1           0      -23.944991   -1.789949   -4.312837
     48          1           0      -23.548404    4.146674    1.599504
     49          1           0      -25.877802    3.417252    3.302524
     50          1           0      -23.124756    3.620202    3.643069
     51          1           0      -23.527915    1.892583    4.004860
     52          1           0      -24.214730    3.280374    4.835433
     53          1           0      -26.589220    4.499543    1.614508
     54          1           0      -25.798326    4.880041    0.153691
     55          1           0      -26.271600    6.563803    2.291133
     56          1           0      -25.118314    6.910875    0.953139
     57          1           0      -26.616151   -2.023609    5.800937
     58          1           0      -28.261645   -1.483132    5.295289
     59          1           0      -26.934963   -0.383621    5.520310
     60          1           0      -27.723778   -4.383706    5.487460
     61          1           0      -29.066038   -5.135836    4.735322
     62          1           0      -29.005054   -3.290301    4.937249
     63          1           0      -26.634518   -4.991077   -1.812219
     64          1           0      -24.069734   -4.343804   -3.206829
     65          1           0      -23.884149   -6.058861   -1.687540
     66          1           0      -25.270610   -6.777421   -1.014775
     67          1           0      -24.412189   -5.426307   -0.097619
     68          1           0      -25.952566   -3.217602   -4.733809
     69          1           0      -27.035775   -4.211120   -3.765797
     70          1           0      -25.011148   -4.998120   -5.892668
     71          1           0      -26.589846   -5.821060   -5.664852
     72          1           0      -25.216202   -6.024584   -4.504145
     73          1           0      -24.090650    0.556495   -5.949216
     74          1           0      -22.664429   -0.323239   -5.353881
     75          1           0      -22.401798    1.285664   -5.608359
     76          1           0      -24.352741    4.687350   -1.682467
     77          1           0      -20.245314    6.420673   -1.021025
     78          1           0      -20.709839    6.232171    0.649129
     79          1           0      -21.394707    7.586290   -0.348619
     80         12           0       24.328542   -0.729971   -0.023036
     81          6           0       26.065746    2.263623   -0.730424
     82          6           0       22.910568    0.681518    2.598318
     83          6           0       23.462813   -3.863134    1.028929
     84          6           0       26.752347   -2.380876   -2.275785
     85          7           0       24.548996    1.257096    0.839142
     86          6           0       25.094837    2.350804    0.268925
     87          6           0       24.603132    3.607301    1.013918
     88          6           0       23.612281    3.118662    2.021285
     89          6           0       23.697177    1.570142    1.864646
     90          6           0       23.830058    3.748792    3.457526
     91          6           0       24.089136    4.821924    0.170793
     92          6           0       22.892532    5.749085    0.652997
     93          1           0       23.044939    7.271126    0.516684
     94          7           0       23.112003   -1.435008    1.468275
     95          6           0       22.604741   -0.656171    2.483735
     96          6           0       21.770449   -1.492730    3.298731
     97          6           0       21.921241   -2.879314    2.904867
     98          6           0       22.897420   -2.776129    1.797824
     99          6           0       21.069570   -0.873096    4.439155
    100          6           0       21.216446   -4.159599    3.417287
    101          8           0       21.518791   -5.222151    2.983618
    102          6           0       19.990362   -4.059072    4.265088
    103          7           0       25.080800   -2.824128   -0.538126
    104          6           0       24.410529   -3.873734   -0.011934
    105          6           0       24.911097   -5.237477   -0.586493
    106          6           0       25.934536   -4.786556   -1.673115
    107          6           0       25.965969   -3.246819   -1.508714
    108          6           0       25.521677   -6.181739    0.414705
    109          6           0       25.653746   -5.183902   -3.164513
    110          6           0       24.636834   -4.419519   -3.942772
    111          7           0       26.053771   -0.286380   -1.293415
    112          6           0       26.834720   -1.027898   -2.132909
    113          6           0       27.714271   -0.150432   -2.866055
    114          6           0       27.480179    1.160884   -2.374781
    115          6           0       26.489373    1.011355   -1.383234
    116          6           0       28.803077   -0.529031   -3.806979
    117          6           0       27.868460    2.540642   -2.444851
    118          8           0       28.664465    3.156858   -3.144081
    119          6           0       26.936955    3.329473   -1.418983
    120          6           0       27.717543    4.247070   -0.493124
    121          8           0       28.505479    3.858011    0.329876
    122          8           0       27.338310    5.559446   -0.726188
    123          6           0       28.065394    6.525935    0.097588
    124          1           0       22.246801    1.108809    3.353344
    125          1           0       23.098091   -4.826336    1.391059
    126          1           0       27.397827   -2.851369   -3.020269
    127          1           0       25.558162    3.919047    1.436830
    128          1           0       22.633243    3.496566    1.725429
    129          1           0       24.586113    4.531518    3.397908
    130          1           0       24.011314    2.928615    4.152134
    131          1           0       22.954917    4.314460    3.777827
    132          1           0       23.782164    4.419891   -0.795044
    133          1           0       24.894377    5.514214   -0.076410
    134          1           0       22.752463    5.482120    1.700666
    135          1           0       21.984103    5.456134    0.126517
    136          1           0       21.081750   -1.622515    5.230241
    137          1           0       20.033411   -0.729012    4.135320
    138          1           0       21.394558    0.073066    4.872211
    139          1           0       20.405274   -4.079167    5.271983
    140          1           0       19.296271   -4.850866    3.981655
    141          1           0       19.468410   -3.103366    4.212349
    142          1           0       24.133587   -5.748473   -1.154705
    143          1           0       26.992259   -5.014143   -1.544495
    144          1           0       25.344092   -5.847874    1.437831
    145          1           0       26.605614   -6.244491    0.314976
    146          1           0       25.041039   -7.143649    0.238069
    147          1           0       25.357089   -6.231636   -3.214172
    148          1           0       26.614146   -5.229300   -3.678500
    149          1           0       23.934565   -3.940997   -3.259905
    150          1           0       23.956445   -4.923836   -4.629310
    151          1           0       25.216863   -3.737140   -4.564894
    152          1           0       29.578719   -1.163290   -3.378769
    153          1           0       29.398038    0.375658   -3.934590
    154          1           0       28.410277   -0.936551   -4.738913
    155          1           0       26.248498    3.909152   -2.034211
    156          1           0       27.150686    6.752894    0.644343
    157          1           0       28.354394    7.295248   -0.618078
    158          1           0       28.878610    6.078222    0.669251
 ---------------------------------------------------------------------

 SCF Done:  E(RwB97XD) =  -4070.62407659     A.U. after   19 cycles

 Excitation energies and oscillator strengths:

 Excited State   1:      Singlet-A      1.6417 eV  755.22 nm  f=0.3830  <S**2>=0.000
     310 -> 316        0.19302
     312 -> 314        0.68166
     310 <- 316        0.12003
 This state for optimization and/or second-order correction.
 Total Energy, E(TD-HF/TD-DFT) =  -4070.56374543
 Copying the excited state density for this state as the 1-particle RhoCI density.

 Excited State   2:      Singlet-A      1.6919 eV  732.79 nm  f=0.3732  <S**2>=0.000
     309 -> 315        0.17799
     311 -> 313        0.68410
     309 <- 315        0.11254

 Excited State   3:      Singlet-A      2.1319 eV  581.57 nm  f=0.1054  <S**2>=0.000
     310 -> 314        0.64023
     312 -> 316       -0.28530

 Excited State   4:      Singlet-A      2.1734 eV  570.46 nm  f=0.1434  <S**2>=0.000
     309 -> 313        0.64712
     311 -> 315       -0.26330

 Excited State   5:      Singlet-A      3.3484 eV  370.28 nm  f=0.0010  <S**2>=0.000
     305 -> 314       -0.21666
     308 -> 314        0.65063

 The electronic state is 1-A.
 Alpha  occ. eigenvalues --  -46.96315 -46.94364 -19.29966 -19.29385 -19.24940
 Alpha  occ. eigenvalues --  -19.24586 -19.24400 -19.24389 -19.23664 -19.23234
 Alpha  occ. eigenvalues --  -14.47312 -14.46781 -14.46361 -14.46277 -14.44881
 Alpha  occ. eigenvalues --  -14.44094 -14.43936 -14.43374 -10.42949 -10.42935
 Alpha  occ. eigenvalues --  -10.39675 -10.39541 -10.38798 -10.38330 -10.35909
 Alpha  occ. eigenvalues --  -10.35734 -10.35663 -10.35367 -10.35128 -10.34977
 Alpha  occ. eigenvalues --  -10.34953 -10.34945 -10.34897 -10.34864 -10.34729
 Alpha  occ. eigenvalues --  -10.34698 -10.34335 -10.33998 -10.33594 -10.33468
 Alpha  occ. eigenvalues --  -10.33015 -10.32839 -10.32815 -10.32813 -10.32541
 Alpha  occ. eigenvalues --  -10.32424 -10.32304 -10.32231 -10.32085 -10.32083
 Alpha  occ. eigenvalues --  -10.32067 -10.32054 -10.32026 -10.31897 -10.31867
 Alpha  occ. eigenvalues --  -10.31862 -10.31810 -10.31693 -10.31682 -10.31656
 Alpha  occ. eigenvalues --  -10.31548 -10.31531 -10.31387 -10.31302 -10.30952
 Alpha  occ. eigenvalues --  -10.30833 -10.30809 -10.30744 -10.30738 -10.30489
 Alpha  occ. eigenvalues --  -10.30431 -10.30419 -10.30404 -10.30309 -10.30306
 Alpha  occ. eigenvalues --  -10.30242 -10.30034 -10.29911 -10.29768 -10.29708
 Alpha  occ. eigenvalues --  -10.29631 -10.29250 -10.28932 -10.28898 -10.28758
 Alpha  occ. eigenvalues --  -10.28523  -3.22109  -3.20473  -1.95662  -1.95232
 Alpha  occ. eigenvalues --   -1.95059  -1.94082  -1.93595  -1.93464  -1.18441
 Alpha  occ. eigenvalues --   -1.15595  -1.15112  -1.13445  -1.11426  -1.10829
 Alpha  occ. eigenvalues --   -1.10727  -1.08029  -1.07232  -1.06201  -1.05974
 Alpha  occ. eigenvalues --   -1.05423  -1.05119  -1.04570  -1.04500  -1.03857
 Alpha  occ. eigenvalues --   -0.94060  -0.93557  -0.91246  -0.91145  -0.90868
 Alpha  occ. eigenvalues --   -0.90722  -0.90380  -0.90174  -0.89816  -0.89432
 Alpha  occ. eigenvalues --   -0.89290  -0.89099  -0.88217  -0.88018  -0.86267
 Alpha  occ. eigenvalues --   -0.85864  -0.85579  -0.84909  -0.84436  -0.84170
 Alpha  occ. eigenvalues --   -0.83888  -0.83475  -0.82766  -0.82361  -0.82349
 Alpha  occ. eigenvalues --   -0.82008  -0.80826  -0.80249  -0.79207  -0.79044
 Alpha  occ. eigenvalues --   -0.78996  -0.78795  -0.77823  -0.77789  -0.77026
 Alpha  occ. eigenvalues --   -0.76583  -0.75142  -0.74303  -0.73635  -0.73415
 Alpha  occ. eigenvalues --   -0.71711  -0.71593  -0.71174  -0.70933  -0.70193
 Alpha  occ. eigenvalues --   -0.69977  -0.69339  -0.68918  -0.67748  -0.67210
 Alpha  occ. eigenvalues --   -0.66992  -0.66913  -0.66642  -0.66213  -0.66072
 Alpha  occ. eigenvalues --   -0.65988  -0.63671  -0.63410  -0.62456  -0.62028
 Alpha  occ. eigenvalues --   -0.61629  -0.61491  -0.61358  -0.60786  -0.60567
 Alpha  occ. eigenvalues --   -0.60301  -0.59961  -0.59769  -0.59371  -0.59339
 Alpha  occ. eigenvalues --   -0.58311  -0.58031  -0.57830  -0.57316  -0.57029
 Alpha  occ. eigenvalues --   -0.56975  -0.56592  -0.56512  -0.55981  -0.55981
 Alpha  occ. eigenvalues --   -0.55657  -0.55407  -0.55280  -0.55179  -0.54916
 Alpha  occ. eigenvalues --   -0.54694  -0.54466  -0.54305  -0.54276  -0.54253
 Alpha  occ. eigenvalues --   -0.53979  -0.53659  -0.53515  -0.53125  -0.52928
 Alpha  occ. eigenvalues --   -0.52860  -0.52744  -0.52537  -0.52502  -0.52218
 Alpha  occ. eigenvalues --   -0.52165  -0.51937  -0.51799  -0.51672  -0.51517
 Alpha  occ. eigenvalues --   -0.51414  -0.51235  -0.51091  -0.51034  -0.50919
 Alpha  occ. eigenvalues --   -0.50650  -0.50606  -0.50505  -0.50331  -0.50277
 Alpha  occ. eigenvalues --   -0.50085  -0.49630  -0.49627  -0.49449  -0.49229
 Alpha  occ. eigenvalues --   -0.49160  -0.49095  -0.49055  -0.48870  -0.48710
 Alpha  occ. eigenvalues --   -0.48642  -0.47951  -0.47778  -0.47738  -0.47446
 Alpha  occ. eigenvalues --   -0.47354  -0.47064  -0.46966  -0.46683  -0.46540
 Alpha  occ. eigenvalues --   -0.46527  -0.46494  -0.46255  -0.46232  -0.46110
 Alpha  occ. eigenvalues --   -0.45990  -0.45842  -0.45629  -0.45555  -0.45310
 Alpha  occ. eigenvalues --   -0.45204  -0.44975  -0.44963  -0.44891  -0.44848
 Alpha  occ. eigenvalues --   -0.44594  -0.44533  -0.44503  -0.44315  -0.43954
 Alpha  occ. eigenvalues --   -0.43948  -0.43788  -0.43753  -0.43486  -0.43402
 Alpha  occ. eigenvalues --   -0.43213  -0.42791  -0.42715  -0.42466  -0.42204
 Alpha  occ. eigenvalues --   -0.42006  -0.41805  -0.41353  -0.41085  -0.40828
 Alpha  occ. eigenvalues --   -0.40575  -0.40025  -0.39834  -0.39829  -0.39320
 Alpha  occ. eigenvalues --   -0.39274  -0.38994  -0.38983  -0.38133  -0.37902
 Alpha  occ. eigenvalues --   -0.37802  -0.37651  -0.36583  -0.36483  -0.35940
 Alpha  occ. eigenvalues --   -0.35579  -0.35546  -0.35357  -0.33878  -0.33739
 Alpha  occ. eigenvalues --   -0.33188  -0.33016  -0.32778  -0.32614  -0.32000
 Alpha  occ. eigenvalues --   -0.31776  -0.31622  -0.31491  -0.26171  -0.25722
 Alpha  occ. eigenvalues --   -0.23415  -0.22835
 Alpha virt. eigenvalues --   -0.07444  -0.06985   0.00225   0.00308   0.02213
 Alpha virt. eigenvalues --    0.02485   0.04265   0.04461   0.04652   0.06814
 Alpha virt. eigenvalues --    0.06868   0.07025   0.07812   0.07860   0.08516

 Mulliken charges:
               1
     1  Mg   0.981191
     2  C   -0.071185
     3  C   -0.108003
     4  C   -0.077322
     5  C   -0.077077
     6  N   -0.334100
     7  C    0.003394
     8  C   -0.040174
     9  C   -0.140189
    10  C    0.072907
    11  C    0.018696
    12  C    0.018281
    13  C   -0.105810
    14  H    0.036499
    15  N   -0.531785
    16  C    0.234340
    17  C   -0.151085
    18  C   -0.045617
    19  C    0.152486
    20  C    0.052024
    21  C    0.017230
    22  O   -0.224852
    23  C   -0.005352
    24  N   -0.321172
    25  C    0.055871
    26  C   -0.094142
    27  C   -0.043690
    28  C    0.027597
    29  C    0.014741
    30  C   -0.005380
    31  C   -0.042802
    32  N   -0.449162
    33  C    0.125082
    34  C   -0.138848
    35  C   -0.084690
    36  C    0.187843
    37  C    0.059622
    38  C    0.113497
    39  O   -0.211599
    40  C   -0.083792
    41  C    0.288705
    42  O   -0.260504
    43  O   -0.404769
    44  C    0.141050
    45  H    0.004090
    46  H    0.032141
    47  H    0.000469
    48  H    0.043785
    49  H    0.038842
    50  H    0.033311
    51  H    0.049250
    52  H    0.023056
    53  H    0.024372
    54  H    0.025383
    55  H    0.048842
    56  H    0.067395
    57  H    0.063467
    58  H    0.049963
    59  H    0.030826
    60  H    0.053337
    61  H    0.056036
    62  H    0.038231
    63  H    0.048318
    64  H    0.027364
    65  H    0.030045
    66  H    0.045690
    67  H    0.051186
    68  H    0.026160
    69  H    0.026681
    70  H    0.037030
    71  H    0.054596
    72  H    0.027400
    73  H    0.054158
    74  H    0.037463
    75  H    0.064142
    76  H    0.072280
    77  H    0.058568
    78  H    0.054392
    79  H    0.053774
    80  Mg   0.948215
    81  C   -0.025799
    82  C   -0.065351
    83  C   -0.063902
    84  C   -0.102312
    85  N   -0.370894
    86  C   -0.015721
    87  C   -0.028518
    88  C   -0.134457
    89  C    0.098513
    90  C    0.020626
    91  C   -0.030109
    92  C   -0.123687
    93  H    0.053555
    94  N   -0.508319
    95  C    0.144477
    96  C   -0.142164
    97  C   -0.082446
    98  C    0.113003
    99  C    0.033124
   100  C    0.056457
   101  O   -0.199126
   102  C   -0.017864
   103  N   -0.306614
   104  C    0.065650
   105  C   -0.068828
   106  C   -0.047961
   107  C    0.007224
   108  C    0.036429
   109  C   -0.047601
   110  C   -0.031089
   111  N   -0.393363
   112  C    0.166294
   113  C   -0.184868
   114  C   -0.031458
   115  C    0.106013
   116  C    0.061926
   117  C    0.130842
   118  O   -0.210232
   119  C   -0.060403
   120  C    0.252716
   121  O   -0.228679
   122  O   -0.379442
   123  C    0.117932
   124  H   -0.017309
   125  H    0.026197
   126  H   -0.005181
   127  H    0.048847
   128  H    0.042211
   129  H    0.042681
   130  H    0.050099
   131  H    0.032131
   132  H    0.030231
   133  H    0.046387
   134  H    0.034887
   135  H    0.055866
   136  H    0.037147
   137  H    0.055385
   138  H    0.058260
   139  H    0.064515
   140  H    0.073670
   141  H    0.037368
   142  H    0.039940
   143  H    0.035213
   144  H    0.044161
   145  H    0.034841
   146  H    0.041317
   147  H    0.023719
   148  H    0.022421
   149  H    0.035772
   150  H    0.033360
   151  H    0.037203
   152  H    0.045447
   153  H    0.051367
   154  H    0.052643
   155  H    0.070882
   156  H    0.051482
   157  H    0.068785
   158  H    0.086265
 Sum of Mulliken charges =  -0.00000

 Dipole moment (field-independent basis, Debye):
    X=             -8.2178    Y=             -0.9236    Z=              6.6375  Tot=             10.6039
 Quadrupole moment (field-independent basis, Debye-Ang):
   XX=           -626.4794   YY=           -498.8241   ZZ=           -484.3696
   XY=             -7.2656   XZ=            -81.8826   YZ=             57.4194

 Normal termination of Gaussian 16 at Mon Sep 20 09:14:30 2021.
