 Gaussian 16, Revision A.03,
 Gaussian 16:  ES64L-G16RevA.03 25-Dec-2016

 --------------------------------
 #p wB97XD/Def2SVP td=(nstates=5)
 --------------------------------

 --------------------------------
 TDDFT excited states in gaussian
 --------------------------------
 Symbolic Z-matrix:
 Charge =  0 Multiplicity = 1

                         Standard orientation:
 ---------------------------------------------------------------------
 Center     Atomic      Atomic             Coordinates (Angstroms)
 Number     Number       Type             X           Y           Z
 ---------------------------------------------------------------------
      1         12           0       -4.897553   -0.700331    0.192267
      2          6           0       -3.242401    2.272891    0.723626
      3          6           0       -7.879797    1.181892   -0.383704
      4          6           0       -6.620303   -3.487347    0.026902
      5          6           0       -1.999006   -2.494986    0.927914
      6          7           0       -5.404806    1.480546    0.184281
      7          6           0       -4.567243    2.500571    0.393120
      8          6           0       -5.335031    3.841988    0.156959
      9          6           0       -6.857199    3.410565   -0.062419
     10          6           0       -6.728096    1.875264   -0.037768
     11          6           0       -7.838970    3.763347    1.038405
     12          6           0       -4.751531    4.732824   -0.950106
     13          6           0       -4.535751    6.155142   -0.461082
     14          1           0       -4.557540    7.340627   -1.436924
     15          7           0       -6.950558   -1.079065   -0.212844
     16          6           0       -7.985055   -0.225133   -0.466151
     17          6           0       -9.171730   -0.899165   -0.753192
     18          6           0       -8.894073   -2.292399   -0.527049
     19          6           0       -7.420740   -2.348661   -0.230941
     20          6           0      -10.470028   -0.211149   -1.149336
     21          6           0       -9.853208   -3.471552   -0.529647
     22          8           0       -9.433482   -4.578277   -0.139340
     23          6           0      -11.280897   -3.316887   -0.863005
     24          7           0       -4.354155   -2.647783    0.411739
     25          6           0       -5.236730   -3.693974    0.237602
     26          6           0       -4.612157   -5.121530    0.458941
     27          6           0       -3.073369   -4.728123    0.465631
     28          6           0       -3.131076   -3.198586    0.632088
     29          6           0       -4.994599   -6.005237    1.711231
     30          6           0       -2.132930   -5.307853   -0.686254
     31          6           0       -2.244116   -4.621426   -2.021979
     32          7           0       -3.061060   -0.290694    0.843014
     33          6           0       -1.957310   -1.076543    1.114699
     34          6           0       -0.836719   -0.313267    1.485730
     35          6           0       -1.303195    0.993727    1.303598
     36          6           0       -2.671496    0.982049    0.904468
     37          6           0        0.464168   -0.925398    1.788945
     38          6           0       -0.865307    2.319486    1.515890
     39          8           0        0.207269    2.690958    1.996529
     40          6           0       -2.108599    3.275022    1.120729
     41          6           0       -2.447025    4.109123    2.260449
     42          8           0       -3.024928    3.764361    3.265816
     43          8           0       -1.930178    5.322934    2.114340
     44          6           0       -2.045830    6.262483    3.188436
     45          1           0       -8.795668    1.762904   -0.507014
     46          1           0       -7.056126   -4.488046    0.005224
     47          1           0       -1.115117   -3.095313    1.153522
     48          1           0       -5.237530    4.291512    1.144637
     49          1           0       -7.191904    3.978655   -0.931095
     50          1           0       -7.423246    4.379025    1.836599
     51          1           0       -8.184621    2.858745    1.538006
     52          1           0       -8.756069    4.160376    0.602159
     53          1           0       -5.333746    4.763495   -1.871242
     54          1           0       -3.801569    4.295309   -1.256216
     55          1           0       -3.513579    6.186134   -0.082111
     56          1           0       -5.289382    6.323638    0.307940
     57          1           0      -10.311828    0.840147   -1.390076
     58          1           0      -11.124137   -0.171001   -0.278064
     59          1           0      -11.002446   -0.783886   -1.907762
     60          1           0      -11.865880   -4.142082   -0.455300
     61          1           0      -11.360527   -3.387278   -1.948254
     62          1           0      -11.662252   -2.374838   -0.469776
     63          1           0       -4.683288   -5.747138   -0.431381
     64          1           0       -2.604161   -5.191730    1.332498
     65          1           0       -5.728821   -5.451064    2.294631
     66          1           0       -4.153282   -6.012800    2.405357
     67          1           0       -5.336340   -7.026383    1.539728
     68          1           0       -2.473482   -6.327728   -0.863411
     69          1           0       -1.086561   -5.404488   -0.399163
     70          1           0       -1.263311   -4.687713   -2.491564
     71          1           0       -2.611884   -3.599110   -2.100400
     72          1           0       -2.981419   -5.184492   -2.594226
     73          1           0        0.735899   -1.853395    1.286510
     74          1           0        0.736048   -0.975442    2.842617
     75          1           0        1.140843   -0.147836    1.435440
     76          1           0       -1.791336    3.903212    0.288592
     77          1           0       -2.960524    6.853144    3.126262
     78          1           0       -1.222433    6.968030    3.078979
     79          1           0       -2.038331    5.736292    4.143107
     80         12           0        5.131930   -0.672562   -0.295284
     81          6           0        2.931420    2.109620   -0.948762
     82          6           0        7.726266    1.673400   -0.043873
     83          6           0        7.130378   -3.177620    0.419407
     84          6           0        2.470814   -2.859186   -0.893838
     85          7           0        5.254479    1.675521   -0.515250
     86          6           0        4.232043    2.569809   -0.561338
     87          6           0        4.700328    3.985664   -0.267213
     88          6           0        6.325471    3.881141   -0.323033
     89          6           0        6.458862    2.330809   -0.319254
     90          6           0        6.989442    4.631836   -1.504469
     91          6           0        4.156875    4.531485    1.096356
     92          6           0        3.357125    5.854213    0.972012
     93          1           0        4.055394    7.120209    1.737631
     94          7           0        7.086605   -0.737836    0.122125
     95          6           0        8.067214    0.310376    0.164701
     96          6           0        9.424775   -0.167340    0.518726
     97          6           0        9.196574   -1.570609    0.701145
     98          6           0        7.782500   -1.869128    0.418895
     99          6           0       10.670654    0.716034    0.610436
    100          6           0       10.183123   -2.630996    1.011841
    101          8           0        9.915940   -3.767930    1.385675
    102          6           0       11.676774   -2.250713    1.001843
    103          7           0        4.785920   -2.666478   -0.084051
    104          6           0        5.790783   -3.528510    0.192862
    105          6           0        5.398602   -4.967597    0.004313
    106          6           0        3.897317   -4.910298   -0.371014
    107          6           0        3.650832   -3.385159   -0.406717
    108          6           0        6.283593   -5.746758   -0.945862
    109          6           0        2.983814   -5.627772    0.787351
    110          6           0        1.976041   -6.791455    0.269175
    111          7           0        3.164903   -0.474150   -1.077982
    112          6           0        2.183027   -1.489077   -1.178424
    113          6           0        0.917395   -0.848665   -1.554173
    114          6           0        1.169370    0.530453   -1.330067
    115          6           0        2.544695    0.705047   -1.168904
    116          6           0       -0.400212   -1.472284   -2.004559
    117          6           0        0.533735    1.864339   -1.523684
    118          8           0       -0.598809    2.274657   -1.901082
    119          6           0        1.657283    2.907078   -1.150557
    120          6           0        1.774687    3.899353   -2.269685
    121          8           0        1.787224    3.608269   -3.432227
    122          8           0        1.743102    5.167993   -1.760766
    123          6           0        1.511999    6.194880   -2.807977
    124          1           0        8.515466    2.424967   -0.109848
    125          1           0        7.742784   -4.053034    0.646685
    126          1           0        1.615938   -3.520480   -1.048286
    127          1           0        4.375368    4.590325   -1.113943
    128          1           0        6.797423    4.216623    0.600837
    129          1           0        7.465925    3.931448   -2.191043
    130          1           0        7.724820    5.348093   -1.135702
    131          1           0        6.334727    5.285053   -2.081370
    132          1           0        4.963908    4.729436    1.802251
    133          1           0        3.478733    3.822169    1.571546
    134          1           0        2.409802    5.833919    1.511408
    135          1           0        3.070849    6.130491   -0.042301
    136          1           0       10.511143    1.790836    0.702394
    137          1           0       11.409439    0.568728   -0.177281
    138          1           0       11.164880    0.403522    1.530868
    139          1           0       11.977035   -1.918269    0.008188
    140          1           0       12.313850   -3.062053    1.355541
    141          1           0       11.813800   -1.424625    1.699609
    142          1           0        5.565261   -5.486186    0.949417
    143          1           0        3.720498   -5.330800   -1.360533
    144          1           0        6.932916   -6.465289   -0.444916
    145          1           0        7.002697   -5.147723   -1.504445
    146          1           0        5.638828   -6.243058   -1.671462
    147          1           0        2.359262   -4.935317    1.350804
    148          1           0        3.587935   -6.114146    1.552782
    149          1           0        2.381575   -7.120368   -0.687824
    150          1           0        0.954129   -6.425531    0.161507
    151          1           0        2.044722   -7.682738    0.892327
    152          1           0       -1.262201   -0.881203   -1.695821
    153          1           0       -0.525965   -2.400658   -1.446198
    154          1           0       -0.231164   -1.682330   -3.060784
    155          1           0        1.265254    3.467154   -0.301977
    156          1           0        2.269501    6.048598   -3.577733
    157          1           0        1.756849    7.128932   -2.302551
    158          1           0        0.555723    6.217208   -3.330532
 ---------------------------------------------------------------------

 SCF Done:  E(RwB97XD) =  -4070.64291818     A.U. after   20 cycles

 Excitation energies and oscillator strengths:

 Excited State   1:      Singlet-A      1.5622 eV  793.67 nm  f=0.9389  <S**2>=0.000
     310 -> 315        0.10245
     311 -> 313        0.31595
     311 -> 314        0.40023
     312 -> 313        0.41231
     312 -> 314       -0.20278
 This state for optimization and/or second-order correction.
 Total Energy, E(TD-HF/TD-DFT) =  -4070.58550945
 Copying the excited state density for this state as the 1-particle RhoCI density.

 Excited State   2:      Singlet-A      1.6644 eV  744.94 nm  f=0.0289  <S**2>=0.000
     309 -> 315        0.10860
     310 -> 316        0.11907
     311 -> 313        0.44741
     312 -> 313       -0.12393
     312 -> 314        0.49829

 Excited State   3:      Singlet-A      2.0996 eV  590.51 nm  f=0.0273  <S**2>=0.000
     309 -> 313        0.27993
     309 -> 314        0.37576
     310 -> 313        0.45012
     311 -> 315       -0.21409
     312 -> 315       -0.11580

 Excited State   4:      Singlet-A      2.1517 eV  576.23 nm  f=0.2090  <S**2>=0.000
     309 -> 313        0.37917
     309 -> 314       -0.21436
     310 -> 313       -0.11432
     310 -> 314        0.46701
     311 -> 315       -0.12201
     312 -> 316       -0.21512

 Excited State   5:      Singlet-A      2.6438 eV  468.96 nm  f=0.0033  <S**2>=0.000
     311 -> 313       -0.34416
     311 -> 314        0.53428
     312 -> 313       -0.13653
     312 -> 314        0.25114

 The electronic state is 1-A.
 Alpha  occ. eigenvalues --  -46.94679 -46.93618 -19.30542 -19.29750 -19.24355
 Alpha  occ. eigenvalues --  -19.23897 -19.23808 -19.23711 -19.23210 -19.22981
 Alpha  occ. eigenvalues --  -14.47058 -14.46478 -14.46424 -14.46343 -14.45224
 Alpha  occ. eigenvalues --  -14.43940 -14.43674 -14.43186 -10.42303 -10.41726
 Alpha  occ. eigenvalues --  -10.39107 -10.39005 -10.38535 -10.38414 -10.35695
 Alpha  occ. eigenvalues --  -10.35580 -10.35475 -10.35445 -10.35227 -10.34971
 Alpha  occ. eigenvalues --  -10.34816 -10.34807 -10.34805 -10.34758 -10.34735
 Alpha  occ. eigenvalues --  -10.34663 -10.34438 -10.33860 -10.33800 -10.33046
 Alpha  occ. eigenvalues --  -10.33010 -10.32767 -10.32716 -10.32595 -10.32583
 Alpha  occ. eigenvalues --  -10.32577 -10.32420 -10.32406 -10.32247 -10.32216
 Alpha  occ. eigenvalues --  -10.32096 -10.32096 -10.32077 -10.31986 -10.31931
 Alpha  occ. eigenvalues --  -10.31768 -10.31691 -10.31518 -10.31498 -10.31421
 Alpha  occ. eigenvalues --  -10.31303 -10.31276 -10.31261 -10.31226 -10.31158
 Alpha  occ. eigenvalues --  -10.30972 -10.30860 -10.30797 -10.30662 -10.30387
 Alpha  occ. eigenvalues --  -10.30185 -10.30099 -10.30017 -10.29979 -10.29902
 Alpha  occ. eigenvalues --  -10.29882 -10.29851 -10.29844 -10.29785 -10.29566
 Alpha  occ. eigenvalues --  -10.29342 -10.29047 -10.28994 -10.28877 -10.28772
 Alpha  occ. eigenvalues --  -10.28228  -3.20758  -3.19815  -1.94347  -1.93883
 Alpha  occ. eigenvalues --   -1.93749  -1.93409  -1.92962  -1.92794  -1.19810
 Alpha  occ. eigenvalues --   -1.18802  -1.12096  -1.11103  -1.10577  -1.10416
 Alpha  occ. eigenvalues --   -1.09656  -1.09272  -1.06209  -1.05865  -1.05364
 Alpha  occ. eigenvalues --   -1.05048  -1.04954  -1.04469  -1.04173  -1.03882
 Alpha  occ. eigenvalues --   -0.93562  -0.93205  -0.90865  -0.90477  -0.90364
 Alpha  occ. eigenvalues --   -0.90294  -0.89952  -0.89517  -0.89275  -0.89153
 Alpha  occ. eigenvalues --   -0.89069  -0.88729  -0.88350  -0.87286  -0.86113
 Alpha  occ. eigenvalues --   -0.85580  -0.85516  -0.84979  -0.84597  -0.84001
 Alpha  occ. eigenvalues --   -0.83600  -0.83149  -0.82780  -0.82390  -0.82124
 Alpha  occ. eigenvalues --   -0.81534  -0.80896  -0.79945  -0.79029  -0.78931
 Alpha  occ. eigenvalues --   -0.78392  -0.78293  -0.77622  -0.77557  -0.77025
 Alpha  occ. eigenvalues --   -0.76847  -0.75006  -0.74339  -0.73219  -0.73089
 Alpha  occ. eigenvalues --   -0.71430  -0.71080  -0.70658  -0.70481  -0.69327
 Alpha  occ. eigenvalues --   -0.69105  -0.68730  -0.68593  -0.67810  -0.67245
 Alpha  occ. eigenvalues --   -0.66895  -0.66513  -0.66304  -0.66217  -0.66065
 Alpha  occ. eigenvalues --   -0.65813  -0.64104  -0.64017  -0.62727  -0.62087
 Alpha  occ. eigenvalues --   -0.61583  -0.61053  -0.60607  -0.60474  -0.60143
 Alpha  occ. eigenvalues --   -0.60108  -0.59907  -0.59613  -0.59303  -0.58770
 Alpha  occ. eigenvalues --   -0.58110  -0.58005  -0.57785  -0.57019  -0.56727
 Alpha  occ. eigenvalues --   -0.56686  -0.56430  -0.56315  -0.56036  -0.55561
 Alpha  occ. eigenvalues --   -0.55069  -0.55053  -0.54866  -0.54614  -0.54516
 Alpha  occ. eigenvalues --   -0.54486  -0.54162  -0.54097  -0.53952  -0.53553
 Alpha  occ. eigenvalues --   -0.53479  -0.53415  -0.53347  -0.53216  -0.52661
 Alpha  occ. eigenvalues --   -0.52313  -0.52248  -0.51957  -0.51953  -0.51782
 Alpha  occ. eigenvalues --   -0.51648  -0.51615  -0.51507  -0.51264  -0.51210
 Alpha  occ. eigenvalues --   -0.51003  -0.50935  -0.50838  -0.50785  -0.50514
 Alpha  occ. eigenvalues --   -0.50378  -0.50111  -0.50068  -0.49934  -0.49760
 Alpha  occ. eigenvalues --   -0.49696  -0.49456  -0.49355  -0.49243  -0.48976
 Alpha  occ. eigenvalues --   -0.48922  -0.48856  -0.48420  -0.48161  -0.48118
 Alpha  occ. eigenvalues --   -0.47983  -0.47793  -0.47658  -0.47441  -0.47273
 Alpha  occ. eigenvalues --   -0.47095  -0.47081  -0.46865  -0.46674  -0.46588
 Alpha  occ. eigenvalues --   -0.46368  -0.46356  -0.46272  -0.46114  -0.45870
 Alpha  occ. eigenvalues --   -0.45853  -0.45724  -0.45481  -0.45375  -0.45261
 Alpha  occ. eigenvalues --   -0.45127  -0.45011  -0.44656  -0.44630  -0.44355
 Alpha  occ. eigenvalues --   -0.44244  -0.44139  -0.44015  -0.43936  -0.43486
 Alpha  occ. eigenvalues --   -0.43287  -0.43243  -0.43059  -0.43019  -0.42814
 Alpha  occ. eigenvalues --   -0.42729  -0.42691  -0.42543  -0.42497  -0.42199
 Alpha  occ. eigenvalues --   -0.42085  -0.41931  -0.41369  -0.40801  -0.40667
 Alpha  occ. eigenvalues --   -0.40097  -0.39882  -0.39594  -0.39324  -0.39259
 Alpha  occ. eigenvalues --   -0.39071  -0.38726  -0.38339  -0.38226  -0.38051
 Alpha  occ. eigenvalues --   -0.37764  -0.37070  -0.36276  -0.35934  -0.35812
 Alpha  occ. eigenvalues --   -0.35440  -0.35097  -0.34936  -0.33707  -0.33295
 Alpha  occ. eigenvalues --   -0.32842  -0.32489  -0.32425  -0.32404  -0.32232
 Alpha  occ. eigenvalues --   -0.31925  -0.31610  -0.31126  -0.25706  -0.25527
 Alpha  occ. eigenvalues --   -0.22984  -0.22876
 Alpha virt. eigenvalues --   -0.07256  -0.07039   0.00220   0.00881   0.02182
 Alpha virt. eigenvalues --    0.02878   0.04242   0.04916   0.06823   0.06864
 Alpha virt. eigenvalues --    0.07394   0.07974   0.08178   0.08281   0.08489

 Mulliken charges:
               1
     1  Mg   0.990819
     2  C   -0.023458
     3  C   -0.104039
     4  C   -0.053489
     5  C   -0.109572
     6  N   -0.349484
     7  C   -0.031439
     8  C   -0.022402
     9  C   -0.162533
    10  C    0.116439
    11  C    0.006665
    12  C    0.031915
    13  C   -0.144825
    14  H    0.024694
    15  N   -0.425140
    16  C    0.159961
    17  C   -0.174975
    18  C   -0.075032
    19  C    0.171770
    20  C    0.066479
    21  C    0.037705
    22  O   -0.261194
    23  C    0.004884
    24  N   -0.396374
    25  C    0.029707
    26  C   -0.070467
    27  C   -0.071523
    28  C    0.086651
    29  C    0.029606
    30  C   -0.040781
    31  C   -0.059722
    32  N   -0.469968
    33  C    0.113119
    34  C   -0.139724
    35  C   -0.027548
    36  C    0.202984
    37  C    0.106211
    38  C    0.090619
    39  O   -0.234246
    40  C   -0.063920
    41  C    0.233571
    42  O   -0.252424
    43  O   -0.327892
    44  C    0.135853
    45  H   -0.002691
    46  H    0.020536
    47  H   -0.007878
    48  H    0.031084
    49  H    0.042920
    50  H    0.042819
    51  H    0.039411
    52  H    0.034248
    53  H    0.039243
    54  H    0.048142
    55  H    0.062825
    56  H    0.053711
    57  H    0.042535
    58  H    0.056216
    59  H    0.055852
    60  H    0.054925
    61  H    0.066720
    62  H    0.044706
    63  H    0.037765
    64  H    0.025178
    65  H    0.040200
    66  H    0.026589
    67  H    0.056093
    68  H    0.030117
    69  H    0.031698
    70  H    0.034116
    71  H    0.056604
    72  H    0.031367
    73  H    0.043575
    74  H    0.048437
    75  H    0.044158
    76  H    0.066531
    77  H    0.042794
    78  H    0.053539
    79  H    0.065737
    80  Mg   0.987979
    81  C   -0.004775
    82  C   -0.076574
    83  C   -0.088513
    84  C   -0.081950
    85  N   -0.298265
    86  C   -0.018694
    87  C   -0.054015
    88  C   -0.107283
    89  C    0.011503
    90  C    0.015917
    91  C    0.037350
    92  C   -0.137766
    93  H   -0.018343
    94  N   -0.512248
    95  C    0.177002
    96  C   -0.129439
    97  C   -0.071497
    98  C    0.183197
    99  C    0.070061
   100  C    0.029674
   101  O   -0.236980
   102  C   -0.016523
   103  N   -0.420941
   104  C    0.096769
   105  C   -0.079912
   106  C   -0.072441
   107  C    0.101295
   108  C    0.012915
   109  C   -0.029537
   110  C   -0.084190
   111  N   -0.419707
   112  C    0.096407
   113  C   -0.188984
   114  C   -0.112130
   115  C    0.141264
   116  C    0.110896
   117  C    0.196023
   118  O   -0.258022
   119  C   -0.082131
   120  C    0.233457
   121  O   -0.216891
   122  O   -0.367662
   123  C    0.134372
   124  H   -0.004072
   125  H    0.020121
   126  H   -0.010506
   127  H    0.039700
   128  H    0.043227
   129  H    0.046828
   130  H    0.034131
   131  H    0.041079
   132  H    0.046236
   133  H    0.066260
   134  H    0.064693
   135  H    0.055811
   136  H    0.047536
   137  H    0.062710
   138  H    0.045023
   139  H    0.052572
   140  H    0.053398
   141  H    0.038642
   142  H    0.046144
   143  H    0.047770
   144  H    0.040315
   145  H    0.042636
   146  H    0.028268
   147  H    0.038554
   148  H    0.036180
   149  H    0.029576
   150  H    0.048656
   151  H    0.042147
   152  H    0.071701
   153  H    0.011115
   154  H    0.063791
   155  H    0.076610
   156  H    0.049366
   157  H    0.052404
   158  H    0.073404
 Sum of Mulliken charges =  -0.00000

 Dipole moment (field-independent basis, Debye):
    X=              1.5701    Y=              1.5743    Z=             -1.6936  Tot=              2.7950
 Quadrupole moment (field-independent basis, Debye-Ang):
   XX=           -435.7854   YY=           -473.6938   ZZ=           -530.5731
   XY=              2.9470   XZ=              8.4836   YZ=              3.2713

 Normal termination of Gaussian 16 at Sun Sep 19 16:50:30 2021.
