 Gaussian 16, Revision A.03,
 Gaussian 16:  ES64L-G16RevA.03 25-Dec-2016

 --------------------------------
 #p wB97XD/Def2SVP td=(nstates=5)
 --------------------------------

 --------------------------------
 TDDFT excited states in gaussian
 --------------------------------
 Symbolic Z-matrix:
 Charge =  0 Multiplicity = 1

                         Standard orientation:
 ---------------------------------------------------------------------
 Center     Atomic      Atomic             Coordinates (Angstroms)
 Number     Number       Type             X           Y           Z
 ---------------------------------------------------------------------
      1         12           0        0.675385    0.073582   -0.171528
      2          6           0       -2.762374    0.019087    0.334634
      3          6           0        0.776172   -3.264947    0.268446
      4          6           0        4.041163    0.241458    0.115681
      5          6           0        0.596074    3.595294    0.209260
      6          7           0       -0.865818   -1.356938    0.156676
      7          6           0       -2.239614   -1.255424    0.186790
      8          6           0       -2.883667   -2.651802    0.407730
      9          6           0       -1.658555   -3.474347    0.913392
     10          6           0       -0.490293   -2.704532    0.315149
     11          6           0       -1.522300   -3.557451    2.474522
     12          6           0       -3.635786   -3.032772   -0.880593
     13          6           0       -4.961135   -3.653406   -0.651206
     14          1           0       -5.870998   -3.604935   -1.793972
     15          7           0        2.165562   -1.347987   -0.078163
     16          6           0        1.984472   -2.689147    0.035790
     17          6           0        3.233589   -3.344020   -0.261402
     18          6           0        4.214311   -2.288654   -0.311609
     19          6           0        3.487714   -1.054519    0.000865
     20          6           0        3.394096   -4.820286   -0.334139
     21          6           0        5.769614   -2.333237   -0.465155
     22          8           0        6.467862   -1.317891   -0.496900
     23          6           0        6.490123   -3.625874   -0.728830
     24          7           0        2.077542    1.697669    0.468598
     25          6           0        3.479211    1.486633    0.360068
     26          6           0        4.278818    2.743249    0.461788
     27          6           0        3.116050    3.769443    0.264732
     28          6           0        1.823665    2.957461    0.245799
     29          6           0        5.077501    2.890693    1.801046
     30          6           0        3.239631    4.607675   -1.059897
     31          6           0        3.446244    3.786336   -2.358007
     32          7           0       -0.761255    1.549921    0.088805
     33          6           0       -0.653203    2.946516    0.175766
     34          6           0       -1.970108    3.444661    0.316608
     35          6           0       -2.804747    2.334560    0.352476
     36          6           0       -2.025793    1.232156    0.224172
     37          6           0       -2.351599    4.890157    0.357344
     38          6           0       -4.123721    1.949391    0.544959
     39          8           0       -5.132157    2.651745    0.741436
     40          6           0       -4.239770    0.395260    0.539293
     41          6           0       -5.200698    0.109106   -0.656659
     42          8           0       -4.928637    0.280876   -1.858229
     43          8           0       -6.402457   -0.361862   -0.139023
     44          6           0       -7.578508   -0.471364   -1.059602
     45          1           0        0.690702   -4.323940    0.521106
     46          1           0        5.102145    0.499864    0.077939
     47          1           0        0.491892    4.678753    0.120756
     48          1           0       -3.678475   -2.588404    1.150179
     49          1           0       -1.677362   -4.461330    0.452160
     50          1           0       -2.329409   -3.106260    3.052379
     51          1           0       -0.660366   -2.984469    2.813974
     52          1           0       -1.511269   -4.606954    2.767956
     53          1           0       -3.041077   -3.819681   -1.342375
     54          1           0       -3.706676   -2.137102   -1.498317
     55          1           0       -5.428388   -3.062407    0.136682
     56          1           0       -4.808375   -4.658862   -0.259497
     57          1           0        2.436492   -5.318682   -0.483585
     58          1           0        4.021887   -5.134832    0.500231
     59          1           0        3.961591   -5.074823   -1.229338
     60          1           0        7.500315   -3.451707   -0.357619
     61          1           0        6.556445   -3.821921   -1.799249
     62          1           0        6.056521   -4.457611   -0.172711
     63          1           0        4.992922    2.880032   -0.351485
     64          1           0        3.099235    4.445940    1.119840
     65          1           0        4.628326    2.241506    2.553129
     66          1           0        5.116176    3.886662    2.242519
     67          1           0        6.131371    2.613737    1.761246
     68          1           0        4.028854    5.336742   -0.875558
     69          1           0        2.318155    5.189638   -1.073604
     70          1           0        2.656289    3.953028   -3.090596
     71          1           0        3.488916    2.738381   -2.059939
     72          1           0        4.381682    4.026133   -2.862645
     73          1           0       -2.904522    5.022502    1.287280
     74          1           0       -2.937001    5.103274   -0.537063
     75          1           0       -1.520499    5.592745    0.419773
     76          1           0       -4.726929    0.088397    1.464445
     77          1           0       -7.765238    0.536266   -1.430280
     78          1           0       -8.513202   -0.849366   -0.645517
     79          1           0       -7.113298   -1.139014   -1.784862
 ---------------------------------------------------------------------

 SCF Done:  E(RwB97XD) =  -2035.31055901     A.U. after   19 cycles

 Excitation energies and oscillator strengths:

 Excited State   1:      Singlet-A      1.6038 eV  773.05 nm  f=0.3775  <S**2>=0.000
     155 ->158        -0.16832
     156 ->157         0.68666
     155 <-158        -0.11358
 This state for optimization and/or second-order correction.
 Total Energy, E(TD-HF/TD-DFT) =  -2035.25161967
 Copying the excited state density for this state as the 1-particle RhoCI density.

 Excited State   2:      Singlet-A      2.1619 eV  573.50 nm  f=0.1250  <S**2>=0.000
     155 ->157         0.64155
     156 ->158         0.27544

 Excited State   3:      Singlet-A      3.2511 eV  381.36 nm  f=0.0002  <S**2>=0.000
     152 ->157        -0.18457
     152 ->159         0.10979
     152 ->160        -0.12691
     153 ->157         0.55502
     154 ->157        -0.31343

 Excited State   4:      Singlet-A      3.2829 eV  377.67 nm  f=0.0002  <S**2>=0.000
     152 ->157         0.51332
     152 ->159        -0.21566
     152 ->160         0.20341
     154 ->157        -0.34882

 Excited State   5:      Singlet-A      3.3580 eV  369.22 nm  f=0.0026  <S**2>=0.000
     152 ->157         0.24278
     153 ->157         0.35628
     154 ->157         0.47691
     156 ->158        -0.22534

 The electronic state is 1-A.
 Alpha  occ. eigenvalues --  -46.94668 -19.29991 -19.24985 -19.23740 -19.22756
 Alpha  occ. eigenvalues --  -14.46561 -14.46075 -14.43920 -14.43114 -10.43944
 Alpha  occ. eigenvalues --  -10.39238 -10.37672 -10.35731 -10.35015 -10.34559
 Alpha  occ. eigenvalues --  -10.34339 -10.34234 -10.34217 -10.33371 -10.33163
 Alpha  occ. eigenvalues --  -10.32406 -10.32344 -10.32340 -10.32210 -10.31976
 Alpha  occ. eigenvalues --  -10.31821 -10.31803 -10.31606 -10.31592 -10.31250
 Alpha  occ. eigenvalues --  -10.31058 -10.30915 -10.30789 -10.30529 -10.30332
 Alpha  occ. eigenvalues --  -10.30247 -10.29966 -10.29784 -10.29690 -10.29672
 Alpha  occ. eigenvalues --  -10.29639 -10.29401 -10.27819  -3.20697  -1.94267
 Alpha  occ. eigenvalues --   -1.93826  -1.93670  -1.16600  -1.11662  -1.10193
 Alpha  occ. eigenvalues --   -1.08869  -1.06861  -1.05924  -1.05523  -1.04235
 Alpha  occ. eigenvalues --   -0.94549  -0.91018  -0.90918  -0.90456  -0.89708
 Alpha  occ. eigenvalues --   -0.89077  -0.88473  -0.86491  -0.85444  -0.84057
 Alpha  occ. eigenvalues --   -0.83519  -0.82939  -0.82349  -0.80151  -0.78986
 Alpha  occ. eigenvalues --   -0.78859  -0.77959  -0.77392  -0.75242  -0.74002
 Alpha  occ. eigenvalues --   -0.71706  -0.70749  -0.69519  -0.68487  -0.67328
 Alpha  occ. eigenvalues --   -0.66589  -0.66452  -0.66041  -0.63596  -0.61874
 Alpha  occ. eigenvalues --   -0.61757  -0.61134  -0.60435  -0.59561  -0.58962
 Alpha  occ. eigenvalues --   -0.57945  -0.57564  -0.57267  -0.56970  -0.56725
 Alpha  occ. eigenvalues --   -0.55440  -0.54965  -0.54895  -0.54767  -0.54380
 Alpha  occ. eigenvalues --   -0.53855  -0.53634  -0.53395  -0.52419  -0.52275
 Alpha  occ. eigenvalues --   -0.51557  -0.51336  -0.51094  -0.50818  -0.50685
 Alpha  occ. eigenvalues --   -0.50450  -0.50027  -0.49903  -0.49637  -0.49321
 Alpha  occ. eigenvalues --   -0.49001  -0.48517  -0.48205  -0.47889  -0.47644
 Alpha  occ. eigenvalues --   -0.47392  -0.46544  -0.46404  -0.46075  -0.45683
 Alpha  occ. eigenvalues --   -0.45380  -0.45375  -0.45117  -0.45001  -0.44597
 Alpha  occ. eigenvalues --   -0.44301  -0.43858  -0.43753  -0.43509  -0.43055
 Alpha  occ. eigenvalues --   -0.42807  -0.42606  -0.42154  -0.41864  -0.41054
 Alpha  occ. eigenvalues --   -0.40180  -0.39968  -0.39286  -0.38887  -0.38540
 Alpha  occ. eigenvalues --   -0.38083  -0.36165  -0.36103  -0.35469  -0.33536
 Alpha  occ. eigenvalues --   -0.32735  -0.32048  -0.31914  -0.31537  -0.26157
 Alpha  occ. eigenvalues --   -0.22999
 Alpha virt. eigenvalues --   -0.07354   0.00433   0.02606   0.04465   0.05403
 Alpha virt. eigenvalues --    0.07135   0.07428   0.09233   0.10163   0.10882
 Alpha virt. eigenvalues --    0.11362   0.12521   0.13244   0.13882   0.14174

 Mulliken charges:
               1
     1  Mg   0.955866
     2  C   -0.066743
     3  C   -0.119182
     4  C   -0.020939
     5  C   -0.102806
     6  N   -0.406777
     7  C    0.019959
     8  C   -0.101562
     9  C   -0.087818
    10  C    0.033948
    11  C    0.034862
    12  C    0.039876
    13  C   -0.123665
    14  H    0.052819
    15  N   -0.463934
    16  C    0.229688
    17  C   -0.175537
    18  C   -0.078305
    19  C    0.188209
    20  C    0.069113
    21  C    0.055757
    22  O   -0.248562
    23  C   -0.006171
    24  N   -0.316521
    25  C   -0.057298
    26  C   -0.058195
    27  C   -0.099722
    28  C    0.111881
    29  C    0.018219
    30  C   -0.021912
    31  C   -0.053875
    32  N   -0.434940
    33  C    0.116947
    34  C   -0.197888
    35  C    0.053983
    36  C    0.194334
    37  C    0.092959
    38  C    0.016699
    39  O   -0.242781
    40  C   -0.028857
    41  C    0.287607
    42  O   -0.268770
    43  O   -0.389783
    44  C    0.142346
    45  H   -0.000929
    46  H    0.018632
    47  H    0.002564
    48  H    0.020118
    49  H    0.019452
    50  H    0.035614
    51  H    0.053073
    52  H    0.043471
    53  H    0.021631
    54  H    0.065551
    55  H    0.039938
    56  H    0.040152
    57  H    0.041089
    58  H    0.067717
    59  H    0.043149
    60  H    0.054697
    61  H    0.075048
    62  H    0.027203
    63  H    0.045803
    64  H    0.030930
    65  H    0.039598
    66  H    0.032779
    67  H    0.042657
    68  H    0.031243
    69  H    0.022893
    70  H    0.046449
    71  H    0.045745
    72  H    0.042279
    73  H    0.058150
    74  H    0.067999
    75  H    0.019626
    76  H    0.066941
    77  H    0.068314
    78  H    0.069556
    79  H    0.058334
 Sum of Mulliken charges =  -0.00000

 Dipole moment (field-independent basis, Debye):
    X=              1.5566    Y=             -3.2561    Z=              0.3995  Tot=              3.6310
 Quadrupole moment (field-independent basis, Debye-Ang):
   XX=           -263.1730   YY=           -223.5941   ZZ=           -257.2225
   XY=             18.4043   XZ=              0.3146   YZ=             -2.5203

 Normal termination of Gaussian 16 at Sun Sep 19 11:37:31 2021.
