 Gaussian 16, Revision A.03,
 Gaussian 16:  ES64L-G16RevA.03 25-Dec-2016

 --------------------------------
 #p wB97XD/Def2SVP td=(nstates=5)
 --------------------------------

 --------------------------------
 TDDFT excited states in gaussian
 --------------------------------
 Symbolic Z-matrix:
 Charge =  0 Multiplicity = 1

                         Standard orientation:
 ---------------------------------------------------------------------
 Center     Atomic      Atomic             Coordinates (Angstroms)
 Number     Number       Type             X           Y           Z
 ---------------------------------------------------------------------
      1         12           0      -25.476293   -0.666675   -0.241213
      2          6           0      -23.549769    2.250330   -0.353114
      3          6           0      -27.805544    1.176129    1.552291
      4          6           0      -27.071878   -3.458161    0.241475
      5          6           0      -22.834879   -2.359539   -1.884631
      6          7           0      -25.475662    1.411311    0.878086
      7          6           0      -24.670868    2.419559    0.527137
      8          6           0      -25.176852    3.656803    1.190355
      9          6           0      -26.293066    3.172757    2.148132
     10          6           0      -26.590987    1.839858    1.490538
     11          6           0      -26.013982    3.058561    3.647810
     12          6           0      -25.710511    4.697243    0.155197
     13          6           0      -25.231035    6.181317    0.256236
     14          1           0      -24.856527    6.766466    1.653642
     15          7           0      -27.315944   -1.064883    0.653703
     16          6           0      -28.179908   -0.103902    1.161880
     17          6           0      -29.373112   -0.789706    1.538066
     18          6           0      -29.149362   -2.202499    1.286081
     19          6           0      -27.824112   -2.319639    0.696271
     20          6           0      -30.591131   -0.124751    2.215829
     21          6           0      -30.051385   -3.427644    1.611505
     22          8           0      -29.762399   -4.558326    1.378144
     23          6           0      -31.409262   -3.112292    2.207415
     24          7           0      -24.994169   -2.599010   -0.772590
     25          6           0      -25.808245   -3.609113   -0.392652
     26          6           0      -25.319758   -5.014604   -0.839362
     27          6           0      -24.091089   -4.596582   -1.756178
     28          6           0      -23.949893   -3.100203   -1.503683
     29          6           0      -24.963841   -5.941927    0.460649
     30          6           0      -24.231953   -5.053126   -3.242291
     31          6           0      -24.734904   -4.037417   -4.252400
     32          7           0      -23.556710   -0.212011   -1.038655
     33          6           0      -22.660377   -0.970679   -1.741909
     34          6           0      -21.506113   -0.087794   -2.133718
     35          6           0      -21.836086    1.178830   -1.600809
     36          6           0      -23.080598    1.070293   -0.896240
     37          6           0      -20.206068   -0.498544   -2.770085
     38          6           0      -21.389665    2.562714   -1.460677
     39          8           0      -20.346547    3.070382   -1.882283
     40          6           0      -22.549680    3.304838   -0.803660
     41          6           0      -21.948301    4.064441    0.343953
     42          8           0      -21.635279    3.582334    1.417080
     43          8           0      -21.667922    5.267916   -0.128345
     44          6           0      -20.718245    6.090498    0.604463
     45          1           0      -28.471003    1.707169    2.235431
     46          1           0      -27.671057   -4.370699    0.232024
     47          1           0      -22.027568   -2.879785   -2.404890
     48          1           0      -24.353725    4.121321    1.732369
     49          1           0      -27.089010    3.914311    2.078559
     50          1           0      -25.025965    3.375399    3.982255
     51          1           0      -26.161901    2.031069    3.981371
     52          1           0      -26.758146    3.684721    4.139496
     53          1           0      -26.795363    4.690814    0.051662
     54          1           0      -25.318047    4.246628   -0.756300
     55          1           0      -26.077139    6.745750   -0.137739
     56          1           0      -24.370820    6.312812   -0.399653
     57          1           0      -30.890710   -0.616369    3.141443
     58          1           0      -31.497687   -0.213872    1.617034
     59          1           0      -30.469157    0.939753    2.420285
     60          1           0      -31.962138   -2.370285    1.630974
     61          1           0      -31.258814   -2.813422    3.244863
     62          1           0      -31.986415   -4.027447    2.339520
     63          1           0      -26.068342   -5.552192   -1.421100
     64          1           0      -23.158648   -5.081205   -1.467051
     65          1           0      -23.875658   -6.005985    0.454701
     66          1           0      -25.275115   -6.981052    0.351463
     67          1           0      -25.225829   -5.487475    1.416793
     68          1           0      -25.026745   -5.798434   -3.208850
     69          1           0      -23.329058   -5.532907   -3.619485
     70          1           0      -25.562182   -3.545236   -3.739606
     71          1           0      -25.045760   -4.688919   -5.068775
     72          1           0      -24.105948   -3.206139   -4.569942
     73          1           0      -20.010590   -1.559975   -2.922883
     74          1           0      -19.379143   -0.135970   -2.159317
     75          1           0      -20.154638    0.070686   -3.697683
     76          1           0      -22.975754    4.109486   -1.403238
     77          1           0      -20.185103    5.678558    1.460700
     78          1           0      -21.356024    6.869367    1.023565
     79          1           0      -20.223570    6.751749   -0.107083
     80         12           0       24.765274   -0.854168    0.285366
     81          6           0       24.295109    2.443095   -1.087876
     82          6           0       24.936944    0.481594    3.341845
     83          6           0       26.056526   -3.767612    1.322314
     84          6           0       25.026933   -1.995255   -3.021250
     85          7           0       24.684970    1.198640    1.000448
     86          6           0       24.298134    2.366709    0.321581
     87          6           0       24.014112    3.547599    1.326264
     88          6           0       24.296187    2.886325    2.709274
     89          6           0       24.607949    1.410258    2.345372
     90          6           0       25.379154    3.498246    3.561176
     91          6           0       22.534487    4.185191    1.143465
     92          6           0       22.496755    5.707220    0.958650
     93          1           0       21.638997    6.461805    2.041336
     94          7           0       25.280418   -1.592478    2.122597
     95          6           0       25.299025   -0.908276    3.270947
     96          6           0       25.761145   -1.737802    4.385141
     97          6           0       26.177133   -2.959146    3.750936
     98          6           0       25.861559   -2.818929    2.325511
     99          6           0       25.787504   -1.278549    5.779638
    100          6           0       26.916048   -4.115100    4.495647
    101          8           0       27.197229   -5.164763    3.941854
    102          6           0       27.306935   -4.030293    5.936615
    103          7           0       25.414220   -2.562214   -0.693358
    104          6           0       25.800958   -3.710518   -0.010705
    105          6           0       26.062359   -4.891185   -1.002610
    106          6           0       25.386453   -4.384784   -2.331157
    107          6           0       25.205910   -2.903366   -2.000750
    108          6           0       27.521476   -5.441556   -1.114316
    109          6           0       24.026727   -5.063611   -2.652116
    110          6           0       23.710366   -5.409227   -4.085358
    111          7           0       24.734938    0.018554   -1.672263
    112          6           0       24.854241   -0.576267   -2.896158
    113          6           0       24.563725    0.466709   -3.974410
    114          6           0       24.292247    1.638558   -3.310482
    115          6           0       24.477434    1.336241   -1.917796
    116          6           0       24.497060    0.124465   -5.445419
    117          6           0       23.958655    3.047510   -3.420345
    118          8           0       23.764426    3.638058   -4.503409
    119          6           0       24.037745    3.696132   -1.912711
    120          6           0       25.159954    4.692311   -1.708211
    121          8           0       26.339921    4.388862   -1.973636
    122          8           0       24.691865    5.966936   -1.386286
    123          6           0       25.700771    6.997519   -1.602075
    124          1           0       24.896877    0.830182    4.375730
    125          1           0       26.416876   -4.702518    1.755771
    126          1           0       25.001948   -2.448068   -4.015094
    127          1           0       24.757213    4.288171    1.031189
    128          1           0       23.411467    3.113161    3.305771
    129          1           0       25.887751    4.331626    3.076319
    130          1           0       26.103201    2.684616    3.534470
    131          1           0       25.018845    3.856113    4.526122
    132          1           0       22.024541    3.867421    2.052477
    133          1           0       22.019060    3.657873    0.341177
    134          1           0       22.162321    5.887431   -0.063003
    135          1           0       23.509235    6.103036    1.047820
    136          1           0       26.716742   -1.306601    6.347841
    137          1           0       25.254927   -2.054824    6.327874
    138          1           0       25.191580   -0.390923    5.993123
    139          1           0       26.366961   -3.910658    6.476685
    140          1           0       27.863023   -3.099545    6.052200
    141          1           0       27.873221   -4.938093    6.140952
    142          1           0       25.456248   -5.702191   -0.598806
    143          1           0       26.060551   -4.411011   -3.186991
    144          1           0       28.061585   -4.923504   -0.322173
    145          1           0       27.967808   -5.331307   -2.102202
    146          1           0       27.596245   -6.477332   -0.780832
    147          1           0       23.379484   -4.267945   -2.283712
    148          1           0       23.806079   -5.950443   -2.057674
    149          1           0       23.260834   -6.401758   -4.053113
    150          1           0       24.597912   -5.481809   -4.714750
    151          1           0       22.895970   -4.746014   -4.377966
    152          1           0       24.729117   -0.936345   -5.538171
    153          1           0       25.304483    0.652700   -5.952013
    154          1           0       23.532361    0.431575   -5.848821
    155          1           0       23.062396    4.118930   -1.671782
    156          1           0       25.502179    7.678220   -2.428745
    157          1           0       26.711360    6.611093   -1.735081
    158          1           0       25.725808    7.590285   -0.688050
 ---------------------------------------------------------------------

 SCF Done:  E(RwB97XD) =  -4070.59523672     A.U. after   19 cycles

 Excitation energies and oscillator strengths:

 Excited State   1:      Singlet-A      1.6412 eV  755.46 nm  f=0.4127  <S**2>=0.000
     309 -> 316       -0.17864
     312 -> 314        0.68584
     309 <- 316       -0.11673
 This state for optimization and/or second-order correction.
 Total Energy, E(TD-HF/TD-DFT) =  -4070.53492485
 Copying the excited state density for this state as the 1-particle RhoCI density.

 Excited State   2:      Singlet-A      1.6771 eV  739.27 nm  f=0.3974  <S**2>=0.000
     310 -> 315        0.19190
     311 -> 313        0.68163
     310 <- 315        0.11865

 Excited State   3:      Singlet-A      2.1599 eV  574.04 nm  f=0.0975  <S**2>=0.000
     310 -> 313        0.64014
     311 -> 315       -0.28504

 Excited State   4:      Singlet-A      2.2310 eV  555.73 nm  f=0.0894  <S**2>=0.000
     309 -> 314        0.62832
     312 -> 316        0.31484

 Excited State   5:      Singlet-A      3.3636 eV  368.61 nm  f=0.0023  <S**2>=0.000
     306 -> 313       -0.35475
     308 -> 313        0.58083

 The electronic state is 1-A.
 Alpha  occ. eigenvalues --  -46.95136 -46.94740 -19.31936 -19.31516 -19.25821
 Alpha  occ. eigenvalues --  -19.25066 -19.24646 -19.24560 -19.23570 -19.23527
 Alpha  occ. eigenvalues --  -14.47181 -14.46364 -14.46248 -14.46192 -14.44309
 Alpha  occ. eigenvalues --  -14.43964 -14.43932 -14.43306 -10.44720 -10.43047
 Alpha  occ. eigenvalues --  -10.40610 -10.39568 -10.38857 -10.38396 -10.35831
 Alpha  occ. eigenvalues --  -10.35668 -10.35484 -10.35329 -10.35144 -10.34958
 Alpha  occ. eigenvalues --  -10.34791 -10.34761 -10.34737 -10.34357 -10.34114
 Alpha  occ. eigenvalues --  -10.34039 -10.33765 -10.33706 -10.33636 -10.33541
 Alpha  occ. eigenvalues --  -10.33491 -10.33479 -10.33358 -10.33185 -10.33059
 Alpha  occ. eigenvalues --  -10.33013 -10.32922 -10.32644 -10.32443 -10.32410
 Alpha  occ. eigenvalues --  -10.32392 -10.32338 -10.32178 -10.32140 -10.31738
 Alpha  occ. eigenvalues --  -10.31628 -10.31501 -10.31415 -10.31291 -10.31263
 Alpha  occ. eigenvalues --  -10.31197 -10.31127 -10.31050 -10.31009 -10.30994
 Alpha  occ. eigenvalues --  -10.30724 -10.30634 -10.30607 -10.30549 -10.30432
 Alpha  occ. eigenvalues --  -10.30345 -10.30276 -10.30049 -10.29994 -10.29956
 Alpha  occ. eigenvalues --  -10.29946 -10.29837 -10.29820 -10.29810 -10.29362
 Alpha  occ. eigenvalues --  -10.29338 -10.29237 -10.29220 -10.29202 -10.29043
 Alpha  occ. eigenvalues --  -10.28900  -3.21043  -3.20814  -1.94638  -1.94387
 Alpha  occ. eigenvalues --   -1.94200  -1.93971  -1.93925  -1.93813  -1.20574
 Alpha  occ. eigenvalues --   -1.18531  -1.13524  -1.12284  -1.11930  -1.11343
 Alpha  occ. eigenvalues --   -1.10905  -1.10172  -1.07032  -1.05926  -1.05787
 Alpha  occ. eigenvalues --   -1.05330  -1.04684  -1.04634  -1.03910  -1.03865
 Alpha  occ. eigenvalues --   -0.95414  -0.94637  -0.90994  -0.90604  -0.90599
 Alpha  occ. eigenvalues --   -0.90494  -0.89942  -0.89920  -0.89286  -0.89136
 Alpha  occ. eigenvalues --   -0.89036  -0.88241  -0.88077  -0.87440  -0.86390
 Alpha  occ. eigenvalues --   -0.86193  -0.85625  -0.85556  -0.84618  -0.84514
 Alpha  occ. eigenvalues --   -0.83833  -0.83357  -0.83164  -0.82710  -0.82194
 Alpha  occ. eigenvalues --   -0.81968  -0.80381  -0.79884  -0.79536  -0.79318
 Alpha  occ. eigenvalues --   -0.78916  -0.78875  -0.78236  -0.78143  -0.77043
 Alpha  occ. eigenvalues --   -0.76650  -0.74701  -0.74457  -0.73701  -0.72949
 Alpha  occ. eigenvalues --   -0.71469  -0.71012  -0.70897  -0.70333  -0.70008
 Alpha  occ. eigenvalues --   -0.69836  -0.68678  -0.68072  -0.67263  -0.67255
 Alpha  occ. eigenvalues --   -0.66941  -0.66913  -0.66899  -0.66635  -0.66361
 Alpha  occ. eigenvalues --   -0.66345  -0.64822  -0.64595  -0.62252  -0.61843
 Alpha  occ. eigenvalues --   -0.61751  -0.61661  -0.61187  -0.60888  -0.60502
 Alpha  occ. eigenvalues --   -0.60489  -0.60343  -0.60113  -0.59318  -0.59311
 Alpha  occ. eigenvalues --   -0.58844  -0.58250  -0.58011  -0.57408  -0.57054
 Alpha  occ. eigenvalues --   -0.56925  -0.56854  -0.56751  -0.56654  -0.55705
 Alpha  occ. eigenvalues --   -0.55599  -0.55445  -0.55218  -0.55115  -0.54839
 Alpha  occ. eigenvalues --   -0.54540  -0.54457  -0.54357  -0.53903  -0.53760
 Alpha  occ. eigenvalues --   -0.53615  -0.53546  -0.53446  -0.53349  -0.53182
 Alpha  occ. eigenvalues --   -0.53151  -0.53063  -0.53004  -0.52775  -0.52183
 Alpha  occ. eigenvalues --   -0.52140  -0.51632  -0.51560  -0.51340  -0.51330
 Alpha  occ. eigenvalues --   -0.51113  -0.51068  -0.50766  -0.50727  -0.50636
 Alpha  occ. eigenvalues --   -0.50570  -0.50319  -0.50260  -0.50078  -0.50023
 Alpha  occ. eigenvalues --   -0.49896  -0.49867  -0.49265  -0.49183  -0.48927
 Alpha  occ. eigenvalues --   -0.48825  -0.48685  -0.48426  -0.48329  -0.47956
 Alpha  occ. eigenvalues --   -0.47936  -0.47889  -0.47840  -0.47800  -0.47607
 Alpha  occ. eigenvalues --   -0.47599  -0.47543  -0.47332  -0.47321  -0.46964
 Alpha  occ. eigenvalues --   -0.46753  -0.46503  -0.46435  -0.46319  -0.46073
 Alpha  occ. eigenvalues --   -0.45947  -0.45718  -0.45714  -0.45554  -0.45336
 Alpha  occ. eigenvalues --   -0.45174  -0.45151  -0.45037  -0.44954  -0.44910
 Alpha  occ. eigenvalues --   -0.44817  -0.44644  -0.44597  -0.44111  -0.43724
 Alpha  occ. eigenvalues --   -0.43717  -0.43632  -0.43554  -0.43116  -0.43032
 Alpha  occ. eigenvalues --   -0.42959  -0.42684  -0.42605  -0.42456  -0.42173
 Alpha  occ. eigenvalues --   -0.42091  -0.41546  -0.41425  -0.41203  -0.41027
 Alpha  occ. eigenvalues --   -0.40294  -0.40205  -0.39746  -0.39486  -0.39431
 Alpha  occ. eigenvalues --   -0.39197  -0.39032  -0.38795  -0.38500  -0.38434
 Alpha  occ. eigenvalues --   -0.38155  -0.38034  -0.37085  -0.36434  -0.36423
 Alpha  occ. eigenvalues --   -0.36096  -0.35349  -0.35160  -0.33707  -0.33509
 Alpha  occ. eigenvalues --   -0.33457  -0.33010  -0.32608  -0.32575  -0.32284
 Alpha  occ. eigenvalues --   -0.32160  -0.31936  -0.31082  -0.26096  -0.25727
 Alpha  occ. eigenvalues --   -0.22888  -0.22577
 Alpha virt. eigenvalues --   -0.06840  -0.06764   0.00388   0.00595   0.01977
 Alpha virt. eigenvalues --    0.02208   0.04287   0.04885   0.04980   0.05117
 Alpha virt. eigenvalues --    0.05882   0.07002   0.07685   0.07858   0.08015

 Mulliken charges:
               1
     1  Mg   0.943725
     2  C   -0.009834
     3  C   -0.053669
     4  C   -0.049903
     5  C   -0.089555
     6  N   -0.281435
     7  C    0.032636
     8  C   -0.102482
     9  C   -0.079064
    10  C   -0.023179
    11  C    0.044039
    12  C   -0.008103
    13  C   -0.108867
    14  H    0.034710
    15  N   -0.486512
    16  C    0.194389
    17  C   -0.162025
    18  C   -0.110841
    19  C    0.127476
    20  C    0.066669
    21  C    0.057623
    22  O   -0.197954
    23  C   -0.025142
    24  N   -0.388232
    25  C    0.068328
    26  C   -0.106300
    27  C   -0.052068
    28  C    0.081328
    29  C    0.014971
    30  C   -0.034384
    31  C   -0.035143
    32  N   -0.431035
    33  C    0.126721
    34  C   -0.181567
    35  C   -0.031572
    36  C    0.144707
    37  C    0.071987
    38  C    0.142836
    39  O   -0.213889
    40  C   -0.092759
    41  C    0.223891
    42  O   -0.247880
    43  O   -0.327109
    44  C    0.146648
    45  H   -0.006222
    46  H    0.024701
    47  H   -0.006547
    48  H    0.040499
    49  H    0.020991
    50  H    0.046966
    51  H    0.041496
    52  H    0.029958
    53  H    0.038474
    54  H    0.025603
    55  H    0.053013
    56  H    0.060574
    57  H    0.037203
    58  H    0.040681
    59  H    0.034229
    60  H    0.057483
    61  H    0.052157
    62  H    0.039933
    63  H    0.050019
    64  H    0.031423
    65  H    0.019116
    66  H    0.045895
    67  H    0.058985
    68  H    0.022774
    69  H    0.029633
    70  H    0.030065
    71  H    0.044306
    72  H    0.041686
    73  H    0.038408
    74  H    0.061877
    75  H    0.059416
    76  H    0.073400
    77  H    0.085479
    78  H    0.026938
    79  H    0.057203
    80  Mg   0.976260
    81  C   -0.099575
    82  C   -0.080733
    83  C   -0.088238
    84  C   -0.101362
    85  N   -0.370323
    86  C   -0.011630
    87  C   -0.072312
    88  C   -0.107083
    89  C    0.104676
    90  C    0.024235
    91  C    0.006613
    92  C   -0.108834
    93  H    0.027729
    94  N   -0.454685
    95  C    0.114079
    96  C   -0.149685
    97  C   -0.076249
    98  C    0.118189
    99  C    0.069540
   100  C    0.031617
   101  O   -0.238345
   102  C    0.011581
   103  N   -0.401092
   104  C    0.093454
   105  C   -0.058184
   106  C   -0.103745
   107  C    0.063780
   108  C    0.035215
   109  C   -0.016673
   110  C   -0.026200
   111  N   -0.388854
   112  C    0.149121
   113  C   -0.228892
   114  C    0.015775
   115  C    0.154310
   116  C    0.098516
   117  C    0.146868
   118  O   -0.221199
   119  C   -0.037522
   120  C    0.292860
   121  O   -0.256318
   122  O   -0.367190
   123  C    0.121125
   124  H   -0.014052
   125  H    0.016131
   126  H   -0.003752
   127  H    0.041639
   128  H    0.034179
   129  H    0.028894
   130  H    0.041576
   131  H    0.042984
   132  H    0.032000
   133  H    0.037969
   134  H    0.064347
   135  H    0.054496
   136  H    0.046765
   137  H    0.028261
   138  H    0.042630
   139  H    0.049470
   140  H    0.052131
   141  H    0.067751
   142  H    0.030985
   143  H    0.029176
   144  H    0.038572
   145  H    0.045330
   146  H    0.035503
   147  H    0.029353
   148  H    0.034951
   149  H    0.028936
   150  H    0.041845
   151  H    0.043815
   152  H    0.023029
   153  H    0.059013
   154  H    0.067089
   155  H    0.058242
   156  H    0.063450
   157  H    0.072054
   158  H    0.044621
 Sum of Mulliken charges =  -0.00000

 Dipole moment (field-independent basis, Debye):
    X=             -3.6099    Y=              2.0021    Z=              2.3747  Tot=              4.7623
 Quadrupole moment (field-independent basis, Debye-Ang):
   XX=           -538.0845   YY=           -482.6061   ZZ=           -495.8751
   XY=            -61.1324   XZ=             87.6306   YZ=             45.7295

 Normal termination of Gaussian 16 at Mon Sep 20 21:10:45 2021.
