 Gaussian 16, Revision A.03,
 Gaussian 16:  ES64L-G16RevA.03 25-Dec-2016

 --------------------------------
 #p wB97XD/Def2SVP td=(nstates=5)
 --------------------------------

 --------------------------------
 TDDFT excited states in gaussian
 --------------------------------
 Symbolic Z-matrix:
 Charge =  0 Multiplicity = 1

                         Standard orientation:
 ---------------------------------------------------------------------
 Center     Atomic      Atomic             Coordinates (Angstroms)
 Number     Number       Type             X           Y           Z
 ---------------------------------------------------------------------
      1         12           0      -30.724114   -0.072999   -0.216344
      2          6           0      -27.377855    0.528692   -0.041651
      3          6           0      -30.115512   -3.118877    1.326860
      4          6           0      -34.050915   -0.492231   -0.045357
      5          6           0      -31.293825    3.273014   -1.146612
      6          7           0      -28.955379   -1.049044    0.789085
      7          6           0      -27.695094   -0.587637    0.661967
      8          6           0      -26.708138   -1.416310    1.399935
      9          6           0      -27.582832   -2.814527    1.511292
     10          6           0      -29.009587   -2.323243    1.187971
     11          6           0      -27.045070   -3.940038    0.579074
     12          6           0      -26.430188   -0.794636    2.759356
     13          6           0      -27.651743   -0.495821    3.746396
     14          1           0      -27.515733   -0.754047    5.241795
     15          7           0      -31.920117   -1.577991    0.529358
     16          6           0      -31.479995   -2.836481    1.011823
     17          6           0      -32.636265   -3.657317    1.151169
     18          6           0      -33.784466   -2.946708    0.824036
     19          6           0      -33.321412   -1.624565    0.370055
     20          6           0      -32.443573   -5.083239    1.625938
     21          6           0      -35.218668   -3.395522    0.971879
     22          8           0      -35.381183   -4.552568    1.433453
     23          6           0      -36.373515   -2.572556    0.837372
     24          7           0      -32.422092    1.299311   -0.346292
     25          6           0      -33.705166    0.839133   -0.298730
     26          6           0      -34.720236    1.981095   -0.544204
     27          6           0      -33.790700    3.190605   -0.897804
     28          6           0      -32.409341    2.584006   -0.718120
     29          6           0      -35.749166    1.657110   -1.606227
     30          6           0      -34.085628    4.458829    0.067682
     31          6           0      -34.092549    5.808861   -0.658505
     32          7           0      -29.595823    1.663034   -0.566574
     33          6           0      -29.907942    2.863028   -1.120862
     34          6           0      -28.666644    3.492541   -1.481094
     35          6           0      -27.580685    2.618661   -1.128223
     36          6           0      -28.217275    1.532544   -0.550683
     37          6           0      -28.510634    4.918441   -1.885743
     38          6           0      -26.171814    2.413334   -1.023501
     39          8           0      -25.315917    3.203758   -1.440666
     40          6           0      -25.998365    1.059259   -0.360727
     41          6           0      -25.222599    0.183455   -1.272291
     42          8           0      -24.122421    0.541209   -1.644567
     43          8           0      -25.807864   -1.015935   -1.541562
     44          6           0      -25.040529   -1.898977   -2.422101
     45          1           0      -29.903862   -4.166714    1.549264
     46          1           0      -35.104835   -0.726855   -0.207582
     47          1           0      -31.380613    4.260244   -1.605892
     48          1           0      -25.729168   -1.575992    0.947917
     49          1           0      -27.439987   -3.285417    2.484767
     50          1           0      -26.777221   -4.815682    1.169219
     51          1           0      -26.133191   -3.558440    0.119004
     52          1           0      -27.723849   -4.229950   -0.224044
     53          1           0      -25.820129    0.091751    2.584225
     54          1           0      -25.671917   -1.464824    3.164115
     55          1           0      -28.577499   -1.028406    3.528210
     56          1           0      -27.752846    0.584392    3.645549
     57          1           0      -32.417544   -5.023740    2.714164
     58          1           0      -31.473504   -5.440769    1.282895
     59          1           0      -33.196371   -5.805718    1.309206
     60          1           0      -37.191662   -2.915528    1.471489
     61          1           0      -36.666409   -2.396577   -0.198488
     62          1           0      -36.096000   -1.631491    1.310281
     63          1           0      -35.178375    2.116201    0.436192
     64          1           0      -33.877955    3.414980   -1.960711
     65          1           0      -35.699443    0.632711   -1.974364
     66          1           0      -35.906034    2.313980   -2.461381
     67          1           0      -36.671976    1.603760   -1.027842
     68          1           0      -33.374699    4.564461    0.887214
     69          1           0      -35.023364    4.349289    0.612142
     70          1           0      -35.124582    6.153317   -0.718687
     71          1           0      -33.777541    5.641900   -1.688771
     72          1           0      -33.484131    6.563712   -0.160140
     73          1           0      -28.899825    5.211164   -2.860163
     74          1           0      -27.438777    5.112689   -1.831786
     75          1           0      -29.018838    5.597269   -1.200807
     76          1           0      -25.418340    1.238570    0.545017
     77          1           0      -24.067747   -2.066135   -1.958766
     78          1           0      -24.959156   -1.528778   -3.444201
     79          1           0      -25.588183   -2.821930   -2.612147
     80         12           0       30.661023    0.356595   -0.345416
     81          6           0       27.774029   -1.415374   -0.040130
     82          6           0       28.876449    3.268107    0.574847
     83          6           0       33.581407    1.799418    0.392014
     84          6           0       32.488881   -2.733152   -0.739139
     85          7           0       28.595311    0.813131    0.160530
     86          6           0       27.583233    0.015097    0.247486
     87          6           0       26.210284    0.765003    0.380846
     88          6           0       26.580635    2.293761    0.281289
     89          6           0       28.143646    2.176492    0.303813
     90          6           0       25.897060    3.088012   -0.832589
     91          6           0       25.387844    0.317821    1.730116
     92          6           0       26.164623   -0.271022    2.896581
     93          1           0       25.560546   -0.293533    4.300666
     94          7           0       31.145474    2.272113    0.392428
     95          6           0       30.308734    3.333720    0.639905
     96          6           0       31.052080    4.417504    1.117651
     97          6           0       32.446355    4.025828    1.123618
     98          6           0       32.450687    2.614919    0.655039
     99          6           0       30.398743    5.767242    1.351675
    100          6           0       33.600908    4.945035    1.561666
    101          8           0       33.312697    6.103223    1.938404
    102          6           0       34.991008    4.591892    1.580549
    103          7           0       32.795950   -0.424013   -0.035344
    104          6           0       33.745232    0.462587    0.064926
    105          6           0       35.166718   -0.146903   -0.098394
    106          6           0       34.825552   -1.594354   -0.514890
    107          6           0       33.245487   -1.658754   -0.464945
    108          6           0       36.015107    0.527743   -1.115152
    109          6           0       35.544156   -2.691276    0.403713
    110          6           0       36.676716   -3.551689   -0.293498
    111          7           0       30.288483   -1.664546   -0.506499
    112          6           0       31.077932   -2.805591   -0.696721
    113          6           0       30.178117   -3.996706   -0.796509
    114          6           0       28.911824   -3.472208   -0.501032
    115          6           0       29.018450   -2.064292   -0.297829
    116          6           0       30.516224   -5.382657   -1.059077
    117          6           0       27.600299   -3.888997   -0.299909
    118          8           0       27.027810   -4.986300   -0.372157
    119          6           0       26.784840   -2.582087   -0.086601
    120          6           0       25.670651   -2.529992   -1.158865
    121          8           0       24.473177   -2.387675   -0.979006
    122          8           0       26.171082   -2.661877   -2.436157
    123          6           0       25.210310   -2.667752   -3.545720
    124          1           0       28.249799    4.096953    0.910202
    125          1           0       34.570393    2.256755    0.461268
    126          1           0       33.035989   -3.632722   -1.028417
    127          1           0       25.668433    0.570017   -0.544999
    128          1           0       26.366167    2.829640    1.206439
    129          1           0       26.641599    3.418556   -1.556553
    130          1           0       25.403339    3.984761   -0.456393
    131          1           0       25.088841    2.573905   -1.352836
    132          1           0       24.642489   -0.356178    1.307232
    133          1           0       24.877046    1.126783    2.252829
    134          1           0       27.077097    0.324574    2.905293
    135          1           0       26.448792   -1.271961    2.571321
    136          1           0       30.779499    6.650898    0.838885
    137          1           0       30.346780    5.945550    2.425991
    138          1           0       29.352287    5.708398    1.053018
    139          1           0       35.461991    4.326866    0.634123
    140          1           0       35.137612    3.660701    2.126884
    141          1           0       35.616075    5.303071    2.119664
    142          1           0       35.833704   -0.155680    0.763571
    143          1           0       35.029973   -1.799443   -1.565792
    144          1           0       36.799813    1.166958   -0.710803
    145          1           0       35.439077    1.275888   -1.660909
    146          1           0       36.463510   -0.210178   -1.780164
    147          1           0       34.795623   -3.431807    0.688766
    148          1           0       36.074825   -2.282124    1.262350
    149          1           0       37.548599   -3.603558    0.357391
    150          1           0       37.025602   -2.999032   -1.165917
    151          1           0       36.250898   -4.551194   -0.383560
    152          1           0       31.395307   -5.327474   -1.701584
    153          1           0       29.706685   -5.881638   -1.592979
    154          1           0       30.621722   -5.859357   -0.084987
    155          1           0       26.114182   -2.629494    0.771035
    156          1           0       25.663121   -3.192295   -4.387314
    157          1           0       24.911893   -1.710759   -3.973443
    158          1           0       24.239639   -3.090868   -3.285462
 ---------------------------------------------------------------------

 SCF Done:  E(RwB97XD) =  -4070.57705108     A.U. after   19 cycles

 Excitation energies and oscillator strengths:

 Excited State   1:      Singlet-A      1.6548 eV  749.23 nm  f=0.4320  <S**2>=0.000
     309 -> 315       -0.16632
     311 -> 313        0.68664
     309 <- 315       -0.11152
 This state for optimization and/or second-order correction.
 Total Energy, E(TD-HF/TD-DFT) =  -4070.51623755
 Copying the excited state density for this state as the 1-particle RhoCI density.

 Excited State   2:      Singlet-A      1.6885 eV  734.30 nm  f=0.3920  <S**2>=0.000
     310 -> 316        0.18197
     312 -> 314        0.68311
     310 <- 316        0.11275

 Excited State   3:      Singlet-A      2.1632 eV  573.14 nm  f=0.1265  <S**2>=0.000
     310 -> 314        0.64774
     312 -> 316       -0.25642

 Excited State   4:      Singlet-A      2.1980 eV  564.06 nm  f=0.1158  <S**2>=0.000
     309 -> 313        0.64043
     311 -> 315        0.27516

 Excited State   5:      Singlet-A      3.2251 eV  384.44 nm  f=0.0080  <S**2>=0.000
     302 -> 313        0.15919
     308 -> 313        0.66793
     308 -> 317        0.10501

 The electronic state is 1-A.
 Alpha  occ. eigenvalues --  -46.96670 -46.95463 -19.31581 -19.30166 -19.25094
 Alpha  occ. eigenvalues --  -19.24409 -19.24119 -19.23303 -19.23231 -19.22388
 Alpha  occ. eigenvalues --  -14.47806 -14.46663 -14.46651 -14.46496 -14.45179
 Alpha  occ. eigenvalues --  -14.44440 -14.44376 -14.43166 -10.43629 -10.43287
 Alpha  occ. eigenvalues --  -10.38812 -10.38800 -10.38431 -10.38159 -10.37073
 Alpha  occ. eigenvalues --  -10.36475 -10.35914 -10.35735 -10.35330 -10.35329
 Alpha  occ. eigenvalues --  -10.35277 -10.35229 -10.34746 -10.34694 -10.34613
 Alpha  occ. eigenvalues --  -10.34496 -10.34480 -10.34472 -10.34178 -10.33864
 Alpha  occ. eigenvalues --  -10.33521 -10.33362 -10.33159 -10.33025 -10.32945
 Alpha  occ. eigenvalues --  -10.32920 -10.32587 -10.32552 -10.32502 -10.32451
 Alpha  occ. eigenvalues --  -10.32432 -10.32413 -10.32391 -10.32339 -10.32160
 Alpha  occ. eigenvalues --  -10.32087 -10.31804 -10.31733 -10.31594 -10.31521
 Alpha  occ. eigenvalues --  -10.31434 -10.31365 -10.31260 -10.31182 -10.31144
 Alpha  occ. eigenvalues --  -10.31123 -10.31070 -10.31057 -10.30926 -10.30841
 Alpha  occ. eigenvalues --  -10.30793 -10.30775 -10.30738 -10.30420 -10.30338
 Alpha  occ. eigenvalues --  -10.30253 -10.30208 -10.29994 -10.29856 -10.29733
 Alpha  occ. eigenvalues --  -10.29516 -10.29460 -10.29418 -10.28808 -10.28768
 Alpha  occ. eigenvalues --  -10.28548  -3.22542  -3.21368  -1.96103  -1.95693
 Alpha  occ. eigenvalues --   -1.95474  -1.94930  -1.94508  -1.94318  -1.19569
 Alpha  occ. eigenvalues --   -1.18350  -1.11365  -1.11228  -1.10629  -1.10194
 Alpha  occ. eigenvalues --   -1.09758  -1.09603  -1.07057  -1.06977  -1.06537
 Alpha  occ. eigenvalues --   -1.06514  -1.05722  -1.04735  -1.04231  -1.03594
 Alpha  occ. eigenvalues --   -0.96043  -0.95052  -0.91611  -0.91286  -0.91233
 Alpha  occ. eigenvalues --   -0.90910  -0.90905  -0.90628  -0.90330  -0.89705
 Alpha  occ. eigenvalues --   -0.89685  -0.88336  -0.87776  -0.87191  -0.87014
 Alpha  occ. eigenvalues --   -0.86560  -0.86065  -0.86003  -0.85285  -0.84826
 Alpha  occ. eigenvalues --   -0.84697  -0.84407  -0.83445  -0.83387  -0.82849
 Alpha  occ. eigenvalues --   -0.82265  -0.80564  -0.80445  -0.79966  -0.79340
 Alpha  occ. eigenvalues --   -0.78967  -0.78870  -0.78297  -0.78053  -0.77217
 Alpha  occ. eigenvalues --   -0.76926  -0.75407  -0.74473  -0.74111  -0.73942
 Alpha  occ. eigenvalues --   -0.72074  -0.71617  -0.71070  -0.70841  -0.70784
 Alpha  occ. eigenvalues --   -0.70343  -0.69161  -0.68822  -0.68475  -0.67945
 Alpha  occ. eigenvalues --   -0.67631  -0.67340  -0.67201  -0.66827  -0.66541
 Alpha  occ. eigenvalues --   -0.66355  -0.65799  -0.65354  -0.62889  -0.62217
 Alpha  occ. eigenvalues --   -0.61987  -0.61702  -0.61328  -0.60922  -0.60725
 Alpha  occ. eigenvalues --   -0.60525  -0.60371  -0.60024  -0.60009  -0.59229
 Alpha  occ. eigenvalues --   -0.58739  -0.58573  -0.58292  -0.57769  -0.57605
 Alpha  occ. eigenvalues --   -0.57592  -0.57087  -0.56740  -0.56483  -0.56461
 Alpha  occ. eigenvalues --   -0.56209  -0.55841  -0.55694  -0.55439  -0.55431
 Alpha  occ. eigenvalues --   -0.55200  -0.55019  -0.54786  -0.54593  -0.54454
 Alpha  occ. eigenvalues --   -0.54162  -0.53805  -0.53710  -0.53409  -0.53335
 Alpha  occ. eigenvalues --   -0.53252  -0.53012  -0.52838  -0.52809  -0.52603
 Alpha  occ. eigenvalues --   -0.52318  -0.52251  -0.51895  -0.51572  -0.51473
 Alpha  occ. eigenvalues --   -0.51426  -0.51160  -0.51042  -0.50920  -0.50747
 Alpha  occ. eigenvalues --   -0.50693  -0.50580  -0.50471  -0.50410  -0.50247
 Alpha  occ. eigenvalues --   -0.50061  -0.49559  -0.49542  -0.49337  -0.49119
 Alpha  occ. eigenvalues --   -0.49028  -0.48800  -0.48735  -0.48652  -0.48410
 Alpha  occ. eigenvalues --   -0.48374  -0.48102  -0.48001  -0.47848  -0.47667
 Alpha  occ. eigenvalues --   -0.47656  -0.47551  -0.47182  -0.47136  -0.46964
 Alpha  occ. eigenvalues --   -0.46825  -0.46816  -0.46580  -0.46534  -0.46513
 Alpha  occ. eigenvalues --   -0.46470  -0.46383  -0.45741  -0.45690  -0.45569
 Alpha  occ. eigenvalues --   -0.45503  -0.44741  -0.44699  -0.44544  -0.44321
 Alpha  occ. eigenvalues --   -0.44226  -0.44182  -0.44171  -0.44058  -0.43886
 Alpha  occ. eigenvalues --   -0.43829  -0.43734  -0.43413  -0.43299  -0.43070
 Alpha  occ. eigenvalues --   -0.42929  -0.42867  -0.42750  -0.42608  -0.42344
 Alpha  occ. eigenvalues --   -0.41971  -0.41756  -0.41423  -0.41091  -0.40973
 Alpha  occ. eigenvalues --   -0.40665  -0.40654  -0.40101  -0.39795  -0.39791
 Alpha  occ. eigenvalues --   -0.39697  -0.39464  -0.38985  -0.38809  -0.38504
 Alpha  occ. eigenvalues --   -0.38398  -0.37884  -0.36807  -0.36711  -0.36312
 Alpha  occ. eigenvalues --   -0.36240  -0.35971  -0.35289  -0.33988  -0.33788
 Alpha  occ. eigenvalues --   -0.33190  -0.33133  -0.32813  -0.32388  -0.32304
 Alpha  occ. eigenvalues --   -0.32014  -0.31129  -0.31128  -0.26863  -0.26217
 Alpha  occ. eigenvalues --   -0.23470  -0.23470
 Alpha virt. eigenvalues --   -0.07876  -0.07490   0.00037   0.00057   0.02002
 Alpha virt. eigenvalues --    0.02223   0.03816   0.04129   0.04364   0.04470
 Alpha virt. eigenvalues --    0.07201   0.07367   0.07615   0.08030   0.08035

 Mulliken charges:
               1
     1  Mg   0.931503
     2  C   -0.001120
     3  C   -0.065803
     4  C   -0.091595
     5  C   -0.077525
     6  N   -0.307329
     7  C    0.004103
     8  C   -0.074200
     9  C   -0.126381
    10  C    0.080345
    11  C    0.020529
    12  C    0.007787
    13  C   -0.131035
    14  H    0.036922
    15  N   -0.514524
    16  C    0.148845
    17  C   -0.151824
    18  C   -0.055444
    19  C    0.178160
    20  C    0.087327
    21  C    0.034431
    22  O   -0.271016
    23  C    0.017034
    24  N   -0.324763
    25  C    0.043641
    26  C   -0.057496
    27  C   -0.088548
    28  C    0.106044
    29  C    0.017485
    30  C   -0.009871
    31  C   -0.055793
    32  N   -0.439739
    33  C    0.094713
    34  C   -0.179734
    35  C    0.011901
    36  C    0.117534
    37  C    0.048039
    38  C    0.070976
    39  O   -0.201889
    40  C   -0.081041
    41  C    0.256984
    42  O   -0.227838
    43  O   -0.352604
    44  C    0.138919
    45  H   -0.003848
    46  H   -0.037262
    47  H   -0.005217
    48  H    0.022139
    49  H    0.037587
    50  H    0.038113
    51  H    0.026462
    52  H    0.039072
    53  H    0.025065
    54  H    0.032740
    55  H    0.077996
    56  H    0.066405
    57  H    0.053656
    58  H    0.029919
    59  H    0.063935
    60  H    0.061103
    61  H    0.077279
    62  H    0.047641
    63  H    0.049737
    64  H    0.040762
    65  H    0.036104
    66  H    0.051912
    67  H    0.027108
    68  H    0.036491
    69  H    0.027981
    70  H    0.034945
    71  H    0.031358
    72  H    0.047287
    73  H    0.038321
    74  H    0.058184
    75  H    0.037799
    76  H    0.089656
    77  H    0.063424
    78  H    0.059051
    79  H    0.050986
    80  Mg   0.957167
    81  C    0.004134
    82  C   -0.072022
    83  C   -0.044126
    84  C   -0.099252
    85  N   -0.349436
    86  C    0.011063
    87  C   -0.051026
    88  C   -0.100562
    89  C    0.039681
    90  C    0.023925
    91  C   -0.030487
    92  C   -0.101603
    93  H    0.062364
    94  N   -0.458918
    95  C    0.154316
    96  C   -0.150784
    97  C   -0.094615
    98  C    0.205547
    99  C    0.091844
   100  C    0.063212
   101  O   -0.267830
   102  C   -0.000101
   103  N   -0.297873
   104  C    0.010899
   105  C   -0.080668
   106  C   -0.046001
   107  C    0.048452
   108  C    0.002549
   109  C   -0.042809
   110  C   -0.064997
   111  N   -0.464625
   112  C    0.133671
   113  C   -0.171335
   114  C   -0.013184
   115  C    0.155464
   116  C    0.081428
   117  C    0.117896
   118  O   -0.220276
   119  C   -0.108043
   120  C    0.242855
   121  O   -0.244137
   122  O   -0.368870
   123  C    0.139764
   124  H    0.011727
   125  H   -0.042741
   126  H    0.000679
   127  H    0.052514
   128  H    0.038599
   129  H    0.039471
   130  H    0.034775
   131  H    0.041361
   132  H    0.057292
   133  H    0.041177
   134  H    0.052190
   135  H    0.036570
   136  H    0.060602
   137  H    0.046857
   138  H    0.000152
   139  H    0.063477
   140  H    0.040928
   141  H    0.054672
   142  H    0.045291
   143  H    0.032488
   144  H    0.028506
   145  H    0.031387
   146  H    0.039477
   147  H    0.036141
   148  H    0.041008
   149  H    0.033293
   150  H    0.036182
   151  H    0.047800
   152  H    0.043717
   153  H    0.066862
   154  H    0.074590
   155  H    0.058574
   156  H    0.052700
   157  H    0.037455
   158  H    0.061578
 Sum of Mulliken charges =  -0.00000

 Dipole moment (field-independent basis, Debye):
    X=             -0.6472    Y=             -2.1709    Z=             -4.3697  Tot=              4.9220
 Quadrupole moment (field-independent basis, Debye-Ang):
   XX=            -21.6608   YY=           -553.1235   ZZ=           -503.4349
   XY=            -70.9455   XZ=            -65.6408   YZ=              5.6122

 Normal termination of Gaussian 16 at Sun Sep 19 18:17:53 2021.
