 Gaussian 16, Revision A.03,
 Gaussian 16:  ES64L-G16RevA.03 25-Dec-2016

 --------------------------------
 #p wB97XD/Def2SVP td=(nstates=5)
 --------------------------------

 --------------------------------
 TDDFT excited states in gaussian
 --------------------------------
 Symbolic Z-matrix:
 Charge =  0 Multiplicity = 1

                         Standard orientation:
 ---------------------------------------------------------------------
 Center     Atomic      Atomic             Coordinates (Angstroms)
 Number     Number       Type             X           Y           Z
 ---------------------------------------------------------------------
      1         12           0      -12.429445    0.235202   -0.757231
      2          6           0       -9.409436   -1.623023   -0.599109
      3          6           0      -14.130767   -2.776641   -0.308422
      4          6           0      -14.982031    2.046938    0.261623
      5          6           0      -10.315363    3.221370   -0.889234
      6          7           0      -11.773342   -1.973041   -0.229020
      7          6           0      -10.540792   -2.471133   -0.497052
      8          6           0      -10.607171   -3.987581   -0.525971
      9          6           0      -12.026902   -4.287682   -1.007143
     10          6           0      -12.721809   -2.948634   -0.435254
     11          6           0      -12.280883   -4.394726   -2.511927
     12          6           0      -10.186101   -4.567203    0.894443
     13          6           0       -9.255083   -5.709808    0.782245
     14          1           0       -9.479477   -6.908327    1.724673
     15          7           0      -14.348174   -0.267742   -0.044551
     16          6           0      -14.882883   -1.579697   -0.015350
     17          6           0      -16.251174   -1.451094    0.418713
     18          6           0      -16.600231   -0.078145    0.518719
     19          6           0      -15.310839    0.660587    0.272520
     20          6           0      -17.115653   -2.687825    0.642557
     21          6           0      -17.911785    0.462444    0.932415
     22          8           0      -18.811843   -0.320620    1.209605
     23          6           0      -18.266818    1.896880    1.148961
     24          7           0      -12.555190    2.415181   -0.271694
     25          6           0      -13.815906    2.850591   -0.077321
     26          6           0      -13.867272    4.389142   -0.085451
     27          6           0      -12.382561    4.809821   -0.613505
     28          6           0      -11.693259    3.421163   -0.645342
     29          6           0      -15.108999    5.006868   -0.872914
     30          6           0      -11.644088    5.886088    0.242296
     31          6           0      -10.585590    5.388473    1.284801
     32          7           0      -10.390745    0.728706   -0.755038
     33          6           0       -9.710343    1.973406   -0.880085
     34          6           0       -8.228885    1.693451   -1.126425
     35          6           0       -8.132796    0.320452   -0.965575
     36          6           0       -9.459092   -0.205389   -0.764163
     37          6           0       -7.027900    2.614607   -1.415097
     38          6           0       -7.228879   -0.784877   -1.007736
     39          8           0       -6.027998   -0.823885   -1.280607
     40          6           0       -8.034091   -1.974569   -0.623665
     41          6           0       -7.521082   -2.295957    0.798701
     42          8           0       -7.823599   -1.726952    1.845452
     43          8           0       -6.560985   -3.338057    0.672534
     44          6           0       -5.852231   -3.733221    1.821383
     45          1           0      -14.728648   -3.689484   -0.263988
     46          1           0      -15.928037    2.562164    0.439497
     47          1           0       -9.618893    4.038919   -1.083192
     48          1           0       -9.967154   -4.432857   -1.287538
     49          1           0      -12.552523   -5.175704   -0.657966
     50          1           0      -11.380571   -4.576187   -3.098254
     51          1           0      -12.939426   -3.601110   -2.865758
     52          1           0      -12.856989   -5.318210   -2.580694
     53          1           0      -11.080315   -4.935484    1.397402
     54          1           0       -9.853925   -3.811111    1.605919
     55          1           0       -8.294639   -5.225461    0.954797
     56          1           0       -9.305111   -6.091259   -0.237494
     57          1           0      -17.845326   -2.845236   -0.151496
     58          1           0      -17.566940   -2.622931    1.631543
     59          1           0      -16.495676   -3.584318    0.657975
     60          1           0      -18.260621    2.398076    0.180731
     61          1           0      -17.624734    2.447663    1.837414
     62          1           0      -19.321107    2.015975    1.395778
     63          1           0      -13.919102    4.634713    0.975048
     64          1           0      -12.460285    5.111216   -1.657575
     65          1           0      -15.935047    4.297499   -0.921387
     66          1           0      -14.942329    5.472195   -1.845128
     67          1           0      -15.305227    5.923432   -0.314380
     68          1           0      -12.335137    6.545197    0.767148
     69          1           0      -11.107155    6.450608   -0.519633
     70          1           0      -10.756445    6.192152    2.001430
     71          1           0       -9.536070    5.384322    0.989725
     72          1           0      -10.933680    4.431877    1.675031
     73          1           0       -6.551930    2.351943   -2.359208
     74          1           0       -6.373625    2.213045   -0.641880
     75          1           0       -7.345982    3.638767   -1.221330
     76          1           0       -7.789937   -2.806826   -1.283943
     77          1           0       -5.122873   -4.527013    1.655309
     78          1           0       -6.581933   -4.097841    2.543254
     79          1           0       -5.344711   -2.829985    2.161224
     80         12           0       11.458995    0.860079   -0.085124
     81          6           0       12.353994   -2.502683    0.115779
     82          6           0        8.413746    0.092069    1.336566
     83          6           0       10.865877    4.082005   -0.274093
     84          6           0       14.986663    1.652248   -0.543999
     85          7           0       10.482507   -1.109018    0.597337
     86          6           0       11.040275   -2.356479    0.616333
     87          6           0       10.066444   -3.367165    1.109189
     88          6           0        8.808865   -2.513355    1.543064
     89          6           0        9.218947   -1.042762    1.141804
     90          6           0        7.452279   -3.042222    1.013141
     91          6           0       10.615510   -4.217269    2.280634
     92          6           0       10.450118   -5.708269    1.991810
     93          1           0        9.731002   -6.574212    3.069780
     94          7           0        9.834467    1.937749    0.432537
     95          6           0        8.638606    1.461033    0.967498
     96          6           0        7.762685    2.622329    1.054616
     97          6           0        8.451927    3.820245    0.548588
     98          6           0        9.792521    3.305500    0.125363
     99          6           0        6.479921    2.585507    1.721702
    100          6           0        7.876424    5.170284    0.668744
    101          8           0        6.775897    5.405562    1.121970
    102          6           0        8.615730    6.420136    0.339864
    103          7           0       12.723428    2.536945   -0.315971
    104          6           0       12.164751    3.745930   -0.645054
    105          6           0       13.250780    4.769409   -0.901280
    106          6           0       14.501381    4.082518   -0.497052
    107          6           0       14.081300    2.702625   -0.374558
    108          6           0       13.239324    5.413951   -2.347743
    109          6           0       15.017684    4.521120    0.916266
    110          6           0       16.458963    4.464317    1.133714
    111          7           0       13.334886   -0.176635   -0.229404
    112          6           0       14.645941    0.250389   -0.477770
    113          6           0       15.455526   -0.886454   -0.786047
    114          6           0       14.639149   -1.982423   -0.532852
    115          6           0       13.337774   -1.498311   -0.149167
    116          6           0       16.874847   -0.802296   -1.211770
    117          6           0       14.607422   -3.389506   -0.471969
    118          8           0       15.478223   -4.199562   -0.699005
    119          6           0       13.156011   -3.781669   -0.116132
    120          6           0       12.627609   -4.668951   -1.164455
    121          8           0       12.086710   -4.299954   -2.220519
    122          8           0       12.964059   -5.971876   -0.876946
    123          6           0       12.472034   -7.057399   -1.709605
    124          1           0        7.449437   -0.233101    1.731187
    125          1           0       10.826512    5.172850   -0.327660
    126          1           0       16.028295    1.935670   -0.708846
    127          1           0        9.703724   -3.851238    0.201995
    128          1           0        8.637247   -2.506766    2.619010
    129          1           0        7.692897   -4.073176    0.750838
    130          1           0        6.978164   -2.463963    0.220019
    131          1           0        6.722431   -3.063751    1.822069
    132          1           0       10.064960   -4.096505    3.213411
    133          1           0       11.659572   -3.928783    2.400969
    134          1           0       11.496225   -6.010620    2.037929
    135          1           0       10.044843   -5.798847    0.985095
    136          1           0        6.299940    1.560939    2.047929
    137          1           0        5.611657    2.809367    1.101216
    138          1           0        6.516686    3.218849    2.608756
    139          1           0        9.018427    6.130409   -0.630717
    140          1           0        9.410888    6.557356    1.073139
    141          1           0        7.938771    7.270759    0.257790
    142          1           0       12.986448    5.579295   -0.222340
    143          1           0       15.315861    4.038426   -1.220158
    144          1           0       12.324891    5.146658   -2.877664
    145          1           0       14.150177    5.259887   -2.927338
    146          1           0       13.098341    6.494354   -2.334125
    147          1           0       14.509549    3.932907    1.680502
    148          1           0       14.735973    5.553167    1.124521
    149          1           0       16.898597    5.403988    0.797524
    150          1           0       16.917735    3.603277    0.646548
    151          1           0       16.671259    4.535653    2.200946
    152          1           0       17.036417    0.043904   -1.879422
    153          1           0       17.256849   -1.718127   -1.663085
    154          1           0       17.399484   -0.533428   -0.294896
    155          1           0       13.094941   -4.438342    0.751813
    156          1           0       12.890129   -7.191928   -2.707254
    157          1           0       11.385528   -7.002015   -1.773857
    158          1           0       12.790565   -7.955836   -1.182279
 ---------------------------------------------------------------------

 SCF Done:  E(RwB97XD) =  -4070.53490300     A.U. after   20 cycles

 Excitation energies and oscillator strengths:

 Excited State   1:      Singlet-A      1.6127 eV  768.81 nm  f=0.5381  <S**2>=0.000
     309 -> 316        0.17946
     311 -> 313        0.63122
     312 -> 314        0.25595
     309 <- 316        0.11212
 This state for optimization and/or second-order correction.
 Total Energy, E(TD-HF/TD-DFT) =  -4070.47563834
 Copying the excited state density for this state as the 1-particle RhoCI density.

 Excited State   2:      Singlet-A      1.6258 eV  762.60 nm  f=0.1940  <S**2>=0.000
     310 -> 315        0.18973
     311 -> 313       -0.25651
     312 -> 314        0.62786
     310 <- 315        0.11391

 Excited State   3:      Singlet-A      2.1299 eV  582.12 nm  f=0.0846  <S**2>=0.000
     309 -> 313        0.62746
     311 -> 316       -0.29697

 Excited State   4:      Singlet-A      2.1339 eV  581.02 nm  f=0.0669  <S**2>=0.000
     310 -> 314        0.60667
     312 -> 315       -0.33904

 Excited State   5:      Singlet-A      3.5618 eV  348.09 nm  f=0.0000  <S**2>=0.000
     312 -> 313        0.70695

 The electronic state is 1-A.
 Alpha  occ. eigenvalues --  -46.97641 -46.95238 -19.30054 -19.29952 -19.26339
 Alpha  occ. eigenvalues --  -19.24271 -19.23976 -19.23351 -19.22554 -19.22352
 Alpha  occ. eigenvalues --  -14.46970 -14.46873 -14.46504 -14.46497 -14.44858
 Alpha  occ. eigenvalues --  -14.44818 -14.44328 -14.43713 -10.44497 -10.42896
 Alpha  occ. eigenvalues --  -10.38568 -10.38154 -10.38043 -10.37600 -10.35829
 Alpha  occ. eigenvalues --  -10.35627 -10.35604 -10.35533 -10.35441 -10.35440
 Alpha  occ. eigenvalues --  -10.35366 -10.35344 -10.35098 -10.35041 -10.35028
 Alpha  occ. eigenvalues --  -10.34845 -10.34784 -10.34409 -10.34097 -10.33838
 Alpha  occ. eigenvalues --  -10.33552 -10.33475 -10.33044 -10.32915 -10.32812
 Alpha  occ. eigenvalues --  -10.32658 -10.32653 -10.32548 -10.32445 -10.32433
 Alpha  occ. eigenvalues --  -10.32367 -10.32319 -10.32242 -10.32233 -10.32170
 Alpha  occ. eigenvalues --  -10.32150 -10.32018 -10.31931 -10.31810 -10.31761
 Alpha  occ. eigenvalues --  -10.31624 -10.31595 -10.31441 -10.31361 -10.31291
 Alpha  occ. eigenvalues --  -10.31282 -10.31157 -10.31156 -10.31073 -10.31032
 Alpha  occ. eigenvalues --  -10.31010 -10.30646 -10.30638 -10.30321 -10.30258
 Alpha  occ. eigenvalues --  -10.30212 -10.30164 -10.30052 -10.29609 -10.29477
 Alpha  occ. eigenvalues --  -10.29329 -10.29167 -10.29021 -10.29019 -10.28714
 Alpha  occ. eigenvalues --  -10.28702  -3.23345  -3.21174  -1.96861  -1.96507
 Alpha  occ. eigenvalues --   -1.96257  -1.94766  -1.94307  -1.94131  -1.17987
 Alpha  occ. eigenvalues --   -1.17584  -1.12241  -1.12008  -1.11832  -1.11529
 Alpha  occ. eigenvalues --   -1.10855  -1.08853  -1.06941  -1.06191  -1.05766
 Alpha  occ. eigenvalues --   -1.05424  -1.04955  -1.04848  -1.03579  -1.03277
 Alpha  occ. eigenvalues --   -0.96389  -0.94586  -0.92609  -0.91402  -0.91022
 Alpha  occ. eigenvalues --   -0.90946  -0.90600  -0.89658  -0.89595  -0.89185
 Alpha  occ. eigenvalues --   -0.89139  -0.88768  -0.88215  -0.87489  -0.87119
 Alpha  occ. eigenvalues --   -0.86679  -0.86409  -0.85550  -0.85324  -0.84594
 Alpha  occ. eigenvalues --   -0.84451  -0.83539  -0.83332  -0.82793  -0.82741
 Alpha  occ. eigenvalues --   -0.82219  -0.80549  -0.79962  -0.79867  -0.79176
 Alpha  occ. eigenvalues --   -0.79009  -0.78788  -0.78198  -0.77952  -0.77288
 Alpha  occ. eigenvalues --   -0.77130  -0.75351  -0.74723  -0.73976  -0.73810
 Alpha  occ. eigenvalues --   -0.71810  -0.71269  -0.70989  -0.70701  -0.69893
 Alpha  occ. eigenvalues --   -0.69423  -0.69241  -0.68807  -0.68366  -0.67839
 Alpha  occ. eigenvalues --   -0.67295  -0.67239  -0.66893  -0.66677  -0.66646
 Alpha  occ. eigenvalues --   -0.66533  -0.64208  -0.63974  -0.62672  -0.61906
 Alpha  occ. eigenvalues --   -0.61747  -0.61425  -0.61401  -0.61253  -0.60927
 Alpha  occ. eigenvalues --   -0.60852  -0.60249  -0.59882  -0.59334  -0.58992
 Alpha  occ. eigenvalues --   -0.58348  -0.58084  -0.57914  -0.57775  -0.57602
 Alpha  occ. eigenvalues --   -0.57376  -0.57087  -0.56836  -0.56498  -0.56319
 Alpha  occ. eigenvalues --   -0.56122  -0.55622  -0.55274  -0.55097  -0.54957
 Alpha  occ. eigenvalues --   -0.54706  -0.54554  -0.54446  -0.54185  -0.54073
 Alpha  occ. eigenvalues --   -0.53981  -0.53873  -0.53630  -0.53590  -0.53547
 Alpha  occ. eigenvalues --   -0.53317  -0.53233  -0.53168  -0.53144  -0.52462
 Alpha  occ. eigenvalues --   -0.52304  -0.52062  -0.51913  -0.51877  -0.51560
 Alpha  occ. eigenvalues --   -0.51382  -0.51301  -0.51148  -0.51005  -0.50887
 Alpha  occ. eigenvalues --   -0.50725  -0.50439  -0.50404  -0.50370  -0.50153
 Alpha  occ. eigenvalues --   -0.49684  -0.49473  -0.49378  -0.49089  -0.49025
 Alpha  occ. eigenvalues --   -0.48895  -0.48754  -0.48667  -0.48516  -0.48198
 Alpha  occ. eigenvalues --   -0.48113  -0.47988  -0.47879  -0.47816  -0.47774
 Alpha  occ. eigenvalues --   -0.47624  -0.47345  -0.47215  -0.47194  -0.47047
 Alpha  occ. eigenvalues --   -0.46841  -0.46474  -0.46467  -0.46414  -0.46343
 Alpha  occ. eigenvalues --   -0.46007  -0.45931  -0.45781  -0.45544  -0.45421
 Alpha  occ. eigenvalues --   -0.45369  -0.45193  -0.45115  -0.44964  -0.44935
 Alpha  occ. eigenvalues --   -0.44813  -0.44413  -0.44325  -0.43950  -0.43939
 Alpha  occ. eigenvalues --   -0.43605  -0.43496  -0.43477  -0.43320  -0.43289
 Alpha  occ. eigenvalues --   -0.43033  -0.42957  -0.42860  -0.42536  -0.42298
 Alpha  occ. eigenvalues --   -0.42127  -0.41935  -0.41069  -0.41033  -0.40488
 Alpha  occ. eigenvalues --   -0.40400  -0.40152  -0.39867  -0.39609  -0.39601
 Alpha  occ. eigenvalues --   -0.39250  -0.39020  -0.38585  -0.38326  -0.38305
 Alpha  occ. eigenvalues --   -0.38252  -0.37708  -0.37170  -0.36297  -0.36206
 Alpha  occ. eigenvalues --   -0.35690  -0.35591  -0.35153  -0.33551  -0.33512
 Alpha  occ. eigenvalues --   -0.32959  -0.32692  -0.32617  -0.32123  -0.31994
 Alpha  occ. eigenvalues --   -0.31638  -0.31610  -0.31487  -0.26181  -0.25943
 Alpha  occ. eigenvalues --   -0.23328  -0.22810
 Alpha virt. eigenvalues --   -0.07470  -0.06859  -0.00707  -0.00549   0.01873
 Alpha virt. eigenvalues --    0.02364   0.02948   0.04335   0.04510   0.05884
 Alpha virt. eigenvalues --    0.06540   0.06863   0.07499   0.07587   0.07983

 Mulliken charges:
               1
     1  Mg   0.936719
     2  C    0.010668
     3  C   -0.075317
     4  C   -0.029809
     5  C   -0.064571
     6  N   -0.298341
     7  C   -0.021509
     8  C   -0.051854
     9  C   -0.134248
    10  C    0.044014
    11  C    0.038321
    12  C    0.033739
    13  C   -0.116972
    14  H    0.034713
    15  N   -0.490309
    16  C    0.145775
    17  C   -0.165580
    18  C   -0.024952
    19  C    0.111619
    20  C    0.096130
    21  C   -0.007072
    22  O   -0.246505
    23  C    0.014094
    24  N   -0.325753
    25  C    0.062890
    26  C   -0.098235
    27  C   -0.020478
    28  C    0.007772
    29  C    0.005950
    30  C   -0.047131
    31  C   -0.048100
    32  N   -0.422823
    33  C    0.106758
    34  C   -0.210577
    35  C   -0.023541
    36  C    0.161945
    37  C    0.091048
    38  C    0.075753
    39  O   -0.216217
    40  C   -0.054881
    41  C    0.276294
    42  O   -0.229361
    43  O   -0.374869
    44  C    0.144871
    45  H    0.004455
    46  H   -0.047431
    47  H   -0.000701
    48  H    0.012623
    49  H    0.029513
    50  H    0.042101
    51  H    0.047050
    52  H    0.028344
    53  H    0.032655
    54  H    0.056478
    55  H    0.045245
    56  H    0.046258
    57  H    0.058306
    58  H    0.061367
    59  H    0.009441
    60  H    0.040872
    61  H    0.071638
    62  H    0.046858
    63  H    0.050776
    64  H    0.037844
    65  H    0.052337
    66  H    0.033877
    67  H    0.031538
    68  H    0.040205
    69  H    0.031091
    70  H    0.035672
    71  H    0.046665
    72  H    0.060359
    73  H    0.073059
    74  H    0.068144
    75  H    0.039170
    76  H    0.060934
    77  H    0.057719
    78  H    0.041791
    79  H    0.053684
    80  Mg   0.953412
    81  C    0.048353
    82  C   -0.057320
    83  C   -0.121962
    84  C   -0.096306
    85  N   -0.342756
    86  C   -0.024135
    87  C   -0.029557
    88  C   -0.145960
    89  C    0.045778
    90  C    0.012121
    91  C    0.023759
    92  C   -0.137338
    93  H    0.039200
    94  N   -0.537501
    95  C    0.202059
    96  C   -0.171082
    97  C   -0.063979
    98  C    0.269866
    99  C    0.096914
   100  C   -0.011506
   101  O   -0.238852
   102  C    0.006759
   103  N   -0.369002
   104  C    0.069714
   105  C   -0.083390
   106  C   -0.081634
   107  C    0.063032
   108  C    0.032069
   109  C    0.003140
   110  C   -0.018610
   111  N   -0.407131
   112  C    0.111718
   113  C   -0.185471
   114  C   -0.015287
   115  C    0.112909
   116  C    0.089650
   117  C    0.108482
   118  O   -0.187768
   119  C   -0.127838
   120  C    0.253777
   121  O   -0.269032
   122  O   -0.361230
   123  C    0.149021
   124  H    0.001865
   125  H   -0.005879
   126  H   -0.002923
   127  H    0.049584
   128  H    0.042605
   129  H    0.038382
   130  H    0.052041
   131  H    0.032610
   132  H    0.051908
   133  H    0.051900
   134  H    0.064142
   135  H    0.053333
   136  H    0.001377
   137  H    0.058042
   138  H    0.064939
   139  H    0.039524
   140  H    0.062409
   141  H    0.058072
   142  H    0.032732
   143  H    0.026997
   144  H    0.034039
   145  H    0.045380
   146  H    0.027702
   147  H    0.039439
   148  H    0.019887
   149  H    0.027011
   150  H    0.029236
   151  H    0.034506
   152  H    0.036091
   153  H    0.067847
   154  H    0.051033
   155  H    0.050895
   156  H    0.058059
   157  H    0.047365
   158  H    0.050762
 Sum of Mulliken charges =  -0.00000

 Dipole moment (field-independent basis, Debye):
    X=              0.6523    Y=              3.9179    Z=             -2.3898  Tot=              4.6354
 Quadrupole moment (field-independent basis, Debye-Ang):
   XX=           -537.7212   YY=           -455.3850   ZZ=           -513.1293
   XY=             28.3532   XZ=             62.0371   YZ=            -13.4288

 Normal termination of Gaussian 16 at Sun Sep 19 12:12:20 2021.
