 Gaussian 16, Revision A.03,
 Gaussian 16:  ES64L-G16RevA.03 25-Dec-2016

 --------------------------------
 #p wB97XD/Def2SVP td=(nstates=5)
 --------------------------------

 --------------------------------
 TDDFT excited states in gaussian
 --------------------------------
 Symbolic Z-matrix:
 Charge =  0 Multiplicity = 1

                         Standard orientation:
 ---------------------------------------------------------------------
 Center     Atomic      Atomic             Coordinates (Angstroms)
 Number     Number       Type             X           Y           Z
 ---------------------------------------------------------------------
      1         12           0       31.349264    0.310605   -0.164144
      2          6           0       28.190983   -1.186669    0.022154
      3          6           0       29.655363    3.301545   -0.545780
      4          6           0       34.295054    1.872187   -0.003560
      5          6           0       32.791030   -2.628868    1.061089
      6          7           0       29.019459    0.978641   -0.047275
      7          6           0       27.954908    0.154768   -0.090154
      8          6           0       26.632756    0.879686   -0.167819
      9          6           0       27.214537    2.264819   -0.644754
     10          6           0       28.714566    2.252070   -0.368916
     11          6           0       26.998082    2.432363   -2.172455
     12          6           0       25.861817    0.778864    1.154477
     13          6           0       26.618812    0.887082    2.494524
     14          1           0       26.028173    1.849725    3.517924
     15          7           0       31.901074    2.277609   -0.269760
     16          6           0       31.058847    3.321288   -0.548158
     17          6           0       31.853547    4.456061   -1.035876
     18          6           0       33.241581    4.142534   -0.746187
     19          6           0       33.174854    2.707106   -0.334453
     20          6           0       31.215524    5.850424   -1.402455
     21          6           0       34.440295    5.087952   -0.857273
     22          8           0       34.315805    6.177464   -1.343300
     23          6           0       35.797311    4.637479   -0.398953
     24          7           0       33.260142   -0.297062    0.675400
     25          6           0       34.409156    0.502081    0.528826
     26          6           0       35.734681   -0.224290    1.013239
     27          6           0       35.194282   -1.707741    1.288803
     28          6           0       33.640610   -1.561382    0.948786
     29          6           0       37.065121   -0.178426    0.107901
     30          6           0       35.474728   -2.338113    2.728582
     31          6           0       35.698438   -3.926634    2.616498
     32          7           0       30.694971   -1.594308    0.393227
     33          6           0       31.413479   -2.706252    0.782997
     34          6           0       30.507847   -3.842271    0.903685
     35          6           0       29.216099   -3.366611    0.560046
     36          6           0       29.371367   -1.952097    0.329431
     37          6           0       30.895322   -5.276674    1.151134
     38          6           0       27.747071   -3.640996    0.439664
     39          8           0       27.112754   -4.636814    0.708159
     40          6           0       27.097176   -2.248816    0.039199
     41          6           0       26.457309   -2.445949   -1.307564
     42          8           0       25.363095   -3.037369   -1.485669
     43          8           0       27.178019   -1.754820   -2.270727
     44          6           0       26.559935   -1.663763   -3.551232
     45          1           0       29.126454    4.233129   -0.757994
     46          1           0       35.325919    2.216439   -0.111804
     47          1           0       33.283160   -3.585505    1.249145
     48          1           0       26.024719    0.522484   -0.998749
     49          1           0       26.820436    3.169559   -0.183888
     50          1           0       27.855549    3.001161   -2.532882
     51          1           0       26.021180    2.869090   -2.375038
     52          1           0       27.078641    1.558573   -2.819825
     53          1           0       25.449573   -0.229486    1.175369
     54          1           0       25.055279    1.511816    1.131571
     55          1           0       27.626415    1.254158    2.300917
     56          1           0       26.607709   -0.094077    2.968314
     57          1           0       30.940803    6.471566   -0.549488
     58          1           0       30.335841    5.694937   -2.027109
     59          1           0       31.804864    6.488475   -2.059986
     60          1           0       36.518217    5.455657   -0.392269
     61          1           0       36.208729    3.829711   -1.004548
     62          1           0       35.610939    4.409458    0.650846
     63          1           0       35.899584    0.314815    1.945367
     64          1           0       35.592288   -2.410304    0.557184
     65          1           0       37.631134    0.699568    0.416935
     66          1           0       36.824878   -0.129839   -0.953823
     67          1           0       37.624866   -1.099298    0.272824
     68          1           0       34.592544   -2.268771    3.364913
     69          1           0       36.302495   -1.831245    3.225169
     70          1           0       34.941607   -4.468631    3.183696
     71          1           0       36.679005   -4.182680    3.016715
     72          1           0       35.585019   -4.409781    1.646644
     73          1           0       31.425736   -5.329466    2.101308
     74          1           0       31.564430   -5.616011    0.360117
     75          1           0       30.028730   -5.932110    1.236300
     76          1           0       26.274600   -2.133889    0.744724
     77          1           0       27.162139   -1.023066   -4.194997
     78          1           0       25.511228   -1.378975   -3.464574
     79          1           0       26.600391   -2.608563   -4.093215
     80         12           0      -31.443726    0.202900    0.378002
     81          6           0      -28.797622   -1.789406   -0.810200
     82          6           0      -32.177551    0.965759   -2.934118
     83          6           0      -33.713638    2.320767    1.556861
     84          6           0      -30.032046    0.011236    3.673592
     85          7           0      -30.583052   -0.321307   -1.610286
     86          6           0      -29.568404   -1.263717   -1.828972
     87          6           0      -29.625456   -1.730031   -3.271912
     88          6           0      -30.496046   -0.669282   -4.003756
     89          6           0      -31.134486    0.038121   -2.770542
     90          6           0      -29.756447    0.250955   -5.024979
     91          6           0      -30.113403   -3.207888   -3.463324
     92          6           0      -29.480767   -3.944905   -4.724792
     93          1           0      -28.535508   -3.141719   -5.622226
     94          7           0      -32.798523    1.328936   -0.535437
     95          6           0      -33.002053    1.456919   -1.898649
     96          6           0      -34.160707    2.259161   -2.166334
     97          6           0      -34.558260    2.775388   -0.891559
     98          6           0      -33.712734    2.116586    0.087969
     99          6           0      -34.672272    2.587064   -3.602294
    100          6           0      -35.619532    3.778714   -0.577891
    101          8           0      -35.751639    4.254426    0.575029
    102          6           0      -36.640835    4.460900   -1.535022
    103          7           0      -31.673908    1.270509    2.272531
    104          6           0      -32.767969    2.012799    2.527332
    105          6           0      -32.910298    2.264090    4.049586
    106          6           0      -31.733435    1.554278    4.728502
    107          6           0      -31.113783    0.840475    3.447247
    108          6           0      -33.128339    3.713923    4.358461
    109          6           0      -32.067090    0.580168    5.878772
    110          6           0      -33.001953   -0.595184    5.500934
    111          7           0      -29.716820   -0.642518    1.313201
    112          6           0      -29.405551   -0.755440    2.625505
    113          6           0      -28.326500   -1.737765    2.717079
    114          6           0      -28.031909   -2.225388    1.413089
    115          6           0      -28.884055   -1.482917    0.559864
    116          6           0      -27.712936   -2.268479    4.010053
    117          6           0      -27.216690   -3.114961    0.649207
    118          8           0      -26.410524   -3.994648    0.940092
    119          6           0      -27.659674   -2.808608   -0.926020
    120          6           0      -26.422014   -2.466615   -1.734030
    121          8           0      -25.898378   -1.369801   -1.730301
    122          8           0      -26.049919   -3.524516   -2.532066
    123          6           0      -24.700017   -3.550644   -3.085811
    124          1           0      -32.395439    1.033001   -4.001866
    125          1           0      -34.540234    2.950051    1.892464
    126          1           0      -29.745024   -0.102950    4.720703
    127          1           0      -28.622152   -1.707571   -3.697078
    128          1           0      -31.278760   -1.212845   -4.532120
    129          1           0      -29.991579    1.247157   -4.651792
    130          1           0      -30.217598    0.180180   -6.010819
    131          1           0      -28.674391    0.178187   -5.134090
    132          1           0      -31.183320   -3.250905   -3.664735
    133          1           0      -29.930309   -3.755579   -2.539764
    134          1           0      -30.298645   -4.176701   -5.407206
    135          1           0      -28.979195   -4.839687   -4.356962
    136          1           0      -35.012382    3.623361   -3.600061
    137          1           0      -35.525430    1.975087   -3.893105
    138          1           0      -34.027767    2.473039   -4.473780
    139          1           0      -37.223331    3.712028   -2.072415
    140          1           0      -36.165926    5.161738   -2.221547
    141          1           0      -37.504020    4.896444   -1.033115
    142          1           0      -33.887747    1.864873    4.317300
    143          1           0      -31.019430    2.350004    4.943825
    144          1           0      -34.169795    3.947430    4.580481
    145          1           0      -32.750174    4.328448    3.541325
    146          1           0      -32.551115    4.081733    5.207502
    147          1           0      -32.593613    1.213576    6.592974
    148          1           0      -31.148983    0.201854    6.329260
    149          1           0      -32.425242   -1.495908    5.710200
    150          1           0      -33.225110   -0.489552    4.439228
    151          1           0      -33.976447   -0.569301    5.988822
    152          1           0      -27.566004   -3.348008    3.992089
    153          1           0      -28.390007   -2.141799    4.854330
    154          1           0      -26.812736   -1.689745    4.218766
    155          1           0      -28.029460   -3.768042   -1.288645
    156          1           0      -24.468697   -2.527758   -3.384122
    157          1           0      -24.577846   -4.183357   -3.964998
    158          1           0      -24.071519   -3.965294   -2.297638
 ---------------------------------------------------------------------

 SCF Done:  E(RwB97XD) =  -4070.61360563     A.U. after   17 cycles

 Excitation energies and oscillator strengths:

 Excited State   1:      Singlet-A      1.6019 eV  773.98 nm  f=0.4020  <S**2>=0.000
     309 -> 316        0.17291
     312 -> 313        0.68565
     309 <- 316        0.11419
 This state for optimization and/or second-order correction.
 Total Energy, E(TD-HF/TD-DFT) =  -4070.55473699
 Copying the excited state density for this state as the 1-particle RhoCI density.

 Excited State   2:      Singlet-A      1.6940 eV  731.89 nm  f=0.3573  <S**2>=0.000
     310 -> 315       -0.19920
     311 -> 314        0.67862
     310 <- 315       -0.11862

 Excited State   3:      Singlet-A      2.1364 eV  580.33 nm  f=0.1503  <S**2>=0.000
     309 -> 313        0.65483
     312 -> 316       -0.24834

 Excited State   4:      Singlet-A      2.1841 eV  567.65 nm  f=0.1017  <S**2>=0.000
     310 -> 314        0.63341
     311 -> 315        0.30082

 Excited State   5:      Singlet-A      3.2949 eV  376.29 nm  f=0.0030  <S**2>=0.000
     306 -> 313        0.52477
     306 -> 316       -0.13544
     306 -> 317        0.34598
     306 -> 320        0.20411

 The electronic state is 1-A.
 Alpha  occ. eigenvalues --  -46.96727 -46.95243 -19.31235 -19.29469 -19.24974
 Alpha  occ. eigenvalues --  -19.24558 -19.24389 -19.24169 -19.24065 -19.23411
 Alpha  occ. eigenvalues --  -14.47166 -14.46833 -14.46402 -14.45974 -14.45120
 Alpha  occ. eigenvalues --  -14.44889 -14.44033 -14.43943 -10.43837 -10.42944
 Alpha  occ. eigenvalues --  -10.39795 -10.39594 -10.39478 -10.39277 -10.36944
 Alpha  occ. eigenvalues --  -10.35939 -10.35692 -10.35631 -10.35172 -10.35112
 Alpha  occ. eigenvalues --  -10.34948 -10.34946 -10.34786 -10.34756 -10.34550
 Alpha  occ. eigenvalues --  -10.34538 -10.34331 -10.34186 -10.33947 -10.33822
 Alpha  occ. eigenvalues --  -10.33789 -10.33721 -10.33547 -10.33239 -10.33235
 Alpha  occ. eigenvalues --  -10.33010 -10.33006 -10.32578 -10.32491 -10.32469
 Alpha  occ. eigenvalues --  -10.32436 -10.32313 -10.32293 -10.32188 -10.32154
 Alpha  occ. eigenvalues --  -10.32131 -10.32095 -10.32027 -10.32026 -10.31894
 Alpha  occ. eigenvalues --  -10.31809 -10.31805 -10.31722 -10.31616 -10.31614
 Alpha  occ. eigenvalues --  -10.31558 -10.31462 -10.31409 -10.30882 -10.30803
 Alpha  occ. eigenvalues --  -10.30634 -10.30568 -10.30317 -10.30269 -10.30196
 Alpha  occ. eigenvalues --  -10.30142 -10.30115 -10.30107 -10.30107 -10.30104
 Alpha  occ. eigenvalues --  -10.29921 -10.29774 -10.29423 -10.29407 -10.29304
 Alpha  occ. eigenvalues --  -10.28731  -3.22573  -3.21255  -1.96116  -1.95705
 Alpha  occ. eigenvalues --   -1.95524  -1.94815  -1.94378  -1.94235  -1.18617
 Alpha  occ. eigenvalues --   -1.17597  -1.13740  -1.12872  -1.11665  -1.10627
 Alpha  occ. eigenvalues --   -1.09628  -1.09236  -1.06786  -1.06345  -1.05951
 Alpha  occ. eigenvalues --   -1.05467  -1.05220  -1.04941  -1.04115  -1.03896
 Alpha  occ. eigenvalues --   -0.94455  -0.94134  -0.91030  -0.90883  -0.90399
 Alpha  occ. eigenvalues --   -0.90287  -0.90099  -0.89578  -0.89266  -0.89253
 Alpha  occ. eigenvalues --   -0.88770  -0.87968  -0.87658  -0.87235  -0.86750
 Alpha  occ. eigenvalues --   -0.85689  -0.85238  -0.85212  -0.84603  -0.84075
 Alpha  occ. eigenvalues --   -0.83795  -0.82980  -0.82741  -0.82562  -0.82332
 Alpha  occ. eigenvalues --   -0.81952  -0.80658  -0.79485  -0.79211  -0.78840
 Alpha  occ. eigenvalues --   -0.78663  -0.78622  -0.78313  -0.77749  -0.77270
 Alpha  occ. eigenvalues --   -0.76924  -0.74782  -0.74496  -0.74029  -0.73027
 Alpha  occ. eigenvalues --   -0.71849  -0.71811  -0.71324  -0.71105  -0.70312
 Alpha  occ. eigenvalues --   -0.70212  -0.69508  -0.69196  -0.67816  -0.67196
 Alpha  occ. eigenvalues --   -0.66843  -0.66842  -0.66832  -0.66609  -0.66131
 Alpha  occ. eigenvalues --   -0.66046  -0.65682  -0.63617  -0.62923  -0.62069
 Alpha  occ. eigenvalues --   -0.61436  -0.61258  -0.60931  -0.60781  -0.60145
 Alpha  occ. eigenvalues --   -0.60033  -0.59703  -0.59379  -0.59325  -0.58904
 Alpha  occ. eigenvalues --   -0.58256  -0.58010  -0.57883  -0.57659  -0.57467
 Alpha  occ. eigenvalues --   -0.56993  -0.56771  -0.56724  -0.56200  -0.55837
 Alpha  occ. eigenvalues --   -0.55642  -0.55384  -0.55127  -0.55008  -0.54975
 Alpha  occ. eigenvalues --   -0.54751  -0.54668  -0.54477  -0.54262  -0.53901
 Alpha  occ. eigenvalues --   -0.53837  -0.53613  -0.53343  -0.53258  -0.53018
 Alpha  occ. eigenvalues --   -0.52942  -0.52635  -0.52593  -0.52468  -0.52000
 Alpha  occ. eigenvalues --   -0.51982  -0.51896  -0.51669  -0.51488  -0.51480
 Alpha  occ. eigenvalues --   -0.51146  -0.51100  -0.50919  -0.50875  -0.50655
 Alpha  occ. eigenvalues --   -0.50584  -0.50540  -0.50287  -0.50121  -0.49812
 Alpha  occ. eigenvalues --   -0.49657  -0.49496  -0.49339  -0.49259  -0.49164
 Alpha  occ. eigenvalues --   -0.48872  -0.48619  -0.48597  -0.48301  -0.48248
 Alpha  occ. eigenvalues --   -0.48242  -0.47995  -0.47767  -0.47612  -0.47441
 Alpha  occ. eigenvalues --   -0.47373  -0.47237  -0.47127  -0.47104  -0.46818
 Alpha  occ. eigenvalues --   -0.46657  -0.46400  -0.46166  -0.46133  -0.45971
 Alpha  occ. eigenvalues --   -0.45887  -0.45886  -0.45798  -0.45590  -0.45380
 Alpha  occ. eigenvalues --   -0.45372  -0.45222  -0.45099  -0.44951  -0.44920
 Alpha  occ. eigenvalues --   -0.44688  -0.44507  -0.44284  -0.44233  -0.44158
 Alpha  occ. eigenvalues --   -0.43916  -0.43852  -0.43776  -0.43624  -0.43554
 Alpha  occ. eigenvalues --   -0.43493  -0.43115  -0.42633  -0.42509  -0.42250
 Alpha  occ. eigenvalues --   -0.41973  -0.41811  -0.41500  -0.41137  -0.40996
 Alpha  occ. eigenvalues --   -0.40841  -0.40551  -0.40068  -0.39737  -0.39574
 Alpha  occ. eigenvalues --   -0.39341  -0.39217  -0.38886  -0.38779  -0.38250
 Alpha  occ. eigenvalues --   -0.38234  -0.37958  -0.36664  -0.36392  -0.36018
 Alpha  occ. eigenvalues --   -0.35688  -0.35376  -0.35237  -0.33666  -0.33547
 Alpha  occ. eigenvalues --   -0.33216  -0.32952  -0.32916  -0.32805  -0.32750
 Alpha  occ. eigenvalues --   -0.32232  -0.31848  -0.31631  -0.26023  -0.25946
 Alpha  occ. eigenvalues --   -0.23203  -0.23174
 Alpha virt. eigenvalues --   -0.07592  -0.06976  -0.00166   0.00533   0.02021
 Alpha virt. eigenvalues --    0.02194   0.03937   0.04095   0.04156   0.04688
 Alpha virt. eigenvalues --    0.06671   0.07387   0.07784   0.07911   0.08616

 Mulliken charges:
               1
     1  Mg   0.954562
     2  C    0.126694
     3  C   -0.086894
     4  C   -0.102820
     5  C   -0.086859
     6  N   -0.280189
     7  C   -0.106334
     8  C    0.024907
     9  C   -0.115478
    10  C    0.019735
    11  C    0.018041
    12  C    0.021141
    13  C   -0.133107
    14  H    0.032717
    15  N   -0.458842
    16  C    0.175431
    17  C   -0.148293
    18  C   -0.099997
    19  C    0.211733
    20  C    0.047854
    21  C    0.038205
    22  O   -0.200631
    23  C   -0.012859
    24  N   -0.368020
    25  C    0.007590
    26  C   -0.062929
    27  C   -0.084172
    28  C    0.069734
    29  C    0.005028
    30  C   -0.009864
    31  C   -0.094108
    32  N   -0.439603
    33  C    0.138954
    34  C   -0.213524
    35  C   -0.016330
    36  C    0.078979
    37  C    0.071685
    38  C    0.139971
    39  O   -0.173424
    40  C   -0.211055
    41  C    0.295893
    42  O   -0.266922
    43  O   -0.352059
    44  C    0.141297
    45  H    0.007244
    46  H   -0.025125
    47  H   -0.020865
    48  H    0.029492
    49  H    0.028336
    50  H    0.024554
    51  H    0.050181
    52  H    0.027425
    53  H    0.036964
    54  H    0.046203
    55  H    0.070660
    56  H    0.060466
    57  H    0.063288
    58  H    0.025822
    59  H    0.056069
    60  H    0.046989
    61  H    0.080145
    62  H    0.053745
    63  H    0.053703
    64  H    0.040264
    65  H    0.049431
    66  H    0.047503
    67  H    0.050470
    68  H    0.049747
    69  H    0.043969
    70  H    0.038437
    71  H    0.044447
    72  H    0.040058
    73  H    0.037451
    74  H    0.051953
    75  H    0.058894
    76  H    0.085148
    77  H    0.049512
    78  H    0.054982
    79  H    0.046601
    80  Mg   0.971837
    81  C    0.006875
    82  C   -0.061691
    83  C   -0.062907
    84  C   -0.062996
    85  N   -0.337639
    86  C   -0.003248
    87  C   -0.035393
    88  C   -0.097897
    89  C    0.010318
    90  C    0.027403
    91  C   -0.006678
    92  C   -0.129146
    93  H    0.034107
    94  N   -0.495002
    95  C    0.189895
    96  C   -0.136905
    97  C   -0.054438
    98  C    0.137699
    99  C    0.058949
   100  C    0.036203
   101  O   -0.271632
   102  C   -0.006944
   103  N   -0.340800
   104  C    0.077594
   105  C   -0.129623
   106  C   -0.020113
   107  C    0.012678
   108  C    0.021357
   109  C   -0.019455
   110  C   -0.045924
   111  N   -0.428980
   112  C    0.150729
   113  C   -0.205241
   114  C    0.004390
   115  C    0.122953
   116  C    0.072267
   117  C    0.116752
   118  O   -0.207597
   119  C   -0.128511
   120  C    0.274782
   121  O   -0.237537
   122  O   -0.379807
   123  C    0.133595
   124  H   -0.002991
   125  H    0.023049
   126  H   -0.004376
   127  H    0.030761
   128  H    0.033127
   129  H    0.030648
   130  H    0.034876
   131  H    0.058475
   132  H    0.029791
   133  H    0.037232
   134  H    0.054514
   135  H    0.069169
   136  H    0.037175
   137  H    0.051141
   138  H    0.045669
   139  H    0.030947
   140  H    0.073502
   141  H    0.048587
   142  H    0.037208
   143  H    0.038775
   144  H    0.043473
   145  H    0.041859
   146  H    0.022291
   147  H    0.033273
   148  H    0.039380
   149  H    0.046934
   150  H    0.038543
   151  H    0.043008
   152  H    0.057631
   153  H    0.018509
   154  H    0.059414
   155  H    0.065576
   156  H    0.060231
   157  H    0.053722
   158  H    0.064597
 Sum of Mulliken charges =  -0.00000

 Dipole moment (field-independent basis, Debye):
    X=              0.6952    Y=              0.6229    Z=             -4.3965  Tot=              4.4945
 Quadrupole moment (field-independent basis, Debye-Ang):
   XX=             42.9303   YY=           -557.8062   ZZ=           -461.6424
   XY=             43.0776   XZ=             63.3724   YZ=              7.4313

 Normal termination of Gaussian 16 at Sun Sep 19 18:54:02 2021.
