 Gaussian 16, Revision A.03,
 Gaussian 16:  ES64L-G16RevA.03 25-Dec-2016

 --------------------------------
 #p wB97XD/Def2SVP td=(nstates=5)
 --------------------------------

 --------------------------------
 TDDFT excited states in gaussian
 --------------------------------
 Symbolic Z-matrix:
 Charge =  0 Multiplicity = 1

                         Standard orientation:
 ---------------------------------------------------------------------
 Center     Atomic      Atomic             Coordinates (Angstroms)
 Number     Number       Type             X           Y           Z
 ---------------------------------------------------------------------
      1         12           0      -10.050896   -0.725038    0.399626
      2          6           0       -9.863661    2.713893   -0.057722
      3          6           0       -8.069916   -0.348430    3.175780
      4          6           0      -10.007252   -4.161517    0.721497
      5          6           0      -11.571168   -1.103590   -2.714222
      6          7           0       -9.172582    1.007863    1.472396
      7          6           0       -9.305696    2.314609    1.187920
      8          6           0       -8.738683    3.273920    2.260229
      9          6           0       -7.945774    2.255430    3.186425
     10          6           0       -8.373689    0.839876    2.566445
     11          6           0       -6.411846    2.583365    3.112321
     12          6           0      -10.000428    3.987184    2.971216
     13          6           0       -9.989777    5.543821    3.008231
     14          1           0       -8.563983    6.178843    2.824925
     15          7           0       -9.127800   -2.106451    1.686576
     16          6           0       -8.409574   -1.721177    2.837408
     17          6           0       -8.161014   -2.896767    3.644335
     18          6           0       -8.657993   -4.002377    2.942653
     19          6           0       -9.383884   -3.448656    1.740137
     20          6           0       -7.206633   -2.849811    4.846054
     21          6           0       -8.547781   -5.503265    3.320919
     22          8           0       -9.017380   -6.446161    2.656819
     23          6           0       -7.874353   -5.867654    4.655216
     24          7           0      -10.643933   -2.363649   -0.895843
     25          6           0      -10.552787   -3.718066   -0.452140
     26          6           0      -10.942572   -4.683013   -1.591334
     27          6           0      -11.707014   -3.678899   -2.574372
     28          6           0      -11.323136   -2.287650   -2.005626
     29          6           0       -9.697164   -5.379631   -2.114226
     30          6           0      -13.278534   -3.890741   -2.515242
     31          6           0      -14.142567   -3.893337   -1.208326
     32          7           0      -10.543773    0.485602   -1.123696
     33          6           0      -11.146558    0.216132   -2.356240
     34          6           0      -11.328849    1.442159   -3.063180
     35          6           0      -10.893319    2.438471   -2.208229
     36          6           0      -10.320497    1.820376   -1.069292
     37          6           0      -11.836521    1.621844   -4.479283
     38          6           0      -10.754188    3.834294   -2.074253
     39          8           0      -10.976105    4.662041   -2.899525
     40          6           0       -9.968813    4.054784   -0.715570
     41          6           0       -8.624637    4.609151   -1.099044
     42          8           0       -7.593466    3.970513   -1.068681
     43          8           0       -8.811084    5.873818   -1.495117
     44          6           0       -7.723286    6.377436   -2.297419
     45          1           0       -7.508544   -0.232580    4.104981
     46          1           0       -9.777012   -5.228325    0.715540
     47          1           0      -12.036561   -1.206135   -3.697276
     48          1           0       -8.099870    4.070048    1.878350
     49          1           0       -8.258037    2.247357    4.230962
     50          1           0       -5.757313    1.716180    3.021539
     51          1           0       -6.305064    3.081197    4.075680
     52          1           0       -6.291358    3.342771    2.340105
     53          1           0      -10.120497    3.522879    3.949820
     54          1           0      -10.885779    3.674004    2.417344
     55          1           0      -10.391772    5.727488    4.004018
     56          1           0      -10.643147    6.026363    2.281949
     57          1           0       -6.430118   -3.593418    4.664913
     58          1           0       -7.736999   -3.179392    5.740479
     59          1           0       -6.808423   -1.842525    4.964145
     60          1           0       -6.804551   -5.700937    4.522764
     61          1           0       -7.991101   -6.946617    4.755362
     62          1           0       -8.431903   -5.421786    5.478527
     63          1           0      -11.693413   -5.338912   -1.149764
     64          1           0      -11.444072   -3.902196   -3.607714
     65          1           0       -8.918647   -5.489081   -1.359043
     66          1           0       -9.275176   -4.830099   -2.955369
     67          1           0       -9.923633   -6.402828   -2.413317
     68          1           0      -13.508560   -4.800470   -3.069931
     69          1           0      -13.652571   -3.008848   -3.035364
     70          1           0      -14.161400   -4.909684   -0.814642
     71          1           0      -15.140449   -3.585889   -1.523253
     72          1           0      -13.879108   -3.148992   -0.456221
     73          1           0      -12.846041    1.231252   -4.608637
     74          1           0      -11.142200    1.033483   -5.078813
     75          1           0      -11.994574    2.653184   -4.797758
     76          1           0      -10.385331    4.760199    0.003686
     77          1           0       -8.026172    7.115536   -3.039726
     78          1           0       -6.983511    5.711804   -2.741906
     79          1           0       -6.989494    6.945240   -1.724953
     80         12           0       10.096125   -0.566214   -0.326696
     81          6           0        8.110890    2.320492   -0.183403
     82          6           0       12.684969    1.268691    1.009425
     83          6           0       11.953859   -3.288390   -0.500654
     84          6           0        7.391907   -2.233009   -1.827262
     85          7           0       10.278324    1.520863    0.393263
     86          6           0        9.359975    2.570124    0.352033
     87          6           0        9.792731    3.813207    1.224459
     88          6           0       11.255367    3.462122    1.417178
     89          6           0       11.440279    1.970611    0.915234
     90          6           0       12.183389    4.382346    0.498907
     91          6           0        8.986525    3.628065    2.585993
     92          6           0        8.351948    4.935252    3.236127
     93          1           0        9.234458    6.123426    2.950674
     94          7           0       12.036670   -0.893254    0.038378
     95          6           0       12.933440   -0.060822    0.559879
     96          6           0       14.216035   -0.682014    0.759247
     97          6           0       14.001303   -2.050968    0.504225
     98          6           0       12.608306   -2.130051   -0.076858
     99          6           0       15.453260   -0.006438    1.225696
    100          6           0       14.870372   -3.254990    0.803754
    101          8           0       14.448406   -4.416061    0.756222
    102          6           0       16.365272   -3.068195    1.077567
    103          7           0        9.711539   -2.495356   -1.122093
    104          6           0       10.691438   -3.448238   -0.972869
    105          6           0       10.116805   -4.800541   -1.389335
    106          6           0        8.573802   -4.498206   -1.716514
    107          6           0        8.499544   -3.009862   -1.498210
    108          6           0       10.996175   -5.424246   -2.530091
    109          6           0        7.536639   -5.300379   -0.946307
    110          6           0        6.483406   -6.005087   -1.857494
    111          7           0        8.164149   -0.060790   -0.911411
    112          6           0        7.158081   -0.856767   -1.543772
    113          6           0        5.997134   -0.079105   -1.792622
    114          6           0        6.346204    1.174791   -1.263357
    115          6           0        7.676788    1.125761   -0.798401
    116          6           0        4.684749   -0.451702   -2.403569
    117          6           0        5.884732    2.503885   -1.019392
    118          8           0        4.851120    3.074717   -1.277347
    119          6           0        6.986373    3.246270   -0.211293
    120          6           0        7.222543    4.576566   -0.828944
    121          8           0        7.766100    4.818724   -1.902880
    122          8           0        6.777518    5.490030    0.039348
    123          6           0        6.978605    6.880499   -0.310679
    124          1           0       13.537827    1.687780    1.547189
    125          1           0       12.624223   -4.150598   -0.541101
    126          1           0        6.506660   -2.726732   -2.233661
    127          1           0        9.432939    4.680774    0.672169
    128          1           0       11.521799    3.525129    2.471704
    129          1           0       11.606008    5.072909   -0.116109
    130          1           0       12.770660    3.734015   -0.151100
    131          1           0       12.827007    4.899409    1.210682
    132          1           0        9.588362    3.202745    3.388564
    133          1           0        8.212758    2.888149    2.379606
    134          1           0        8.415917    4.891749    4.323441
    135          1           0        7.276567    4.986428    3.063776
    136          1           0       15.660800   -0.395617    2.223406
    137          1           0       15.310685    1.069711    1.313658
    138          1           0       16.314628   -0.189683    0.584069
    139          1           0       16.713132   -4.081219    0.876700
    140          1           0       16.591028   -2.718128    2.085528
    141          1           0       16.930717   -2.459752    0.372010
    142          1           0       10.128236   -5.574816   -0.622272
    143          1           0        8.408986   -4.676848   -2.779148
    144          1           0       11.146228   -6.466299   -2.247536
    145          1           0       11.935431   -4.898879   -2.703261
    146          1           0       10.412150   -5.582241   -3.437530
    147          1           0        6.996296   -4.728141   -0.192856
    148          1           0        8.103722   -6.140389   -0.542697
    149          1           0        6.747133   -5.893248   -2.909304
    150          1           0        5.521372   -5.493773   -1.830317
    151          1           0        6.402712   -7.066576   -1.622426
    152          1           0        4.230194   -1.023178   -1.593839
    153          1           0        4.912697   -0.985310   -3.326022
    154          1           0        4.046226    0.412644   -2.580540
    155          1           0        6.497299    3.448142    0.742613
    156          1           0        6.563892    7.079102   -1.299341
    157          1           0        8.010839    7.218527   -0.407985
    158          1           0        6.445318    7.460927    0.442405
 ---------------------------------------------------------------------

 SCF Done:  E(RwB97XD) =  -4070.63745340     A.U. after   19 cycles

 Excitation energies and oscillator strengths:

 Excited State   1:      Singlet-A      1.6519 eV  750.53 nm  f=0.3952  <S**2>=0.000
     310 -> 316       -0.18063
     312 -> 314        0.68410
     310 <- 316       -0.11541
 This state for optimization and/or second-order correction.
 Total Energy, E(TD-HF/TD-DFT) =  -4070.57674545
 Copying the excited state density for this state as the 1-particle RhoCI density.

 Excited State   2:      Singlet-A      1.6803 eV  737.85 nm  f=0.3782  <S**2>=0.000
     309 -> 315       -0.16574
     311 -> 313        0.68542
     309 <- 315       -0.10528

 Excited State   3:      Singlet-A      2.1705 eV  571.22 nm  f=0.1181  <S**2>=0.000
     310 -> 314        0.64457
     312 -> 316        0.27753

 Excited State   4:      Singlet-A      2.2343 eV  554.92 nm  f=0.1212  <S**2>=0.000
     309 -> 313        0.63501
     311 -> 315        0.28441

 Excited State   5:      Singlet-A      3.5770 eV  346.62 nm  f=0.0000  <S**2>=0.000
     312 -> 313        0.70683

 The electronic state is 1-A.
 Alpha  occ. eigenvalues --  -46.94291 -46.94083 -19.31208 -19.30423 -19.24985
 Alpha  occ. eigenvalues --  -19.24835 -19.24309 -19.23699 -19.23477 -19.22342
 Alpha  occ. eigenvalues --  -14.46816 -14.46706 -14.46192 -14.45895 -14.44825
 Alpha  occ. eigenvalues --  -14.43990 -14.43573 -14.42997 -10.42989 -10.42113
 Alpha  occ. eigenvalues --  -10.40246 -10.38946 -10.38725 -10.37061 -10.35970
 Alpha  occ. eigenvalues --  -10.35539 -10.35112 -10.35071 -10.34894 -10.34710
 Alpha  occ. eigenvalues --  -10.34708 -10.34574 -10.34431 -10.34192 -10.34155
 Alpha  occ. eigenvalues --  -10.34020 -10.33752 -10.33698 -10.33487 -10.33472
 Alpha  occ. eigenvalues --  -10.33258 -10.32960 -10.32834 -10.32832 -10.32484
 Alpha  occ. eigenvalues --  -10.32472 -10.32372 -10.32293 -10.32220 -10.32135
 Alpha  occ. eigenvalues --  -10.32056 -10.31801 -10.31796 -10.31624 -10.31601
 Alpha  occ. eigenvalues --  -10.31584 -10.31569 -10.31498 -10.31395 -10.31088
 Alpha  occ. eigenvalues --  -10.31087 -10.31057 -10.30966 -10.30906 -10.30654
 Alpha  occ. eigenvalues --  -10.30652 -10.30627 -10.30564 -10.30527 -10.30460
 Alpha  occ. eigenvalues --  -10.30384 -10.30132 -10.30091 -10.30068 -10.29920
 Alpha  occ. eigenvalues --  -10.29887 -10.29554 -10.29550 -10.29528 -10.29482
 Alpha  occ. eigenvalues --  -10.29330 -10.29181 -10.29056 -10.28974 -10.28651
 Alpha  occ. eigenvalues --  -10.27507  -3.20323  -3.20202  -1.93916  -1.93808
 Alpha  occ. eigenvalues --   -1.93425  -1.93315  -1.93312  -1.93206  -1.20179
 Alpha  occ. eigenvalues --   -1.19241  -1.14165  -1.12601  -1.11497  -1.11098
 Alpha  occ. eigenvalues --   -1.10380  -1.09221  -1.07049  -1.06054  -1.05866
 Alpha  occ. eigenvalues --   -1.05200  -1.04883  -1.04618  -1.04322  -1.03010
 Alpha  occ. eigenvalues --   -0.94685  -0.94563  -0.91580  -0.90379  -0.90308
 Alpha  occ. eigenvalues --   -0.90266  -0.89857  -0.89845  -0.89509  -0.88902
 Alpha  occ. eigenvalues --   -0.88900  -0.88548  -0.88303  -0.87798  -0.85847
 Alpha  occ. eigenvalues --   -0.85736  -0.85388  -0.85129  -0.84225  -0.84027
 Alpha  occ. eigenvalues --   -0.83745  -0.83183  -0.83012  -0.82690  -0.82285
 Alpha  occ. eigenvalues --   -0.81752  -0.80881  -0.79520  -0.79294  -0.78888
 Alpha  occ. eigenvalues --   -0.78643  -0.78521  -0.77638  -0.77477  -0.76878
 Alpha  occ. eigenvalues --   -0.76755  -0.75048  -0.74836  -0.73357  -0.73008
 Alpha  occ. eigenvalues --   -0.71141  -0.70748  -0.70706  -0.70500  -0.69799
 Alpha  occ. eigenvalues --   -0.69579  -0.69308  -0.68199  -0.67655  -0.67344
 Alpha  occ. eigenvalues --   -0.67130  -0.66962  -0.66455  -0.66401  -0.66327
 Alpha  occ. eigenvalues --   -0.65749  -0.64400  -0.64227  -0.62796  -0.61850
 Alpha  occ. eigenvalues --   -0.61505  -0.61281  -0.61117  -0.60775  -0.60571
 Alpha  occ. eigenvalues --   -0.60234  -0.59867  -0.59675  -0.59245  -0.59111
 Alpha  occ. eigenvalues --   -0.58631  -0.58054  -0.57546  -0.57530  -0.57271
 Alpha  occ. eigenvalues --   -0.56744  -0.56331  -0.56233  -0.55777  -0.55714
 Alpha  occ. eigenvalues --   -0.55467  -0.55172  -0.55122  -0.54923  -0.54524
 Alpha  occ. eigenvalues --   -0.54446  -0.54340  -0.54012  -0.53978  -0.53778
 Alpha  occ. eigenvalues --   -0.53687  -0.53650  -0.53556  -0.53177  -0.52994
 Alpha  occ. eigenvalues --   -0.52728  -0.52665  -0.52440  -0.52300  -0.52181
 Alpha  occ. eigenvalues --   -0.51915  -0.51706  -0.51618  -0.51513  -0.51314
 Alpha  occ. eigenvalues --   -0.51173  -0.50940  -0.50614  -0.50580  -0.50460
 Alpha  occ. eigenvalues --   -0.50409  -0.50366  -0.50105  -0.49782  -0.49729
 Alpha  occ. eigenvalues --   -0.49527  -0.49525  -0.49421  -0.49264  -0.49062
 Alpha  occ. eigenvalues --   -0.48956  -0.48610  -0.48451  -0.48426  -0.48284
 Alpha  occ. eigenvalues --   -0.48051  -0.47969  -0.47962  -0.47614  -0.47362
 Alpha  occ. eigenvalues --   -0.47179  -0.47008  -0.46896  -0.46766  -0.46588
 Alpha  occ. eigenvalues --   -0.46444  -0.46398  -0.46350  -0.46305  -0.46202
 Alpha  occ. eigenvalues --   -0.46101  -0.45634  -0.45554  -0.45518  -0.45443
 Alpha  occ. eigenvalues --   -0.45220  -0.44958  -0.44870  -0.44851  -0.44777
 Alpha  occ. eigenvalues --   -0.44508  -0.44453  -0.44238  -0.44163  -0.43835
 Alpha  occ. eigenvalues --   -0.43685  -0.43589  -0.43516  -0.43137  -0.42975
 Alpha  occ. eigenvalues --   -0.42662  -0.42579  -0.42459  -0.42260  -0.42059
 Alpha  occ. eigenvalues --   -0.41943  -0.41592  -0.41338  -0.40901  -0.40703
 Alpha  occ. eigenvalues --   -0.40150  -0.39589  -0.39530  -0.39333  -0.39259
 Alpha  occ. eigenvalues --   -0.38919  -0.38863  -0.38861  -0.38421  -0.38307
 Alpha  occ. eigenvalues --   -0.38294  -0.38019  -0.36581  -0.36190  -0.35951
 Alpha  occ. eigenvalues --   -0.35845  -0.34931  -0.34801  -0.34280  -0.33675
 Alpha  occ. eigenvalues --   -0.33544  -0.33085  -0.32917  -0.32353  -0.32202
 Alpha  occ. eigenvalues --   -0.31638  -0.31571  -0.31267  -0.26017  -0.25555
 Alpha  occ. eigenvalues --   -0.22841  -0.22653
 Alpha virt. eigenvalues --   -0.06892  -0.06770   0.00266   0.00735   0.02568
 Alpha virt. eigenvalues --    0.02746   0.04726   0.05001   0.05740   0.06483
 Alpha virt. eigenvalues --    0.07253   0.08147   0.08457   0.08489   0.08743

 Mulliken charges:
               1
     1  Mg   0.964402
     2  C   -0.022355
     3  C   -0.066950
     4  C   -0.064763
     5  C   -0.108365
     6  N   -0.333671
     7  C    0.014309
     8  C   -0.075971
     9  C   -0.120730
    10  C    0.067041
    11  C    0.027508
    12  C   -0.000171
    13  C   -0.127300
    14  H    0.035517
    15  N   -0.460754
    16  C    0.133565
    17  C   -0.174294
    18  C   -0.090201
    19  C    0.138098
    20  C    0.086429
    21  C    0.051156
    22  O   -0.252687
    23  C   -0.016255
    24  N   -0.338609
    25  C    0.022255
    26  C   -0.061327
    27  C   -0.072315
    28  C    0.096788
    29  C    0.042063
    30  C   -0.059377
    31  C   -0.054385
    32  N   -0.488705
    33  C    0.148604
    34  C   -0.184014
    35  C   -0.008108
    36  C    0.148367
    37  C    0.079577
    38  C    0.095241
    39  O   -0.162699
    40  C   -0.097373
    41  C    0.245625
    42  O   -0.236391
    43  O   -0.310025
    44  C    0.140431
    45  H   -0.012990
    46  H    0.030618
    47  H    0.003162
    48  H    0.040276
    49  H    0.038518
    50  H    0.052565
    51  H    0.032635
    52  H    0.050175
    53  H    0.033006
    54  H    0.042129
    55  H    0.056730
    56  H    0.069964
    57  H    0.044468
    58  H    0.039023
    59  H    0.041666
    60  H    0.061721
    61  H    0.044124
    62  H    0.063863
    63  H    0.034874
    64  H    0.030229
    65  H    0.046230
    66  H    0.035205
    67  H    0.036957
    68  H    0.038710
    69  H    0.021492
    70  H    0.047561
    71  H    0.037097
    72  H    0.043712
    73  H    0.037331
    74  H    0.057007
    75  H    0.057408
    76  H    0.056315
    77  H    0.057848
    78  H    0.055524
    79  H    0.025664
    80  Mg   0.983840
    81  C    0.006792
    82  C   -0.113626
    83  C   -0.075861
    84  C   -0.074182
    85  N   -0.350760
    86  C   -0.049356
    87  C   -0.050266
    88  C   -0.097987
    89  C    0.098177
    90  C    0.023355
    91  C    0.001810
    92  C   -0.114907
    93  H    0.031887
    94  N   -0.466406
    95  C    0.154165
    96  C   -0.174263
    97  C   -0.070275
    98  C    0.137820
    99  C    0.077672
   100  C    0.062699
   101  O   -0.243541
   102  C   -0.045420
   103  N   -0.389991
   104  C    0.116163
   105  C   -0.106942
   106  C   -0.048690
   107  C    0.073147
   108  C    0.009932
   109  C    0.001351
   110  C   -0.071438
   111  N   -0.414406
   112  C    0.082130
   113  C   -0.193215
   114  C   -0.037944
   115  C    0.139191
   116  C    0.088246
   117  C    0.083231
   118  O   -0.205137
   119  C   -0.074293
   120  C    0.226249
   121  O   -0.256820
   122  O   -0.333976
   123  C    0.142551
   124  H   -0.000201
   125  H    0.028382
   126  H   -0.007749
   127  H    0.049745
   128  H    0.039927
   129  H    0.051946
   130  H    0.043605
   131  H    0.040084
   132  H    0.030914
   133  H    0.043350
   134  H    0.042608
   135  H    0.062575
   136  H    0.053127
   137  H    0.041009
   138  H    0.058465
   139  H    0.058550
   140  H    0.065359
   141  H    0.052871
   142  H    0.043200
   143  H    0.032444
   144  H    0.027645
   145  H    0.060807
   146  H    0.025995
   147  H    0.049315
   148  H    0.028129
   149  H    0.020913
   150  H    0.037667
   151  H    0.045818
   152  H    0.054454
   153  H    0.052980
   154  H    0.061815
   155  H    0.066930
   156  H    0.054692
   157  H    0.045111
   158  H    0.056813
 Sum of Mulliken charges =  -0.00000

 Dipole moment (field-independent basis, Debye):
    X=              3.9393    Y=              0.4985    Z=              5.3362  Tot=              6.6514
 Quadrupole moment (field-independent basis, Debye-Ang):
   XX=           -403.2961   YY=           -513.6070   ZZ=           -487.2956
   XY=             11.1102   XZ=             22.6548   YZ=             42.2108

 Normal termination of Gaussian 16 at Sun Sep 19 15:48:09 2021.
