 Gaussian 16, Revision A.03,
 Gaussian 16:  ES64L-G16RevA.03 25-Dec-2016

 --------------------------------
 #p wB97XD/Def2SVP td=(nstates=5)
 --------------------------------

 --------------------------------
 TDDFT excited states in gaussian
 --------------------------------
 Symbolic Z-matrix:
 Charge =  0 Multiplicity = 1

                         Standard orientation:
 ---------------------------------------------------------------------
 Center     Atomic      Atomic             Coordinates (Angstroms)
 Number     Number       Type             X           Y           Z
 ---------------------------------------------------------------------
      1         12           0      -25.224484   -0.626393   -0.518601
      2          6           0      -26.219782    1.744247    1.733371
      3          6           0      -24.194309    1.717205   -2.651344
      4          6           0      -24.552546   -3.026901   -2.618268
      5          6           0      -26.897479   -2.987590    1.561878
      6          7           0      -25.362279    1.539335   -0.545236
      7          6           0      -25.556978    2.257915    0.588673
      8          6           0      -25.028796    3.660610    0.461615
      9          6           0      -24.642323    3.694328   -1.071452
     10          6           0      -24.812846    2.252057   -1.496838
     11          6           0      -25.437203    4.719125   -1.915796
     12          6           0      -23.841749    4.040466    1.540512
     13          6           0      -23.940347    5.370978    2.302262
     14          1           0      -24.778030    6.506744    1.635014
     15          7           0      -24.352951   -0.663409   -2.230383
     16          6           0      -23.979059    0.381140   -3.014488
     17          6           0      -23.494757   -0.025185   -4.311246
     18          6           0      -23.401678   -1.382159   -4.237073
     19          6           0      -24.228676   -1.741199   -3.043338
     20          6           0      -23.263135    1.067666   -5.338669
     21          6           0      -22.800795   -2.367127   -5.259520
     22          8           0      -22.818377   -3.569405   -5.133268
     23          6           0      -22.211278   -1.703012   -6.468652
     24          7           0      -25.837421   -2.694511   -0.570190
     25          6           0      -25.283350   -3.466321   -1.522491
     26          6           0      -25.605499   -4.944884   -1.284116
     27          6           0      -26.077010   -4.963002    0.209577
     28          6           0      -26.319409   -3.455522    0.428659
     29          6           0      -26.622035   -5.665001   -2.268908
     30          6           0      -25.032694   -5.485220    1.266846
     31          6           0      -23.679876   -4.851855    1.459137
     32          7           0      -26.277281   -0.729510    1.328632
     33          6           0      -26.983330   -1.718236    2.021499
     34          6           0      -27.598382   -1.187092    3.244598
     35          6           0      -27.313298    0.184974    3.178284
     36          6           0      -26.517316    0.368757    2.004044
     37          6           0      -28.308243   -1.942234    4.338849
     38          6           0      -27.485610    1.419660    3.795612
     39          8           0      -28.102519    1.778731    4.786364
     40          6           0      -26.600185    2.439128    3.033204
     41          6           0      -27.514818    3.591233    2.862338
     42          8           0      -28.396967    3.683318    2.005275
     43          8           0      -27.339811    4.511162    3.855217
     44          6           0      -28.337259    5.569695    4.041536
     45          1           0      -23.694504    2.494103   -3.234036
     46          1           0      -24.311094   -3.887270   -3.244722
     47          1           0      -27.332029   -3.821227    2.118812
     48          1           0      -25.836905    4.385637    0.559157
     49          1           0      -23.575074    3.896237   -1.159998
     50          1           0      -26.193880    4.188180   -2.493280
     51          1           0      -24.749999    5.198329   -2.613105
     52          1           0      -25.895613    5.411798   -1.209886
     53          1           0      -22.923907    4.032017    0.952514
     54          1           0      -23.791303    3.292174    2.330839
     55          1           0      -22.956482    5.832598    2.381700
     56          1           0      -24.252212    5.185041    3.329942
     57          1           0      -24.148616    1.641206   -5.613116
     58          1           0      -23.013581    0.813971   -6.368769
     59          1           0      -22.454743    1.624795   -4.865119
     60          1           0      -21.454037   -0.975514   -6.177319
     61          1           0      -23.102404   -1.327630   -6.971298
     62          1           0      -21.641379   -2.306347   -7.174362
     63          1           0      -24.633846   -5.409635   -1.455190
     64          1           0      -27.046462   -5.458901    0.262858
     65          1           0      -26.954780   -4.956816   -3.027379
     66          1           0      -27.545545   -5.920699   -1.750795
     67          1           0      -26.272006   -6.582708   -2.744007
     68          1           0      -24.943385   -6.519113    0.932413
     69          1           0      -25.435971   -5.483390    2.278997
     70          1           0      -23.502907   -4.123251    0.666908
     71          1           0      -22.892226   -5.600453    1.375006
     72          1           0      -23.538726   -4.275227    2.373073
     73          1           0      -29.384091   -1.773087    4.330110
     74          1           0      -27.898046   -1.658112    5.308077
     75          1           0      -28.156222   -2.983486    4.053519
     76          1           0      -25.676863    2.657561    3.570048
     77          1           0      -28.356062    5.942085    5.066460
     78          1           0      -29.304684    5.297057    3.622584
     79          1           0      -28.136907    6.445929    3.425225
     80         12           0       25.186079   -0.730582    0.406537
     81          6           0       25.128597    2.160264   -1.629305
     82          6           0       25.034154    1.315624    3.148623
     83          6           0       25.893018   -3.361122    2.290236
     84          6           0       25.821862   -2.622947   -2.468561
     85          7           0       25.256168    1.502118    0.720047
     86          6           0       25.115617    2.461208   -0.286499
     87          6           0       24.770063    3.835131    0.338936
     88          6           0       24.765788    3.537155    1.882837
     89          6           0       24.994292    2.002986    1.975568
     90          6           0       25.601866    4.446289    2.766553
     91          6           0       23.474738    4.503889   -0.147010
     92          6           0       23.675428    5.944825   -0.691539
     93          1           0       22.835295    7.013619   -0.028343
     94          7           0       25.340904   -0.974562    2.460977
     95          6           0       25.286282   -0.030586    3.444006
     96          6           0       25.291043   -0.718518    4.713065
     97          6           0       25.696435   -2.101521    4.477254
     98          6           0       25.670009   -2.151017    3.023471
     99          6           0       25.177289    0.061192    6.123611
    100          6           0       26.288284   -3.112565    5.361975
    101          8           0       26.588675   -4.238566    5.084235
    102          6           0       26.561837   -2.665482    6.794911
    103          7           0       25.986501   -2.683781   -0.058085
    104          6           0       26.126829   -3.604272    0.915672
    105          6           0       26.335405   -4.997502    0.317569
    106          6           0       25.952424   -4.794828   -1.157211
    107          6           0       25.870535   -3.288193   -1.260717
    108          6           0       27.846388   -5.486221    0.489945
    109          6           0       24.499683   -5.451139   -1.402829
    110          6           0       23.299312   -4.680054   -0.789018
    111          7           0       25.325015   -0.419925   -1.682534
    112          6           0       25.569101   -1.273414   -2.690096
    113          6           0       25.553191   -0.530238   -3.921342
    114          6           0       25.337675    0.785786   -3.557664
    115          6           0       25.264423    0.844158   -2.163241
    116          6           0       25.756011   -1.024760   -5.340882
    117          6           0       25.244543    2.119902   -4.156630
    118          8           0       25.377020    2.632684   -5.232023
    119          6           0       25.026018    3.060396   -2.942088
    120          6           0       26.145914    4.033166   -2.985879
    121          8           0       27.294627    3.668899   -3.012748
    122          8           0       25.729896    5.351403   -3.081295
    123          6           0       26.786037    6.359980   -3.429268
    124          1           0       24.776431    1.954560    3.995995
    125          1           0       26.015137   -4.283844    2.861991
    126          1           0       25.799745   -3.151808   -3.423721
    127          1           0       25.609842    4.511522    0.178316
    128          1           0       23.771196    3.768612    2.264540
    129          1           0       26.323729    5.011583    2.178955
    130          1           0       26.118952    3.922749    3.571081
    131          1           0       24.910635    5.188410    3.165202
    132          1           0       22.672234    4.651115    0.575791
    133          1           0       23.005202    3.910138   -0.930964
    134          1           0       23.603389    5.974658   -1.778698
    135          1           0       24.698965    6.239911   -0.463994
    136          1           0       24.431813   -0.454468    6.728869
    137          1           0       24.830131    1.092728    6.077921
    138          1           0       26.079600    0.201918    6.718654
    139          1           0       25.568545   -2.425995    7.175262
    140          1           0       27.193113   -1.783320    6.693023
    141          1           0       26.973219   -3.439511    7.443529
    142          1           0       25.651418   -5.748881    0.713575
    143          1           0       26.631858   -5.106418   -1.950859
    144          1           0       27.821038   -6.575018    0.541626
    145          1           0       28.403366   -5.161037    1.369307
    146          1           0       28.330332   -5.173901   -0.435320
    147          1           0       24.443349   -6.487815   -1.071396
    148          1           0       24.241274   -5.375994   -2.459175
    149          1           0       22.346066   -5.207327   -0.805901
    150          1           0       23.169178   -3.765079   -1.367155
    151          1           0       23.569783   -4.413224    0.233143
    152          1           0       25.000289   -1.731427   -5.683065
    153          1           0       26.715966   -1.538504   -5.296468
    154          1           0       25.886164   -0.211981   -6.055388
    155          1           0       24.093540    3.568530   -3.187170
    156          1           0       26.513994    7.135520   -2.713287
    157          1           0       26.689848    6.746695   -4.443643
    158          1           0       27.841535    6.102990   -3.343494
 ---------------------------------------------------------------------

 SCF Done:  E(RwB97XD) =  -4070.61325095     A.U. after   19 cycles

 Excitation energies and oscillator strengths:

 Excited State   1:      Singlet-A      1.6442 eV  754.08 nm  f=0.3985  <S**2>=0.000
     309 -> 316        0.18144
     311 -> 313        0.68505
     309 <- 316        0.11694
 This state for optimization and/or second-order correction.
 Total Energy, E(TD-HF/TD-DFT) =  -4070.55282880
 Copying the excited state density for this state as the 1-particle RhoCI density.

 Excited State   2:      Singlet-A      1.7217 eV  720.11 nm  f=0.3759  <S**2>=0.000
     310 -> 315        0.19589
     312 -> 314        0.67980
     310 <- 315        0.11419

 Excited State   3:      Singlet-A      2.1359 eV  580.49 nm  f=0.1346  <S**2>=0.000
     309 -> 313        0.65465
     311 -> 316       -0.25214

 Excited State   4:      Singlet-A      2.2243 eV  557.41 nm  f=0.0565  <S**2>=0.000
     310 -> 314        0.61466
     312 -> 315       -0.33874

 Excited State   5:      Singlet-A      3.7705 eV  328.83 nm  f=0.0000  <S**2>=0.000
     312 -> 313        0.70711

 The electronic state is 1-A.
 Alpha  occ. eigenvalues --  -46.95908 -46.94316 -19.30396 -19.29132 -19.24999
 Alpha  occ. eigenvalues --  -19.24682 -19.24237 -19.23431 -19.23287 -19.22695
 Alpha  occ. eigenvalues --  -14.46749 -14.46543 -14.46295 -14.45649 -14.44659
 Alpha  occ. eigenvalues --  -14.44387 -14.43845 -14.43338 -10.42664 -10.42105
 Alpha  occ. eigenvalues --  -10.39970 -10.39208 -10.38332 -10.37531 -10.35605
 Alpha  occ. eigenvalues --  -10.35589 -10.34952 -10.34820 -10.34797 -10.34786
 Alpha  occ. eigenvalues --  -10.34633 -10.34465 -10.34396 -10.34306 -10.34285
 Alpha  occ. eigenvalues --  -10.34249 -10.34003 -10.33838 -10.33393 -10.33219
 Alpha  occ. eigenvalues --  -10.33130 -10.33006 -10.32917 -10.32848 -10.32679
 Alpha  occ. eigenvalues --  -10.32288 -10.32120 -10.32082 -10.32054 -10.32027
 Alpha  occ. eigenvalues --  -10.32006 -10.31965 -10.31938 -10.31922 -10.31903
 Alpha  occ. eigenvalues --  -10.31759 -10.31735 -10.31658 -10.31616 -10.31569
 Alpha  occ. eigenvalues --  -10.31547 -10.31400 -10.31384 -10.31368 -10.31103
 Alpha  occ. eigenvalues --  -10.31021 -10.30701 -10.30597 -10.30589 -10.30501
 Alpha  occ. eigenvalues --  -10.30428 -10.30380 -10.30200 -10.30102 -10.29918
 Alpha  occ. eigenvalues --  -10.29917 -10.29848 -10.29831 -10.29750 -10.29632
 Alpha  occ. eigenvalues --  -10.29488 -10.29128 -10.29025 -10.29019 -10.28947
 Alpha  occ. eigenvalues --  -10.28067  -3.21772  -3.20575  -1.95339  -1.94905
 Alpha  occ. eigenvalues --   -1.94731  -1.94137  -1.93719  -1.93585  -1.17871
 Alpha  occ. eigenvalues --   -1.17011  -1.13949  -1.13792  -1.13298  -1.11222
 Alpha  occ. eigenvalues --   -1.09851  -1.08106  -1.07655  -1.07232  -1.06768
 Alpha  occ. eigenvalues --   -1.06358  -1.06122  -1.05894  -1.05025  -1.04033
 Alpha  occ. eigenvalues --   -0.94372  -0.94322  -0.91620  -0.90798  -0.90700
 Alpha  occ. eigenvalues --   -0.90365  -0.90178  -0.89905  -0.89865  -0.89699
 Alpha  occ. eigenvalues --   -0.89405  -0.88537  -0.88496  -0.88297  -0.86364
 Alpha  occ. eigenvalues --   -0.86302  -0.85487  -0.85418  -0.84650  -0.84510
 Alpha  occ. eigenvalues --   -0.84419  -0.83173  -0.83004  -0.82845  -0.82496
 Alpha  occ. eigenvalues --   -0.82137  -0.81023  -0.80349  -0.79389  -0.79379
 Alpha  occ. eigenvalues --   -0.78906  -0.78730  -0.78103  -0.77641  -0.77180
 Alpha  occ. eigenvalues --   -0.77150  -0.75126  -0.74627  -0.73772  -0.73678
 Alpha  occ. eigenvalues --   -0.71572  -0.71311  -0.71229  -0.71023  -0.70136
 Alpha  occ. eigenvalues --   -0.70085  -0.69328  -0.69264  -0.67446  -0.67357
 Alpha  occ. eigenvalues --   -0.67313  -0.67167  -0.66918  -0.66761  -0.66478
 Alpha  occ. eigenvalues --   -0.65759  -0.64311  -0.63707  -0.63172  -0.62442
 Alpha  occ. eigenvalues --   -0.61718  -0.61311  -0.61303  -0.61278  -0.60757
 Alpha  occ. eigenvalues --   -0.60125  -0.59888  -0.59804  -0.59564  -0.59542
 Alpha  occ. eigenvalues --   -0.58340  -0.58007  -0.57365  -0.57245  -0.57188
 Alpha  occ. eigenvalues --   -0.57103  -0.56615  -0.56598  -0.56411  -0.56137
 Alpha  occ. eigenvalues --   -0.55606  -0.55387  -0.55130  -0.54954  -0.54628
 Alpha  occ. eigenvalues --   -0.54604  -0.54573  -0.54357  -0.54348  -0.54189
 Alpha  occ. eigenvalues --   -0.54089  -0.53855  -0.53614  -0.53495  -0.53240
 Alpha  occ. eigenvalues --   -0.53206  -0.52708  -0.52545  -0.52431  -0.52146
 Alpha  occ. eigenvalues --   -0.52024  -0.51767  -0.51505  -0.51461  -0.51321
 Alpha  occ. eigenvalues --   -0.51268  -0.51259  -0.51021  -0.50999  -0.50730
 Alpha  occ. eigenvalues --   -0.50498  -0.50365  -0.50218  -0.50027  -0.49952
 Alpha  occ. eigenvalues --   -0.49896  -0.49727  -0.49556  -0.49432  -0.49107
 Alpha  occ. eigenvalues --   -0.48983  -0.48757  -0.48590  -0.48443  -0.48392
 Alpha  occ. eigenvalues --   -0.48090  -0.48069  -0.47846  -0.47631  -0.47514
 Alpha  occ. eigenvalues --   -0.47412  -0.47260  -0.47156  -0.47068  -0.46780
 Alpha  occ. eigenvalues --   -0.46501  -0.46465  -0.46086  -0.46019  -0.45816
 Alpha  occ. eigenvalues --   -0.45777  -0.45622  -0.45519  -0.45383  -0.45309
 Alpha  occ. eigenvalues --   -0.45083  -0.45017  -0.44866  -0.44853  -0.44810
 Alpha  occ. eigenvalues --   -0.44416  -0.44386  -0.44322  -0.44078  -0.44053
 Alpha  occ. eigenvalues --   -0.43966  -0.43793  -0.43521  -0.43394  -0.43324
 Alpha  occ. eigenvalues --   -0.43167  -0.42994  -0.42820  -0.42703  -0.42461
 Alpha  occ. eigenvalues --   -0.42254  -0.41669  -0.41504  -0.41125  -0.41007
 Alpha  occ. eigenvalues --   -0.40392  -0.40254  -0.40108  -0.40039  -0.39832
 Alpha  occ. eigenvalues --   -0.39173  -0.39040  -0.38432  -0.38378  -0.38318
 Alpha  occ. eigenvalues --   -0.38238  -0.37151  -0.36427  -0.36352  -0.36063
 Alpha  occ. eigenvalues --   -0.35671  -0.35450  -0.34959  -0.34651  -0.33853
 Alpha  occ. eigenvalues --   -0.33420  -0.33270  -0.32943  -0.32582  -0.32398
 Alpha  occ. eigenvalues --   -0.32240  -0.32075  -0.31873  -0.26128  -0.25775
 Alpha  occ. eigenvalues --   -0.23418  -0.22442
 Alpha virt. eigenvalues --   -0.07558  -0.06179   0.00142   0.00459   0.02286
 Alpha virt. eigenvalues --    0.02571   0.04555   0.04570   0.04776   0.05861
 Alpha virt. eigenvalues --    0.07532   0.07557   0.07889   0.08477   0.08848

 Mulliken charges:
               1
     1  Mg   0.992766
     2  C    0.010901
     3  C   -0.117844
     4  C   -0.080766
     5  C   -0.116907
     6  N   -0.330609
     7  C   -0.016805
     8  C   -0.037286
     9  C   -0.153973
    10  C    0.076229
    11  C    0.047333
    12  C    0.007362
    13  C   -0.126093
    14  H    0.026433
    15  N   -0.509752
    16  C    0.180161
    17  C   -0.131543
    18  C   -0.119584
    19  C    0.182721
    20  C    0.046503
    21  C    0.071572
    22  O   -0.201868
    23  C   -0.025046
    24  N   -0.321199
    25  C    0.020902
    26  C   -0.086035
    27  C   -0.050227
    28  C   -0.008250
    29  C    0.024219
    30  C   -0.010713
    31  C   -0.046780
    32  N   -0.398643
    33  C    0.159812
    34  C   -0.187000
    35  C    0.034830
    36  C    0.091510
    37  C    0.104731
    38  C    0.050720
    39  O   -0.214258
    40  C   -0.074892
    41  C    0.264653
    42  O   -0.268220
    43  O   -0.355833
    44  C    0.151801
    45  H   -0.008459
    46  H    0.016457
    47  H   -0.010526
    48  H    0.043177
    49  H    0.031870
    50  H    0.045744
    51  H    0.038577
    52  H    0.045934
    53  H    0.033195
    54  H    0.041128
    55  H    0.049097
    56  H    0.062525
    57  H    0.060499
    58  H    0.029666
    59  H    0.066476
    60  H    0.061438
    61  H    0.069375
    62  H    0.048031
    63  H    0.035039
    64  H    0.029224
    65  H    0.038307
    66  H    0.025931
    67  H    0.050240
    68  H    0.032282
    69  H    0.032296
    70  H    0.028525
    71  H    0.041153
    72  H    0.043826
    73  H    0.059470
    74  H    0.063953
    75  H    0.019684
    76  H    0.072668
    77  H    0.061562
    78  H    0.057189
    79  H    0.029415
    80  Mg   0.946123
    81  C   -0.040836
    82  C   -0.093370
    83  C   -0.065180
    84  C   -0.068539
    85  N   -0.372016
    86  C    0.009182
    87  C   -0.037706
    88  C   -0.103060
    89  C    0.075281
    90  C    0.021459
    91  C    0.015344
    92  C   -0.141998
    93  H    0.025719
    94  N   -0.445285
    95  C    0.174575
    96  C   -0.128503
    97  C   -0.081753
    98  C    0.149725
    99  C    0.018299
   100  C    0.023393
   101  O   -0.210386
   102  C   -0.006030
   103  N   -0.331253
   104  C    0.048463
   105  C   -0.089199
   106  C   -0.066811
   107  C    0.056080
   108  C    0.021702
   109  C   -0.041408
   110  C   -0.066552
   111  N   -0.411955
   112  C    0.080691
   113  C   -0.175946
   114  C   -0.085146
   115  C    0.178141
   116  C    0.073495
   117  C    0.147761
   118  O   -0.174258
   119  C   -0.066632
   120  C    0.252283
   121  O   -0.231223
   122  O   -0.382093
   123  C    0.126253
   124  H   -0.009976
   125  H    0.025898
   126  H   -0.003884
   127  H    0.040944
   128  H    0.033955
   129  H    0.030253
   130  H    0.043344
   131  H    0.031374
   132  H    0.042740
   133  H    0.032988
   134  H    0.067826
   135  H    0.036389
   136  H    0.048950
   137  H    0.026992
   138  H    0.053772
   139  H    0.041752
   140  H    0.056571
   141  H    0.049684
   142  H    0.042170
   143  H    0.039951
   144  H    0.039830
   145  H    0.057675
   146  H    0.036741
   147  H    0.045250
   148  H    0.027643
   149  H    0.048329
   150  H    0.041051
   151  H    0.039428
   152  H    0.051860
   153  H    0.041797
   154  H    0.060831
   155  H    0.062931
   156  H    0.053001
   157  H    0.061572
   158  H    0.073539
 Sum of Mulliken charges =  -0.00000

 Dipole moment (field-independent basis, Debye):
    X=              1.9233    Y=              0.9642    Z=             -1.2317  Tot=              2.4791
 Quadrupole moment (field-independent basis, Debye-Ang):
   XX=           -869.8701   YY=           -472.4305   ZZ=           -510.9575
   XY=             24.7940   XZ=            140.5661   YZ=             10.8771

 Normal termination of Gaussian 16 at Sat Sep 18 12:23:44 2021.
