 Gaussian 16, Revision A.03,
 Gaussian 16:  ES64L-G16RevA.03 25-Dec-2016

 --------------------------------
 #p wB97XD/Def2SVP td=(nstates=5)
 --------------------------------

 --------------------------------
 TDDFT excited states in gaussian
 --------------------------------
 Symbolic Z-matrix:
 Charge =  0 Multiplicity = 1

                         Standard orientation:
 ---------------------------------------------------------------------
 Center     Atomic      Atomic             Coordinates (Angstroms)
 Number     Number       Type             X           Y           Z
 ---------------------------------------------------------------------
      1         12           0       -0.767131    0.041376   -0.025374
      2          6           0        2.733754    0.223436    0.048262
      3          6           0       -0.489085   -3.390371   -0.022642
      4          6           0       -4.062645   -0.103914   -0.126168
      5          6           0       -0.848606    3.550102   -0.183181
      6          7           0        0.949926   -1.353096    0.095432
      7          6           0        2.320690   -1.094220    0.097071
      8          6           0        3.193508   -2.353992    0.477626
      9          6           0        2.142512   -3.429997    0.284427
     10          6           0        0.752369   -2.689343    0.112148
     11          6           0        2.408158   -4.244138   -1.063855
     12          6           0        3.510582   -2.149992    2.025485
     13          6           0        4.982963   -2.503652    2.516523
     14          1           0        5.527291   -3.650106    1.703247
     15          7           0       -2.038529   -1.492968   -0.213205
     16          6           0       -1.771749   -2.795984   -0.204053
     17          6           0       -2.959592   -3.605323   -0.272432
     18          6           0       -4.027378   -2.698477   -0.121954
     19          6           0       -3.395908   -1.328009   -0.208058
     20          6           0       -3.005745   -5.085318   -0.382841
     21          6           0       -5.493938   -2.945527    0.165857
     22          8           0       -6.268052   -2.050325    0.523298
     23          6           0       -6.099131   -4.328970   -0.087953
     24          7           0       -2.247432    1.552597   -0.189899
     25          6           0       -3.563381    1.158198   -0.133497
     26          6           0       -4.436831    2.406213   -0.024339
     27          6           0       -3.391322    3.620747    0.081142
     28          6           0       -2.073118    2.902681   -0.041571
     29          6           0       -5.473209    2.435555   -1.202763
     30          6           0       -3.505687    4.523904    1.299189
     31          6           0       -3.598408    6.042211    0.949447
     32          7           0        0.642972    1.570434   -0.084260
     33          6           0        0.459443    2.986256   -0.170281
     34          6           0        1.715654    3.644875   -0.221643
     35          6           0        2.626881    2.578936   -0.134061
     36          6           0        1.913614    1.362591   -0.105830
     37          6           0        2.053467    5.099315   -0.291808
     38          6           0        4.011214    2.233637   -0.076147
     39          8           0        5.024376    2.890639   -0.127102
     40          6           0        4.106684    0.698930    0.154795
     41          6           0        5.094059    0.129196   -0.797807
     42          8           0        4.973964   -0.002901   -2.012534
     43          8           0        6.140993   -0.276162   -0.072542
     44          6           0        7.209076   -0.949067   -0.781595
     45          1           0       -0.551698   -4.472172    0.111448
     46          1           0       -5.148384   -0.220870   -0.169953
     47          1           0       -0.827433    4.641857   -0.168746
     48          1           0        4.097954   -2.258616   -0.122397
     49          1           0        2.101829   -4.077847    1.159422
     50          1           0        3.271846   -3.868816   -1.613096
     51          1           0        1.522796   -4.159672   -1.693719
     52          1           0        2.545040   -5.271903   -0.727423
     53          1           0        2.868430   -2.740578    2.678229
     54          1           0        3.272028   -1.109453    2.247192
     55          1           0        4.957822   -2.953232    3.509238
     56          1           0        5.577745   -1.604346    2.678549
     57          1           0       -3.404242   -5.453777    0.563412
     58          1           0       -2.009380   -5.506783   -0.508482
     59          1           0       -3.636011   -5.439041   -1.198232
     60          1           0       -7.152870   -4.056955   -0.144650
     61          1           0       -5.875575   -5.060160    0.689787
     62          1           0       -5.902583   -4.790998   -1.055238
     63          1           0       -5.071863    2.462186    0.859754
     64          1           0       -3.502444    4.244617   -0.805823
     65          1           0       -6.428945    2.692447   -0.745813
     66          1           0       -5.519502    1.509308   -1.775584
     67          1           0       -5.342631    3.324001   -1.821720
     68          1           0       -2.705345    4.397636    2.027629
     69          1           0       -4.500399    4.307825    1.691564
     70          1           0       -3.683568    6.185217   -0.127894
     71          1           0       -2.661360    6.560060    1.153069
     72          1           0       -4.452923    6.510281    1.438569
     73          1           0        1.835240    5.415652    0.728571
     74          1           0        1.441249    5.521581   -1.088363
     75          1           0        3.115463    5.273666   -0.458810
     76          1           0        4.572568    0.627075    1.138497
     77          1           0        7.552805   -0.330290   -1.610960
     78          1           0        6.957741   -1.891370   -1.269586
     79          1           0        8.012731   -1.084629   -0.057586
 ---------------------------------------------------------------------

 SCF Done:  E(RwB97XD) =  -2035.32932195     A.U. after   20 cycles

 Excitation energies and oscillator strengths:

 Excited State   1:      Singlet-A      1.6810 eV  737.55 nm  f=0.3809  <S**2>=0.000
     155 ->158        -0.16574
     156 ->157         0.68558
     155 <-158        -0.10525
 This state for optimization and/or second-order correction.
 Total Energy, E(TD-HF/TD-DFT) =  -2035.26754506
 Copying the excited state density for this state as the 1-particle RhoCI density.

 Excited State   2:      Singlet-A      2.2342 eV  554.93 nm  f=0.1201  <S**2>=0.000
     155 ->157         0.63519
     156 ->158         0.28427

 Excited State   3:      Singlet-A      3.4791 eV  356.36 nm  f=0.0356  <S**2>=0.000
     153 ->160         0.10552
     154 ->157         0.60519
     154 ->159        -0.13938
     154 ->160         0.13249
     156 ->158        -0.21907

 Excited State   4:      Singlet-A      3.5601 eV  348.26 nm  f=0.5583  <S**2>=0.000
     150 ->157         0.10723
     152 ->157        -0.21007
     153 ->157        -0.11203
     154 ->157         0.17559
     155 ->157        -0.25647
     156 ->158         0.56328

 Excited State   5:      Singlet-A      3.5993 eV  344.47 nm  f=0.0176  <S**2>=0.000
     152 ->157         0.12457
     153 ->157         0.59779
     153 ->159        -0.15547
     153 ->160         0.16959
     154 ->160         0.15900
     156 ->158         0.13553

 The electronic state is 1-A.
 Alpha  occ. eigenvalues --  -46.94111 -19.30439 -19.25009 -19.23718 -19.22373
 Alpha  occ. eigenvalues --  -14.46847 -14.46218 -14.44850 -14.43023 -10.42132
 Alpha  occ. eigenvalues --  -10.40270 -10.37091 -10.35997 -10.35142 -10.35080
 Alpha  occ. eigenvalues --  -10.34740 -10.34739 -10.34454 -10.34049 -10.33287
 Alpha  occ. eigenvalues --  -10.32960 -10.32860 -10.32499 -10.32390 -10.32162
 Alpha  occ. eigenvalues --  -10.31817 -10.31628 -10.31602 -10.31421 -10.31118
 Alpha  occ. eigenvalues --  -10.31096 -10.31092 -10.30681 -10.30589 -10.30548
 Alpha  occ. eigenvalues --  -10.30155 -10.30131 -10.29947 -10.29903 -10.29610
 Alpha  occ. eigenvalues --  -10.29583 -10.29231 -10.27537  -3.20228  -1.93835
 Alpha  occ. eigenvalues --   -1.93339  -1.93234  -1.19257  -1.12624  -1.11528
 Alpha  occ. eigenvalues --   -1.09239  -1.07077  -1.05893  -1.04910  -1.04350
 Alpha  occ. eigenvalues --   -0.94588  -0.91608  -0.90409  -0.90283  -0.89889
 Alpha  occ. eigenvalues --   -0.88933  -0.88578  -0.85870  -0.85415  -0.84253
 Alpha  occ. eigenvalues --   -0.83765  -0.83205  -0.82310  -0.80908  -0.79329
 Alpha  occ. eigenvalues --   -0.78667  -0.77497  -0.76906  -0.75078  -0.73382
 Alpha  occ. eigenvalues --   -0.71166  -0.70784  -0.69604  -0.69324  -0.67365
 Alpha  occ. eigenvalues --   -0.67158  -0.66989  -0.66480  -0.64422  -0.62823
 Alpha  occ. eigenvalues --   -0.61532  -0.61143  -0.60597  -0.59700  -0.59272
 Alpha  occ. eigenvalues --   -0.58659  -0.57567  -0.57296  -0.56351  -0.55744
 Alpha  occ. eigenvalues --   -0.55491  -0.55146  -0.54546  -0.54472  -0.54051
 Alpha  occ. eigenvalues --   -0.53669  -0.53210  -0.53017  -0.52683  -0.52334
 Alpha  occ. eigenvalues --   -0.52213  -0.51944  -0.51538  -0.51195  -0.50605
 Alpha  occ. eigenvalues --   -0.50483  -0.50436  -0.49800  -0.49554  -0.49453
 Alpha  occ. eigenvalues --   -0.49093  -0.48641  -0.48452  -0.48304  -0.47999
 Alpha  occ. eigenvalues --   -0.47204  -0.46926  -0.46617  -0.46472  -0.46380
 Alpha  occ. eigenvalues --   -0.46225  -0.45657  -0.45592  -0.44977  -0.44893
 Alpha  occ. eigenvalues --   -0.44533  -0.44267  -0.43851  -0.43538  -0.43012
 Alpha  occ. eigenvalues --   -0.42693  -0.42295  -0.41971  -0.41615  -0.40716
 Alpha  occ. eigenvalues --   -0.40185  -0.39606  -0.39360  -0.38880  -0.38443
 Alpha  occ. eigenvalues --   -0.38315  -0.36217  -0.35868  -0.34957  -0.34304
 Alpha  occ. eigenvalues --   -0.33570  -0.33112  -0.31669  -0.31297  -0.26045
 Alpha  occ. eigenvalues --   -0.22870
 Alpha virt. eigenvalues --   -0.06919   0.00239   0.02543   0.04971   0.06462
 Alpha virt. eigenvalues --    0.08122   0.08442   0.08799   0.09485   0.10478
 Alpha virt. eigenvalues --    0.11619   0.12180   0.12730   0.13315   0.13748

 Mulliken charges:
               1
     1  Mg   0.983588
     2  C    0.006689
     3  C   -0.113524
     4  C   -0.075938
     5  C   -0.074227
     6  N   -0.350880
     7  C   -0.049271
     8  C   -0.050186
     9  C   -0.097994
    10  C    0.098197
    11  C    0.023328
    12  C    0.001809
    13  C   -0.114948
    14  H    0.031937
    15  N   -0.466391
    16  C    0.154152
    17  C   -0.174170
    18  C   -0.070225
    19  C    0.138040
    20  C    0.077629
    21  C    0.062748
    22  O   -0.243528
    23  C   -0.045550
    24  N   -0.389835
    25  C    0.116203
    26  C   -0.106927
    27  C   -0.048760
    28  C    0.073113
    29  C    0.009934
    30  C    0.001451
    31  C   -0.071384
    32  N   -0.414189
    33  C    0.082299
    34  C   -0.193443
    35  C   -0.037863
    36  C    0.139083
    37  C    0.088171
    38  C    0.083173
    39  O   -0.205370
    40  C   -0.074184
    41  C    0.226096
    42  O   -0.256818
    43  O   -0.333908
    44  C    0.142490
    45  H   -0.000083
    46  H    0.028413
    47  H   -0.008051
    48  H    0.049747
    49  H    0.040042
    50  H    0.051995
    51  H    0.043576
    52  H    0.040182
    53  H    0.030971
    54  H    0.043310
    55  H    0.042769
    56  H    0.062656
    57  H    0.053230
    58  H    0.041079
    59  H    0.058508
    60  H    0.058596
    61  H    0.065482
    62  H    0.052905
    63  H    0.043227
    64  H    0.032381
    65  H    0.027653
    66  H    0.060861
    67  H    0.025938
    68  H    0.049337
    69  H    0.028160
    70  H    0.020863
    71  H    0.037408
    72  H    0.045756
    73  H    0.054229
    74  H    0.052867
    75  H    0.061481
    76  H    0.067082
    77  H    0.054664
    78  H    0.045156
    79  H    0.056989
 Sum of Mulliken charges =  -0.00000

 Dipole moment (field-independent basis, Debye):
    X=             -2.9661    Y=             -4.4373    Z=              2.1042  Tot=              5.7372
 Quadrupole moment (field-independent basis, Debye-Ang):
   XX=           -266.7633   YY=           -221.4793   ZZ=           -259.1521
   XY=            -21.4401   XZ=             13.9496   YZ=              2.4325

 Normal termination of Gaussian 16 at Sun Sep 19 17:12:23 2021.
