 Gaussian 16, Revision A.03,
 Gaussian 16:  ES64L-G16RevA.03 25-Dec-2016

 --------------------------------
 #p wB97XD/Def2SVP td=(nstates=5)
 --------------------------------

 --------------------------------
 TDDFT excited states in gaussian
 --------------------------------
 Symbolic Z-matrix:
 Charge =  0 Multiplicity = 1

                         Standard orientation:
 ---------------------------------------------------------------------
 Center     Atomic      Atomic             Coordinates (Angstroms)
 Number     Number       Type             X           Y           Z
 ---------------------------------------------------------------------
      1         12           0        0.654819   -0.015130   -0.247535
      2          6           0       -2.758113    0.280607   -0.247671
      3          6           0        0.380389   -3.350382   -0.259888
      4          6           0        4.014337   -0.139307    0.000204
      5          6           0        0.869672    3.574171    0.291008
      6          7           0       -1.066208   -1.385484    0.020938
      7          6           0       -2.358869   -1.066871   -0.117169
      8          6           0       -3.274630   -2.396065   -0.134951
      9          6           0       -2.150134   -3.498057   -0.145144
     10          6           0       -0.819537   -2.721245   -0.082949
     11          6           0       -2.338042   -4.584945    0.931106
     12          6           0       -4.238548   -2.478088   -1.352509
     13          6           0       -4.905095   -3.854272   -1.679233
     14          1           0       -6.415504   -4.050381   -1.274884
     15          7           0        2.019125   -1.554659   -0.094302
     16          6           0        1.737254   -2.834899   -0.218819
     17          6           0        2.980309   -3.590137   -0.178665
     18          6           0        4.082491   -2.702833    0.008840
     19          6           0        3.392492   -1.394659   -0.027841
     20          6           0        3.091706   -5.105657   -0.157644
     21          6           0        5.563205   -2.987988    0.237421
     22          8           0        6.316242   -2.119321    0.667980
     23          6           0        6.085291   -4.348345   -0.067524
     24          7           0        2.215906    1.512544    0.144340
     25          6           0        3.505707    1.197539    0.146488
     26          6           0        4.405033    2.444153    0.187321
     27          6           0        3.362701    3.552466    0.063656
     28          6           0        2.076784    2.828066    0.209931
     29          6           0        5.367006    2.601204    1.374335
     30          6           0        3.576519    4.471267   -1.112541
     31          6           0        3.879509    5.974177   -0.772708
     32          7           0       -0.607238    1.584197   -0.077507
     33          6           0       -0.403950    2.998885    0.054093
     34          6           0       -1.655899    3.717405   -0.037614
     35          6           0       -2.573806    2.638979   -0.173424
     36          6           0       -1.897722    1.412418   -0.179262
     37          6           0       -1.955743    5.170852   -0.146661
     38          6           0       -3.964290    2.436111   -0.493291
     39          8           0       -4.891812    3.185180   -0.834541
     40          6           0       -4.220731    0.950826   -0.438287
     41          6           0       -5.041546    0.644992    0.833961
     42          8           0       -4.880914    1.116263    1.970239
     43          8           0       -5.999006   -0.264700    0.495913
     44          6           0       -6.955930   -0.697796    1.562997
     45          1           0        0.431123   -4.433822   -0.386614
     46          1           0        5.067950   -0.093376    0.283488
     47          1           0        1.020561    4.654833    0.318050
     48          1           0       -3.793454   -2.364039    0.822432
     49          1           0       -2.164412   -3.969454   -1.127810
     50          1           0       -2.123454   -5.540898    0.454637
     51          1           0       -3.368300   -4.636398    1.283443
     52          1           0       -1.669148   -4.416781    1.775233
     53          1           0       -3.602821   -2.328950   -2.225253
     54          1           0       -5.050663   -1.760996   -1.233263
     55          1           0       -4.401774   -4.600749   -1.063931
     56          1           0       -4.847021   -4.022792   -2.754009
     57          1           0        2.110640   -5.577353   -0.212983
     58          1           0        3.575951   -5.423308    0.765456
     59          1           0        3.695583   -5.479812   -0.983375
     60          1           0        5.714747   -4.576773   -1.067226
     61          1           0        5.856054   -5.222858    0.540632
     62          1           0        7.173884   -4.391869   -0.070576
     63          1           0        5.025112    2.430618   -0.708366
     64          1           0        3.468231    4.191076    0.940484
     65          1           0        6.272652    3.008550    0.925599
     66          1           0        5.492816    1.652089    1.895144
     67          1           0        4.984279    3.221627    2.184643
     68          1           0        2.604061    4.487338   -1.603619
     69          1           0        4.374740    4.148353   -1.780253
     70          1           0        3.861034    6.122853    0.307276
     71          1           0        3.078240    6.570678   -1.209971
     72          1           0        4.786133    6.381873   -1.220059
     73          1           0       -1.034457    5.733902   -0.293673
     74          1           0       -2.306726    5.463064    0.842377
     75          1           0       -2.641776    5.249708   -0.991248
     76          1           0       -4.786161    0.745205   -1.347390
     77          1           0       -6.499095   -0.957593    2.518248
     78          1           0       -7.623334   -1.506699    1.267601
     79          1           0       -7.557617    0.183705    1.783768
 ---------------------------------------------------------------------

 SCF Done:  E(RwB97XD) =  -2035.30614679     A.U. after   19 cycles

 Excitation energies and oscillator strengths:

 Excited State   1:      Singlet-A      1.6636 eV  745.28 nm  f=0.4008  <S**2>=0.000
     155 ->158        -0.18178
     156 ->157         0.68162
     155 <-158        -0.11254
 This state for optimization and/or second-order correction.
 Total Energy, E(TD-HF/TD-DFT) =  -2035.24501075
 Copying the excited state density for this state as the 1-particle RhoCI density.

 Excited State   2:      Singlet-A      2.2223 eV  557.92 nm  f=0.1094  <S**2>=0.000
     155 ->157         0.63695
     156 ->158         0.28920

 Excited State   3:      Singlet-A      3.4332 eV  361.13 nm  f=0.0042  <S**2>=0.000
     153 ->157        -0.28678
     153 ->159         0.17368
     153 ->160        -0.20697
     154 ->157         0.51270
     154 ->159        -0.16094
     154 ->160         0.14585

 Excited State   4:      Singlet-A      3.4968 eV  354.56 nm  f=0.0426  <S**2>=0.000
     153 ->157         0.51632
     153 ->159        -0.12409
     154 ->157         0.33839
     156 ->158        -0.23895

 Excited State   5:      Singlet-A      3.5552 eV  348.74 nm  f=0.6272  <S**2>=0.000
     152 ->157        -0.19576
     153 ->157         0.14651
     154 ->157         0.17753
     155 ->157        -0.27467
     156 ->158         0.57277
     155 <-157         0.10425

 The electronic state is 1-A.
 Alpha  occ. eigenvalues --  -46.95535 -19.30835 -19.24579 -19.24393 -19.22741
 Alpha  occ. eigenvalues --  -14.46661 -14.46269 -14.44688 -14.43883 -10.43410
 Alpha  occ. eigenvalues --  -10.40080 -10.37352 -10.35923 -10.35724 -10.35003
 Alpha  occ. eigenvalues --  -10.34487 -10.34436 -10.34351 -10.34028 -10.33980
 Alpha  occ. eigenvalues --  -10.33344 -10.32792 -10.32736 -10.32435 -10.32186
 Alpha  occ. eigenvalues --  -10.32157 -10.32127 -10.31807 -10.31666 -10.31578
 Alpha  occ. eigenvalues --  -10.31051 -10.30974 -10.30725 -10.30715 -10.30610
 Alpha  occ. eigenvalues --  -10.30409 -10.30245 -10.30188 -10.30119 -10.30040
 Alpha  occ. eigenvalues --  -10.29542 -10.29510 -10.28433  -3.21502  -1.95082
 Alpha  occ. eigenvalues --   -1.94617  -1.94485  -1.17723  -1.12617  -1.10187
 Alpha  occ. eigenvalues --   -1.08722  -1.07732  -1.06410  -1.05908  -1.04985
 Alpha  occ. eigenvalues --   -0.93240  -0.91779  -0.90587  -0.90102  -0.89501
 Alpha  occ. eigenvalues --   -0.89084  -0.88950  -0.86108  -0.85222  -0.84287
 Alpha  occ. eigenvalues --   -0.84062  -0.83034  -0.82004  -0.80496  -0.79475
 Alpha  occ. eigenvalues --   -0.78668  -0.78014  -0.77287  -0.74632  -0.73664
 Alpha  occ. eigenvalues --   -0.71364  -0.71063  -0.69698  -0.69578  -0.67773
 Alpha  occ. eigenvalues --   -0.66894  -0.66415  -0.65904  -0.64620  -0.62732
 Alpha  occ. eigenvalues --   -0.61621  -0.60870  -0.60617  -0.59981  -0.59368
 Alpha  occ. eigenvalues --   -0.58311  -0.57643  -0.57080  -0.56465  -0.56061
 Alpha  occ. eigenvalues --   -0.55683  -0.55346  -0.54739  -0.54482  -0.54115
 Alpha  occ. eigenvalues --   -0.53624  -0.53125  -0.53047  -0.52647  -0.52451
 Alpha  occ. eigenvalues --   -0.51861  -0.51734  -0.51600  -0.51275  -0.50995
 Alpha  occ. eigenvalues --   -0.50881  -0.50480  -0.50126  -0.49758  -0.49619
 Alpha  occ. eigenvalues --   -0.49237  -0.48733  -0.48323  -0.48074  -0.47879
 Alpha  occ. eigenvalues --   -0.46910  -0.46674  -0.46436  -0.46327  -0.46063
 Alpha  occ. eigenvalues --   -0.45933  -0.45774  -0.45534  -0.44841  -0.44715
 Alpha  occ. eigenvalues --   -0.44175  -0.43975  -0.43894  -0.43757  -0.43451
 Alpha  occ. eigenvalues --   -0.43101  -0.42722  -0.42348  -0.41187  -0.40988
 Alpha  occ. eigenvalues --   -0.40181  -0.39785  -0.39179  -0.38683  -0.38207
 Alpha  occ. eigenvalues --   -0.37885  -0.36270  -0.35993  -0.35570  -0.33924
 Alpha  occ. eigenvalues --   -0.33332  -0.32791  -0.31954  -0.31816  -0.25839
 Alpha  occ. eigenvalues --   -0.22920
 Alpha virt. eigenvalues --   -0.06903   0.00152   0.02624   0.04612   0.05071
 Alpha virt. eigenvalues --    0.07478   0.07828   0.08949   0.09574   0.10323
 Alpha virt. eigenvalues --    0.11189   0.12191   0.12569   0.13368   0.13880

 Mulliken charges:
               1
     1  Mg   0.970326
     2  C   -0.074893
     3  C   -0.078736
     4  C   -0.049454
     5  C   -0.066323
     6  N   -0.355523
     7  C   -0.026113
     8  C   -0.008775
     9  C   -0.153549
    10  C    0.119955
    11  C    0.024362
    12  C   -0.009763
    13  C   -0.131326
    14  H    0.015025
    15  N   -0.438317
    16  C    0.116643
    17  C   -0.186990
    18  C   -0.058964
    19  C    0.130897
    20  C    0.069452
    21  C    0.087578
    22  O   -0.227316
    23  C   -0.033104
    24  N   -0.273956
    25  C   -0.007352
    26  C   -0.114712
    27  C   -0.055483
    28  C    0.009622
    29  C    0.036084
    30  C    0.000441
    31  C   -0.068110
    32  N   -0.456890
    33  C    0.123413
    34  C   -0.170419
    35  C   -0.077017
    36  C    0.205989
    37  C    0.109157
    38  C    0.102769
    39  O   -0.239415
    40  C   -0.055515
    41  C    0.293569
    42  O   -0.266023
    43  O   -0.365215
    44  C    0.138521
    45  H   -0.019879
    46  H    0.029545
    47  H    0.004095
    48  H    0.040434
    49  H    0.037108
    50  H    0.034007
    51  H    0.041471
    52  H    0.049656
    53  H    0.031945
    54  H    0.073471
    55  H    0.048334
    56  H    0.065648
    57  H    0.031743
    58  H    0.051506
    59  H    0.041275
    60  H    0.048720
    61  H    0.063135
    62  H    0.052441
    63  H    0.038857
    64  H    0.021336
    65  H    0.046528
    66  H    0.044286
    67  H    0.029776
    68  H    0.030508
    69  H    0.036921
    70  H    0.033089
    71  H    0.033434
    72  H    0.041972
    73  H    0.019323
    74  H    0.065419
    75  H    0.081084
    76  H    0.069601
    77  H    0.058586
    78  H    0.063592
    79  H    0.056483
 Sum of Mulliken charges =  -0.00000

 Dipole moment (field-independent basis, Debye):
    X=              2.6306    Y=             -4.0464    Z=             -1.8934  Tot=              5.1844
 Quadrupole moment (field-independent basis, Debye-Ang):
   XX=           -268.1659   YY=           -225.8371   ZZ=           -257.8446
   XY=             26.2396   XZ=            -10.3372   YZ=              0.2934

 Normal termination of Gaussian 16 at Sun Sep 19 07:01:35 2021.
