 Gaussian 16, Revision A.03,
 Gaussian 16:  ES64L-G16RevA.03 25-Dec-2016

 --------------------------------
 #p wB97XD/Def2SVP td=(nstates=5)
 --------------------------------

 --------------------------------
 TDDFT excited states in gaussian
 --------------------------------
 Symbolic Z-matrix:
 Charge =  0 Multiplicity = 1

                         Standard orientation:
 ---------------------------------------------------------------------
 Center     Atomic      Atomic             Coordinates (Angstroms)
 Number     Number       Type             X           Y           Z
 ---------------------------------------------------------------------
      1         12           0       24.314990   -0.763628    0.049288
      2          6           0       26.053874    2.238843   -0.147703
      3          6           0       23.176135    0.115178    3.095633
      4          6           0       23.295998   -3.948598    0.555999
      5          6           0       26.189554   -1.939744   -2.717753
      6          7           0       24.563609    1.013405    1.193732
      7          6           0       25.172903    2.218863    0.921412
      8          6           0       24.996507    3.199256    2.113554
      9          6           0       24.565070    2.221098    3.249443
     10          6           0       23.956655    1.069396    2.462831
     11          6           0       25.738765    1.709564    4.156841
     12          6           0       24.083700    4.348210    1.647416
     13          6           0       24.520424    5.691910    2.092495
     14          1           0       23.974707    6.805456    1.318980
     15          7           0       23.184410   -1.677626    1.510999
     16          6           0       22.763288   -1.106849    2.669169
     17          6           0       21.745680   -1.947983    3.247480
     18          6           0       21.779115   -3.168185    2.480588
     19          6           0       22.855955   -2.993863    1.501456
     20          6           0       20.980121   -1.593533    4.471694
     21          6           0       21.023301   -4.524064    2.667315
     22          8           0       21.165403   -5.479836    1.901944
     23          6           0       19.962852   -4.686781    3.720187
     24          7           0       24.989218   -2.734927   -0.770996
     25          6           0       24.257745   -3.909165   -0.443734
     26          6           0       24.573153   -5.070954   -1.326664
     27          6           0       25.318605   -4.297714   -2.462595
     28          6           0       25.457960   -2.855604   -1.982146
     29          6           0       25.407063   -6.199648   -0.631044
     30          6           0       24.563235   -4.330719   -3.841316
     31          6           0       23.073228   -3.905665   -3.801495
     32          7           0       25.734652   -0.010061   -1.265240
     33          6           0       26.371300   -0.586025   -2.375493
     34          6           0       27.220720    0.409215   -2.914200
     35          6           0       27.094327    1.518505   -2.087316
     36          6           0       26.203369    1.204824   -1.114525
     37          6           0       28.033936    0.273803   -4.161997
     38          6           0       27.601315    2.789551   -1.858178
     39          8           0       28.463380    3.423609   -2.493520
     40          6           0       26.964940    3.402463   -0.574361
     41          6           0       26.250407    4.685451   -1.102519
     42          8           0       25.245685    4.702049   -1.835698
     43          8           0       26.937034    5.791653   -0.613803
     44          6           0       26.607049    7.139109   -1.177740
     45          1           0       22.952645    0.470435    4.103826
     46          1           0       22.960533   -4.985404    0.476145
     47          1           0       26.631211   -2.174521   -3.688519
     48          1           0       25.937869    3.702431    2.331775
     49          1           0       23.768925    2.682178    3.833208
     50          1           0       26.720794    2.141365    3.961689
     51          1           0       25.924057    0.650658    3.981186
     52          1           0       25.514435    1.963331    5.192678
     53          1           0       23.132870    4.187605    2.153652
     54          1           0       24.002058    4.285052    0.561977
     55          1           0       25.599638    5.713985    1.940234
     56          1           0       24.339057    5.776613    3.163777
     57          1           0       21.018781   -0.522616    4.670143
     58          1           0       21.271256   -2.282514    5.265280
     59          1           0       19.921267   -1.787608    4.300270
     60          1           0       19.941653   -5.758774    3.917672
     61          1           0       18.984917   -4.398586    3.333902
     62          1           0       20.221049   -4.170314    4.645207
     63          1           0       23.693490   -5.547266   -1.761850
     64          1           0       26.312220   -4.730059   -2.584853
     65          1           0       25.909574   -5.780589    0.241139
     66          1           0       26.183314   -6.676431   -1.229763
     67          1           0       24.839362   -7.055112   -0.263855
     68          1           0       24.719636   -5.333248   -4.239897
     69          1           0       25.168479   -3.680488   -4.472875
     70          1           0       22.863842   -3.048449   -4.441682
     71          1           0       22.840871   -3.682343   -2.759855
     72          1           0       22.401165   -4.698392   -4.128788
     73          1           0       29.061904    0.485215   -3.867709
     74          1           0       27.633312    0.973312   -4.895663
     75          1           0       28.063642   -0.725694   -4.596020
     76          1           0       27.771700    3.698505    0.095634
     77          1           0       26.819754    7.078931   -2.244849
     78          1           0       27.145284    8.000238   -0.781803
     79          1           0       25.545917    7.127204   -0.928671
     80         12           0      -25.179786   -0.522649   -0.295793
     81          6           0      -23.919810    2.787801   -0.555790
     82          6           0      -25.720991    0.213528    3.121393
     83          6           0      -26.022721   -3.639184    0.174319
     84          6           0      -24.276415   -1.069637   -3.609599
     85          7           0      -24.841581    1.329325    1.153124
     86          6           0      -24.408703    2.559960    0.723881
     87          6           0      -24.473888    3.626924    1.803542
     88          6           0      -24.942667    2.716392    3.018211
     89          6           0      -25.228251    1.337441    2.403710
     90          6           0      -23.941313    2.780166    4.167750
     91          6           0      -25.493154    4.724674    1.427289
     92          6           0      -25.178383    6.215689    1.830171
     93          1           0      -24.152457    6.463766    2.960988
     94          7           0      -25.866221   -1.566954    1.395956
     95          6           0      -25.935482   -1.100050    2.708858
     96          6           0      -26.449907   -2.189512    3.553698
     97          6           0      -26.636420   -3.301096    2.668659
     98          6           0      -26.201237   -2.815004    1.345273
     99          6           0      -26.606664   -2.077643    4.975458
    100          6           0      -27.148634   -4.700132    2.995904
    101          8           0      -27.163419   -5.593754    2.134526
    102          6           0      -27.802759   -4.981582    4.291367
    103          7           0      -25.055871   -2.157476   -1.516986
    104          6           0      -25.567094   -3.325696   -1.119736
    105          6           0      -25.400177   -4.417530   -2.226043
    106          6           0      -25.031395   -3.544992   -3.467658
    107          6           0      -24.749240   -2.197667   -2.880453
    108          6           0      -24.387549   -5.561314   -1.858889
    109          6           0      -26.333379   -3.521378   -4.356192
    110          6           0      -27.372276   -2.357007   -4.206849
    111          7           0      -24.385510    0.606735   -1.831086
    112          6           0      -24.059161    0.221433   -3.144001
    113          6           0      -23.419481    1.376512   -3.821478
    114          6           0      -23.308848    2.341666   -2.827367
    115          6           0      -23.905081    1.907562   -1.662353
    116          6           0      -22.795320    1.210303   -5.122717
    117          6           0      -22.692178    3.641063   -2.571769
    118          8           0      -22.019896    4.319978   -3.339761
    119          6           0      -23.040521    3.993844   -1.049920
    120          6           0      -21.808296    4.211807   -0.253778
    121          8           0      -21.223576    3.370014    0.421950
    122          8           0      -21.415355    5.557930   -0.377199
    123          6           0      -20.208529    6.053260    0.245329
    124          1           0      -26.144410    0.422659    4.106394
    125          1           0      -26.308749   -4.690138    0.257344
    126          1           0      -24.079667   -1.348981   -4.646482
    127          1           0      -23.505511    4.089336    1.996393
    128          1           0      -25.823128    3.206252    3.433155
    129          1           0      -24.361854    3.077453    5.127768
    130          1           0      -23.070373    3.416805    4.011827
    131          1           0      -23.608632    1.755957    4.341502
    132          1           0      -26.479747    4.490783    1.827147
    133          1           0      -25.529902    4.594119    0.345202
    134          1           0      -26.072659    6.697620    2.223871
    135          1           0      -25.043995    6.740401    0.884288
    136          1           0      -27.631064   -2.380754    5.192824
    137          1           0      -26.217253   -1.126573    5.337392
    138          1           0      -25.848386   -2.788079    5.306203
    139          1           0      -27.108828   -5.014367    5.131843
    140          1           0      -28.267248   -5.966780    4.254352
    141          1           0      -28.453962   -4.138641    4.520833
    142          1           0      -26.417091   -4.809488   -2.205809
    143          1           0      -24.229579   -3.992711   -4.055342
    144          1           0      -24.925370   -6.421733   -1.460513
    145          1           0      -23.645455   -5.119287   -1.194837
    146          1           0      -23.896446   -5.833633   -2.792957
    147          1           0      -26.775214   -4.517899   -4.371468
    148          1           0      -25.950095   -3.238779   -5.337119
    149          1           0      -28.330456   -2.875680   -4.218230
    150          1           0      -27.355969   -1.659990   -5.045696
    151          1           0      -27.328282   -1.789878   -3.277678
    152          1           0      -22.162515    0.324252   -5.091975
    153          1           0      -22.154136    2.080034   -5.269620
    154          1           0      -23.530580    1.291637   -5.922807
    155          1           0      -23.585914    4.934508   -1.132134
    156          1           0      -19.351883    6.074999   -0.427867
    157          1           0      -20.070490    5.627995    1.239524
    158          1           0      -20.523272    7.061450    0.516269
 ---------------------------------------------------------------------

 SCF Done:  E(RwB97XD) =  -4070.61433201     A.U. after   19 cycles

 Excitation energies and oscillator strengths:

 Excited State   1:      Singlet-A      1.6039 eV  773.02 nm  f=0.3768  <S**2>=0.000
     309 -> 316        0.16818
     311 -> 313        0.68668
     309 <- 316        0.11354
 This state for optimization and/or second-order correction.
 Total Energy, E(TD-HF/TD-DFT) =  -4070.55539019
 Copying the excited state density for this state as the 1-particle RhoCI density.

 Excited State   2:      Singlet-A      1.6997 eV  729.45 nm  f=0.3723  <S**2>=0.000
     310 -> 315        0.19452
     312 -> 314        0.67893
     310 <- 315        0.11677

 Excited State   3:      Singlet-A      2.1619 eV  573.49 nm  f=0.1244  <S**2>=0.000
     309 -> 313        0.64151
     311 -> 316       -0.27559

 Excited State   4:      Singlet-A      2.2204 eV  558.39 nm  f=0.0706  <S**2>=0.000
     310 -> 314        0.62144
     312 -> 315       -0.32314

 Excited State   5:      Singlet-A      3.2513 eV  381.34 nm  f=0.0002  <S**2>=0.000
     305 -> 313        0.18418
     305 -> 318        0.10955
     305 -> 320       -0.12670
     306 -> 313        0.55393
     307 -> 313       -0.31590

 The electronic state is 1-A.
 Alpha  occ. eigenvalues --  -46.94831 -46.94657 -19.29976 -19.29217 -19.24970
 Alpha  occ. eigenvalues --  -19.24805 -19.24333 -19.23816 -19.23725 -19.22742
 Alpha  occ. eigenvalues --  -14.46739 -14.46546 -14.46057 -14.45841 -14.44285
 Alpha  occ. eigenvalues --  -14.43903 -14.43516 -14.43102 -10.43929 -10.43320
 Alpha  occ. eigenvalues --  -10.39371 -10.39296 -10.39223 -10.37658 -10.35716
 Alpha  occ. eigenvalues --  -10.35055 -10.35001 -10.34894 -10.34754 -10.34544
 Alpha  occ. eigenvalues --  -10.34535 -10.34452 -10.34439 -10.34323 -10.34218
 Alpha  occ. eigenvalues --  -10.34207 -10.34202 -10.33356 -10.33231 -10.33216
 Alpha  occ. eigenvalues --  -10.33158 -10.33149 -10.32913 -10.32392 -10.32330
 Alpha  occ. eigenvalues --  -10.32325 -10.32205 -10.32196 -10.32165 -10.31962
 Alpha  occ. eigenvalues --  -10.31807 -10.31789 -10.31698 -10.31591 -10.31583
 Alpha  occ. eigenvalues --  -10.31576 -10.31446 -10.31421 -10.31413 -10.31351
 Alpha  occ. eigenvalues --  -10.31234 -10.31192 -10.31065 -10.31042 -10.30899
 Alpha  occ. eigenvalues --  -10.30774 -10.30763 -10.30515 -10.30406 -10.30398
 Alpha  occ. eigenvalues --  -10.30316 -10.30305 -10.30234 -10.29950 -10.29769
 Alpha  occ. eigenvalues --  -10.29675 -10.29657 -10.29624 -10.29611 -10.29385
 Alpha  occ. eigenvalues --  -10.29371 -10.29204 -10.29092 -10.28912 -10.28679
 Alpha  occ. eigenvalues --  -10.27804  -3.20820  -3.20685  -1.94416  -1.94255
 Alpha  occ. eigenvalues --   -1.93955  -1.93815  -1.93778  -1.93658  -1.16804
 Alpha  occ. eigenvalues --   -1.16586  -1.11866  -1.11647  -1.11454  -1.10179
 Alpha  occ. eigenvalues --   -1.09431  -1.08854  -1.06847  -1.06802  -1.06091
 Alpha  occ. eigenvalues --   -1.05909  -1.05508  -1.05078  -1.04221  -1.03361
 Alpha  occ. eigenvalues --   -0.94534  -0.93928  -0.91868  -0.91003  -0.90904
 Alpha  occ. eigenvalues --   -0.90530  -0.90440  -0.90243  -0.89693  -0.89300
 Alpha  occ. eigenvalues --   -0.89062  -0.88635  -0.88458  -0.88093  -0.86477
 Alpha  occ. eigenvalues --   -0.86059  -0.85429  -0.85201  -0.84581  -0.84042
 Alpha  occ. eigenvalues --   -0.83859  -0.83503  -0.82924  -0.82755  -0.82408
 Alpha  occ. eigenvalues --   -0.82334  -0.80958  -0.80136  -0.79009  -0.78971
 Alpha  occ. eigenvalues --   -0.78845  -0.78769  -0.77945  -0.77697  -0.77377
 Alpha  occ. eigenvalues --   -0.76733  -0.75227  -0.74093  -0.73987  -0.73281
 Alpha  occ. eigenvalues --   -0.71691  -0.71132  -0.70864  -0.70734  -0.69831
 Alpha  occ. eigenvalues --   -0.69504  -0.68741  -0.68472  -0.67313  -0.66930
 Alpha  occ. eigenvalues --   -0.66633  -0.66575  -0.66437  -0.66424  -0.66174
 Alpha  occ. eigenvalues --   -0.66026  -0.63582  -0.63517  -0.62363  -0.61859
 Alpha  occ. eigenvalues --   -0.61743  -0.61309  -0.61119  -0.61046  -0.60420
 Alpha  occ. eigenvalues --   -0.60014  -0.59838  -0.59546  -0.59141  -0.58948
 Alpha  occ. eigenvalues --   -0.58274  -0.57930  -0.57549  -0.57464  -0.57252
 Alpha  occ. eigenvalues --   -0.57198  -0.56956  -0.56710  -0.56173  -0.55938
 Alpha  occ. eigenvalues --   -0.55749  -0.55426  -0.55290  -0.55099  -0.54950
 Alpha  occ. eigenvalues --   -0.54880  -0.54752  -0.54705  -0.54365  -0.54184
 Alpha  occ. eigenvalues --   -0.53840  -0.53706  -0.53619  -0.53439  -0.53380
 Alpha  occ. eigenvalues --   -0.53225  -0.52764  -0.52492  -0.52403  -0.52259
 Alpha  occ. eigenvalues --   -0.51894  -0.51706  -0.51542  -0.51538  -0.51321
 Alpha  occ. eigenvalues --   -0.51079  -0.50899  -0.50830  -0.50803  -0.50670
 Alpha  occ. eigenvalues --   -0.50437  -0.50435  -0.50322  -0.50022  -0.50012
 Alpha  occ. eigenvalues --   -0.49888  -0.49622  -0.49545  -0.49307  -0.49298
 Alpha  occ. eigenvalues --   -0.48987  -0.48853  -0.48617  -0.48503  -0.48190
 Alpha  occ. eigenvalues --   -0.48022  -0.47933  -0.47875  -0.47628  -0.47377
 Alpha  occ. eigenvalues --   -0.47286  -0.46932  -0.46529  -0.46494  -0.46389
 Alpha  occ. eigenvalues --   -0.46206  -0.46148  -0.46060  -0.45985  -0.45819
 Alpha  occ. eigenvalues --   -0.45668  -0.45551  -0.45371  -0.45365  -0.45360
 Alpha  occ. eigenvalues --   -0.45283  -0.45102  -0.44986  -0.44902  -0.44582
 Alpha  occ. eigenvalues --   -0.44434  -0.44286  -0.43851  -0.43843  -0.43738
 Alpha  occ. eigenvalues --   -0.43683  -0.43494  -0.43345  -0.43040  -0.42883
 Alpha  occ. eigenvalues --   -0.42792  -0.42592  -0.42589  -0.42206  -0.42139
 Alpha  occ. eigenvalues --   -0.41849  -0.41753  -0.41277  -0.41040  -0.40502
 Alpha  occ. eigenvalues --   -0.40166  -0.39953  -0.39704  -0.39357  -0.39271
 Alpha  occ. eigenvalues --   -0.39100  -0.38873  -0.38616  -0.38524  -0.38115
 Alpha  occ. eigenvalues --   -0.38068  -0.37635  -0.36150  -0.36116  -0.36089
 Alpha  occ. eigenvalues --   -0.36005  -0.35518  -0.35454  -0.33521  -0.33186
 Alpha  occ. eigenvalues --   -0.33146  -0.32779  -0.32720  -0.32384  -0.32033
 Alpha  occ. eigenvalues --   -0.31900  -0.31522  -0.31467  -0.26143  -0.25808
 Alpha  occ. eigenvalues --   -0.22984  -0.22585
 Alpha virt. eigenvalues --   -0.07339  -0.06482   0.00210   0.00448   0.02300
 Alpha virt. eigenvalues --    0.02621   0.04284   0.04480   0.05417   0.06376
 Alpha virt. eigenvalues --    0.07085   0.07150   0.07442   0.07672   0.08308

 Mulliken charges:
               1
     1  Mg   0.956023
     2  C   -0.066810
     3  C   -0.119246
     4  C   -0.020991
     5  C   -0.102788
     6  N   -0.406821
     7  C    0.019922
     8  C   -0.101575
     9  C   -0.087906
    10  C    0.034076
    11  C    0.034881
    12  C    0.039915
    13  C   -0.123716
    14  H    0.052851
    15  N   -0.463935
    16  C    0.229699
    17  C   -0.175563
    18  C   -0.078340
    19  C    0.188384
    20  C    0.069121
    21  C    0.055805
    22  O   -0.248572
    23  C   -0.006145
    24  N   -0.316424
    25  C   -0.057283
    26  C   -0.058137
    27  C   -0.099793
    28  C    0.111781
    29  C    0.018230
    30  C   -0.021900
    31  C   -0.053869
    32  N   -0.435129
    33  C    0.117038
    34  C   -0.197902
    35  C    0.054048
    36  C    0.194217
    37  C    0.092960
    38  C    0.016677
    39  O   -0.242782
    40  C   -0.028816
    41  C    0.287648
    42  O   -0.268752
    43  O   -0.389821
    44  C    0.142349
    45  H   -0.000923
    46  H    0.018659
    47  H    0.002560
    48  H    0.020112
    49  H    0.019456
    50  H    0.035602
    51  H    0.053065
    52  H    0.043458
    53  H    0.021641
    54  H    0.065541
    55  H    0.039929
    56  H    0.040161
    57  H    0.041096
    58  H    0.067708
    59  H    0.043165
    60  H    0.054695
    61  H    0.075074
    62  H    0.027149
    63  H    0.045805
    64  H    0.030915
    65  H    0.039585
    66  H    0.032769
    67  H    0.042656
    68  H    0.031242
    69  H    0.022893
    70  H    0.046465
    71  H    0.045733
    72  H    0.042288
    73  H    0.058132
    74  H    0.068001
    75  H    0.019634
    76  H    0.066927
    77  H    0.068307
    78  H    0.069544
    79  H    0.058348
    80  Mg   0.958911
    81  C    0.014200
    82  C   -0.115841
    83  C   -0.071693
    84  C   -0.091837
    85  N   -0.268600
    86  C   -0.050245
    87  C   -0.080418
    88  C   -0.081138
    89  C    0.061310
    90  C    0.017836
    91  C   -0.000848
    92  C   -0.101185
    93  H    0.041865
    94  N   -0.420332
    95  C    0.160410
    96  C   -0.187231
    97  C   -0.089522
    98  C    0.145955
    99  C    0.087510
   100  C    0.060876
   101  O   -0.251537
   102  C   -0.004526
   103  N   -0.411526
   104  C    0.041772
   105  C   -0.106341
   106  C   -0.056865
   107  C    0.053168
   108  C    0.041973
   109  C   -0.057153
   110  C   -0.040232
   111  N   -0.481823
   112  C    0.164301
   113  C   -0.192761
   114  C   -0.021523
   115  C    0.160013
   116  C    0.078013
   117  C    0.119435
   118  O   -0.196987
   119  C   -0.104483
   120  C    0.295945
   121  O   -0.245633
   122  O   -0.393133
   123  C    0.148834
   124  H    0.010750
   125  H    0.016603
   126  H   -0.005057
   127  H    0.045970
   128  H    0.028869
   129  H    0.025215
   130  H    0.045297
   131  H    0.027070
   132  H    0.030853
   133  H    0.034379
   134  H    0.044127
   135  H    0.052233
   136  H    0.062348
   137  H    0.037738
   138  H    0.061543
   139  H    0.050607
   140  H    0.063464
   141  H    0.049866
   142  H    0.039319
   143  H    0.036132
   144  H    0.056270
   145  H    0.049496
   146  H    0.029632
   147  H    0.044659
   148  H    0.027433
   149  H    0.033416
   150  H    0.043537
   151  H    0.047328
   152  H    0.057796
   153  H    0.044362
   154  H    0.045832
   155  H    0.074997
   156  H    0.071684
   157  H    0.047330
   158  H    0.039992
 Sum of Mulliken charges =  -0.00000

 Dipole moment (field-independent basis, Debye):
    X=             -4.7470    Y=             -0.5860    Z=              6.6997  Tot=              8.2319
 Quadrupole moment (field-independent basis, Debye-Ang):
   XX=           -452.6732   YY=           -504.7080   ZZ=           -464.5091
   XY=            -26.5699   XZ=            -12.7837   YZ=             43.5142

 Normal termination of Gaussian 16 at Sun Sep 19 08:47:24 2021.
