 Gaussian 16, Revision A.03,
 Gaussian 16:  ES64L-G16RevA.03 25-Dec-2016

 --------------------------------
 #p wB97XD/Def2SVP td=(nstates=5)
 --------------------------------

 --------------------------------
 TDDFT excited states in gaussian
 --------------------------------
 Symbolic Z-matrix:
 Charge =  0 Multiplicity = 1

                         Standard orientation:
 ---------------------------------------------------------------------
 Center     Atomic      Atomic             Coordinates (Angstroms)
 Number     Number       Type             X           Y           Z
 ---------------------------------------------------------------------
      1         12           0       18.711741   -0.234920   -0.139234
      2          6           0       15.173838   -0.807684   -0.179118
      3          6           0       18.122267    2.497924   -2.307911
      4          6           0       21.845406    0.803622    0.462318
      5          6           0       18.956405   -2.489989    2.462338
      6          7           0       16.855820    0.752920   -1.158777
      7          6           0       15.578788    0.312712   -0.950006
      8          6           0       14.592081    1.335539   -1.490454
      9          6           0       15.594275    2.182137   -2.381670
     10          6           0       16.972836    1.837427   -1.963628
     11          6           0       15.468426    2.038719   -3.935645
     12          6           0       13.837030    2.028830   -0.311308
     13          6           0       12.269078    2.237745   -0.392913
     14          1           0       11.687559    3.662846   -0.375831
     15          7           0       19.871358    1.238229   -0.918623
     16          6           0       19.476834    2.269522   -1.811239
     17          6           0       20.611269    3.108107   -2.151808
     18          6           0       21.693774    2.601588   -1.323446
     19          6           0       21.139334    1.497706   -0.562410
     20          6           0       20.473292    4.279709   -3.031851
     21          6           0       23.115215    3.189443   -1.359300
     22          8           0       23.277592    4.217842   -2.078950
     23          6           0       24.336228    2.629414   -0.599180
     24          7           0       20.191253   -0.551537    1.447633
     25          6           0       21.445295   -0.150155    1.366412
     26          6           0       22.199967   -0.713098    2.527189
     27          6           0       21.256303   -1.804403    3.099617
     28          6           0       19.988433   -1.558105    2.341182
     29          6           0       23.679027   -1.255742    2.324200
     30          6           0       21.038746   -1.758705    4.699465
     31          6           0       21.542480   -2.951900    5.547987
     32          7           0       17.452728   -1.538406    0.795719
     33          6           0       17.676017   -2.382478    1.817126
     34          6           0       16.503214   -3.095261    2.169772
     35          6           0       15.507947   -2.530371    1.368896
     36          6           0       16.122501   -1.539736    0.561910
     37          6           0       16.286901   -4.187043    3.139035
     38          6           0       14.097932   -2.608321    1.141193
     39          8           0       13.278396   -3.289469    1.715600
     40          6           0       13.799913   -1.371834    0.078561
     41          6           0       13.201765   -1.904580   -1.151339
     42          8           0       13.571078   -2.924029   -1.747870
     43          8           0       12.191500   -1.036595   -1.506992
     44          6           0       11.442416   -1.372599   -2.716651
     45          1           0       18.006475    3.350783   -2.978479
     46          1           0       22.829236    1.160463    0.772948
     47          1           0       19.024318   -3.365496    3.111722
     48          1           0       13.954665    0.800654   -2.194982
     49          1           0       15.373012    3.163073   -1.959429
     50          1           0       16.441849    1.720551   -4.311633
     51          1           0       15.228614    2.967894   -4.452111
     52          1           0       14.781132    1.267031   -4.283723
     53          1           0       14.339299    2.995818   -0.327581
     54          1           0       14.021252    1.616690    0.680558
     55          1           0       11.871441    1.658908    0.440513
     56          1           0       11.895849    1.658576   -1.236976
     57          1           0       19.657402    4.875141   -2.621440
     58          1           0       20.142775    3.964469   -4.021322
     59          1           0       21.368962    4.861016   -3.252407
     60          1           0       24.200821    2.847993    0.460189
     61          1           0       25.189196    2.952870   -1.194867
     62          1           0       24.246124    1.555121   -0.763538
     63          1           0       22.329425    0.103005    3.236967
     64          1           0       21.675270   -2.710173    2.661089
     65          1           0       24.154573   -1.107500    3.294050
     66          1           0       24.146732   -0.689732    1.518754
     67          1           0       23.589093   -2.320000    2.105867
     68          1           0       19.961628   -1.630867    4.805781
     69          1           0       21.436522   -0.808101    5.054509
     70          1           0       20.789243   -3.325281    6.240478
     71          1           0       22.428090   -2.635182    6.099519
     72          1           0       21.914094   -3.786490    4.953166
     73          1           0       15.361887   -4.727024    2.939370
     74          1           0       16.235112   -3.571832    4.037517
     75          1           0       17.239353   -4.694789    3.290592
     76          1           0       13.249432   -0.562672    0.557149
     77          1           0       11.078402   -2.400019   -2.693853
     78          1           0       12.067735   -1.207060   -3.595198
     79          1           0       10.569530   -0.722529   -2.776949
     80         12           0      -18.273616    0.223889    0.636285
     81          6           0      -15.580406   -0.816214   -1.335249
     82          6           0      -19.993268   -2.569386   -0.434762
     83          6           0      -21.140162    1.527023    1.953790
     84          6           0      -16.677189    3.264842    1.080139
     85          7           0      -17.762164   -1.480569   -0.636533
     86          6           0      -16.559349   -1.785835   -1.139885
     87          6           0      -16.428290   -3.224380   -1.661232
     88          6           0      -17.915627   -3.734331   -1.542126
     89          6           0      -18.650495   -2.540327   -0.711795
     90          6           0      -18.655931   -4.067440   -2.855397
     91          6           0      -15.408548   -4.083331   -0.913132
     92          6           0      -14.824525   -5.220168   -1.771384
     93          1           0      -15.311838   -5.396680   -3.216468
     94          7           0      -20.256548   -0.453235    0.854440
     95          6           0      -20.768174   -1.688007    0.392978
     96          6           0      -22.152533   -1.790684    0.808950
     97          6           0      -22.533653   -0.559172    1.461209
     98          6           0      -21.297792    0.221736    1.482948
     99          6           0      -22.926407   -3.066018    0.617861
    100          6           0      -23.894901   -0.148033    2.182541
    101          8           0      -24.037762    0.868232    2.818064
    102          6           0      -25.054414   -1.107167    2.022396
    103          7           0      -18.852673    2.133245    1.312538
    104          6           0      -20.070146    2.433685    1.849741
    105          6           0      -20.136797    3.910494    2.387594
    106          6           0      -18.701507    4.377658    2.151226
    107          6           0      -18.048682    3.188975    1.471177
    108          6           0      -21.258577    4.916241    1.905629
    109          6           0      -18.006209    4.747448    3.482439
    110          6           0      -17.392546    3.620356    4.342374
    111          7           0      -16.423618    1.083651    0.160733
    112          6           0      -15.904621    2.328869    0.404131
    113          6           0      -14.589210    2.453433   -0.128323
    114          6           0      -14.393229    1.198079   -0.861726
    115          6           0      -15.503065    0.472225   -0.666070
    116          6           0      -13.609591    3.539925   -0.059585
    117          6           0      -13.531914    0.477539   -1.789057
    118          8           0      -12.391715    0.743572   -2.184007
    119          6           0      -14.235850   -0.864773   -2.145818
    120          6           0      -14.435218   -0.999021   -3.585212
    121          8           0      -15.308616   -0.448992   -4.247697
    122          8           0      -13.359354   -1.655036   -4.128790
    123          6           0      -13.100992   -1.560201   -5.578733
    124          1           0      -20.465963   -3.464882   -0.844050
    125          1           0      -21.992019    1.881535    2.537789
    126          1           0      -16.132468    4.185310    1.300131
    127          1           0      -16.232446   -3.246261   -2.733032
    128          1           0      -18.035070   -4.560089   -0.841638
    129          1           0      -18.994703   -5.079517   -2.634669
    130          1           0      -17.966002   -4.061599   -3.698900
    131          1           0      -19.457566   -3.350851   -3.034647
    132          1           0      -15.820520   -4.502561    0.004021
    133          1           0      -14.571195   -3.468626   -0.581778
    134          1           0      -15.085882   -6.083952   -1.159748
    135          1           0      -13.733684   -5.221793   -1.756925
    136          1           0      -22.302643   -3.690450   -0.021855
    137          1           0      -23.884154   -2.833825    0.151641
    138          1           0      -23.145621   -3.577259    1.556441
    139          1           0      -25.561975   -1.116695    1.057279
    140          1           0      -25.757579   -0.913355    2.832386
    141          1           0      -24.573280   -2.068122    2.204210
    142          1           0      -20.347780    3.730780    3.441525
    143          1           0      -18.766411    5.244042    1.493986
    144          1           0      -20.891434    5.895181    1.599701
    145          1           0      -21.921027    5.110324    2.748591
    146          1           0      -21.839373    4.415248    1.130601
    147          1           0      -18.755758    5.293114    4.054332
    148          1           0      -17.235808    5.465219    3.199151
    149          1           0      -17.657371    3.885737    5.365551
    150          1           0      -16.304286    3.585987    4.296749
    151          1           0      -17.702506    2.616180    4.055294
    152          1           0      -12.631779    3.091004    0.111399
    153          1           0      -13.796475    4.295739    0.703313
    154          1           0      -13.478566    3.984032   -1.046515
    155          1           0      -13.568968   -1.625930   -1.741115
    156          1           0      -13.872784   -0.991294   -6.098341
    157          1           0      -13.113215   -2.572606   -5.983198
    158          1           0      -12.129976   -1.066253   -5.580775
 ---------------------------------------------------------------------

 SCF Done:  E(RwB97XD) =  -4070.60505264     A.U. after   17 cycles

 Excitation energies and oscillator strengths:

 Excited State   1:      Singlet-A      1.6376 eV  757.12 nm  f=0.4145  <S**2>=0.000
     309 -> 315        0.19084
     312 -> 313        0.68286
     309 <- 315        0.12114
 This state for optimization and/or second-order correction.
 Total Energy, E(TD-HF/TD-DFT) =  -4070.54487292
 Copying the excited state density for this state as the 1-particle RhoCI density.

 Excited State   2:      Singlet-A      1.6570 eV  748.24 nm  f=0.3886  <S**2>=0.000
     310 -> 316        0.18722
     311 -> 314        0.68139
     310 <- 316        0.11627

 Excited State   3:      Singlet-A      2.0777 eV  596.75 nm  f=0.1516  <S**2>=0.000
     310 -> 314        0.65642
     311 -> 316       -0.23987

 Excited State   4:      Singlet-A      2.1989 eV  563.84 nm  f=0.1292  <S**2>=0.000
     309 -> 313        0.63870
     312 -> 315       -0.29221

 Excited State   5:      Singlet-A      3.1037 eV  399.47 nm  f=0.0053  <S**2>=0.000
     306 -> 314       -0.12873
     308 -> 314        0.67534

 The electronic state is 1-A.
 Alpha  occ. eigenvalues --  -46.95227 -46.94588 -19.31480 -19.29110 -19.25502
 Alpha  occ. eigenvalues --  -19.24954 -19.24793 -19.23921 -19.23760 -19.23165
 Alpha  occ. eigenvalues --  -14.46875 -14.46527 -14.46461 -14.45950 -14.44540
 Alpha  occ. eigenvalues --  -14.44406 -14.44054 -14.42769 -10.43928 -10.42504
 Alpha  occ. eigenvalues --  -10.40158 -10.39477 -10.39231 -10.39104 -10.36167
 Alpha  occ. eigenvalues --  -10.35194 -10.34916 -10.34907 -10.34885 -10.34769
 Alpha  occ. eigenvalues --  -10.34708 -10.34657 -10.34654 -10.34379 -10.34376
 Alpha  occ. eigenvalues --  -10.34375 -10.34304 -10.33894 -10.33757 -10.33079
 Alpha  occ. eigenvalues --  -10.32930 -10.32839 -10.32818 -10.32766 -10.32710
 Alpha  occ. eigenvalues --  -10.32700 -10.32290 -10.32263 -10.32237 -10.32145
 Alpha  occ. eigenvalues --  -10.31826 -10.31803 -10.31703 -10.31691 -10.31687
 Alpha  occ. eigenvalues --  -10.31647 -10.31614 -10.31607 -10.31539 -10.31530
 Alpha  occ. eigenvalues --  -10.31454 -10.31412 -10.31217 -10.31179 -10.31152
 Alpha  occ. eigenvalues --  -10.31088 -10.30928 -10.30916 -10.30873 -10.30654
 Alpha  occ. eigenvalues --  -10.30637 -10.30543 -10.30462 -10.30273 -10.30254
 Alpha  occ. eigenvalues --  -10.30186 -10.30110 -10.29967 -10.29885 -10.29831
 Alpha  occ. eigenvalues --  -10.29691 -10.29658 -10.29289 -10.28962 -10.28793
 Alpha  occ. eigenvalues --  -10.28599  -3.21226  -3.20550  -1.94804  -1.94338
 Alpha  occ. eigenvalues --   -1.94208  -1.94140  -1.93670  -1.93529  -1.18704
 Alpha  occ. eigenvalues --   -1.17250  -1.13797  -1.13067  -1.11098  -1.10349
 Alpha  occ. eigenvalues --   -1.09438  -1.08829  -1.07452  -1.06738  -1.06440
 Alpha  occ. eigenvalues --   -1.05734  -1.05321  -1.04471  -1.04377  -1.03053
 Alpha  occ. eigenvalues --   -0.95142  -0.94047  -0.91227  -0.91028  -0.90638
 Alpha  occ. eigenvalues --   -0.90187  -0.90068  -0.89984  -0.89871  -0.89398
 Alpha  occ. eigenvalues --   -0.89013  -0.88386  -0.88023  -0.87953  -0.86568
 Alpha  occ. eigenvalues --   -0.86118  -0.85744  -0.85321  -0.84591  -0.84216
 Alpha  occ. eigenvalues --   -0.83899  -0.83868  -0.83313  -0.82945  -0.82426
 Alpha  occ. eigenvalues --   -0.82127  -0.80171  -0.80088  -0.79572  -0.79039
 Alpha  occ. eigenvalues --   -0.78802  -0.78743  -0.78202  -0.77819  -0.77268
 Alpha  occ. eigenvalues --   -0.76956  -0.75182  -0.74415  -0.74177  -0.73064
 Alpha  occ. eigenvalues --   -0.71725  -0.71714  -0.71363  -0.70409  -0.70407
 Alpha  occ. eigenvalues --   -0.69644  -0.68726  -0.68060  -0.68053  -0.67601
 Alpha  occ. eigenvalues --   -0.67097  -0.66760  -0.66706  -0.66619  -0.66437
 Alpha  occ. eigenvalues --   -0.65726  -0.64934  -0.63389  -0.62126  -0.61911
 Alpha  occ. eigenvalues --   -0.61772  -0.61487  -0.61070  -0.61028  -0.60881
 Alpha  occ. eigenvalues --   -0.60379  -0.60273  -0.59652  -0.59578  -0.59394
 Alpha  occ. eigenvalues --   -0.58161  -0.57881  -0.57812  -0.57578  -0.57375
 Alpha  occ. eigenvalues --   -0.57110  -0.56833  -0.56604  -0.56451  -0.55643
 Alpha  occ. eigenvalues --   -0.55615  -0.55271  -0.55266  -0.54873  -0.54781
 Alpha  occ. eigenvalues --   -0.54609  -0.54558  -0.54242  -0.54049  -0.54039
 Alpha  occ. eigenvalues --   -0.53886  -0.53630  -0.53540  -0.53331  -0.53163
 Alpha  occ. eigenvalues --   -0.52728  -0.52574  -0.52506  -0.52233  -0.52168
 Alpha  occ. eigenvalues --   -0.51973  -0.51878  -0.51614  -0.51510  -0.51506
 Alpha  occ. eigenvalues --   -0.51330  -0.51304  -0.50963  -0.50904  -0.50711
 Alpha  occ. eigenvalues --   -0.50440  -0.50386  -0.50139  -0.50024  -0.49834
 Alpha  occ. eigenvalues --   -0.49640  -0.49585  -0.49544  -0.49525  -0.49380
 Alpha  occ. eigenvalues --   -0.49042  -0.48966  -0.48668  -0.48556  -0.48366
 Alpha  occ. eigenvalues --   -0.48183  -0.48069  -0.48030  -0.47873  -0.47777
 Alpha  occ. eigenvalues --   -0.47554  -0.47523  -0.47359  -0.47187  -0.46948
 Alpha  occ. eigenvalues --   -0.46931  -0.46559  -0.46453  -0.46231  -0.45875
 Alpha  occ. eigenvalues --   -0.45663  -0.45586  -0.45554  -0.45513  -0.45316
 Alpha  occ. eigenvalues --   -0.45193  -0.45144  -0.45000  -0.44976  -0.44887
 Alpha  occ. eigenvalues --   -0.44752  -0.44734  -0.44652  -0.44264  -0.44230
 Alpha  occ. eigenvalues --   -0.43915  -0.43475  -0.43400  -0.43128  -0.43060
 Alpha  occ. eigenvalues --   -0.43006  -0.42789  -0.42761  -0.42509  -0.42220
 Alpha  occ. eigenvalues --   -0.42147  -0.42125  -0.41811  -0.40843  -0.40645
 Alpha  occ. eigenvalues --   -0.40424  -0.40297  -0.40196  -0.39745  -0.39739
 Alpha  occ. eigenvalues --   -0.39591  -0.39570  -0.38768  -0.38528  -0.38042
 Alpha  occ. eigenvalues --   -0.37734  -0.37684  -0.37124  -0.36305  -0.36084
 Alpha  occ. eigenvalues --   -0.35736  -0.35499  -0.35274  -0.33556  -0.33537
 Alpha  occ. eigenvalues --   -0.33130  -0.33095  -0.32790  -0.32308  -0.32222
 Alpha  occ. eigenvalues --   -0.31785  -0.31536  -0.30831  -0.26067  -0.25415
 Alpha  occ. eigenvalues --   -0.23102  -0.23097
 Alpha virt. eigenvalues --   -0.07275  -0.07267   0.00195   0.00626   0.02403
 Alpha virt. eigenvalues --    0.02655   0.04517   0.04601   0.05495   0.05691
 Alpha virt. eigenvalues --    0.06424   0.07452   0.07600   0.07785   0.08477

 Mulliken charges:
               1
     1  Mg   0.980582
     2  C   -0.123950
     3  C   -0.080704
     4  C   -0.101830
     5  C   -0.096455
     6  N   -0.314635
     7  C   -0.024825
     8  C   -0.047774
     9  C   -0.085468
    10  C    0.061047
    11  C    0.030221
    12  C   -0.009459
    13  C   -0.101202
    14  H    0.050428
    15  N   -0.481393
    16  C    0.127684
    17  C   -0.142786
    18  C   -0.097929
    19  C    0.230400
    20  C    0.077141
    21  C    0.025784
    22  O   -0.277726
    23  C    0.020197
    24  N   -0.346961
    25  C    0.018862
    26  C   -0.090645
    27  C   -0.108997
    28  C    0.094382
    29  C    0.033665
    30  C    0.010074
    31  C   -0.047577
    32  N   -0.436777
    33  C    0.106334
    34  C   -0.206163
    35  C   -0.066793
    36  C    0.192913
    37  C    0.118025
    38  C    0.144186
    39  O   -0.188411
    40  C   -0.050638
    41  C    0.292302
    42  O   -0.254448
    43  O   -0.371158
    44  C    0.136589
    45  H   -0.000060
    46  H   -0.036487
    47  H    0.002922
    48  H    0.018631
    49  H    0.029587
    50  H    0.037135
    51  H    0.045375
    52  H    0.037096
    53  H    0.031072
    54  H    0.053662
    55  H    0.048098
    56  H    0.042468
    57  H    0.047752
    58  H    0.033312
    59  H    0.069348
    60  H    0.083929
    61  H    0.065059
    62  H    0.043318
    63  H    0.038393
    64  H    0.032664
    65  H    0.040633
    66  H    0.041114
    67  H    0.031813
    68  H    0.033611
    69  H    0.025539
    70  H    0.046654
    71  H    0.035564
    72  H    0.033261
    73  H    0.080987
    74  H    0.046771
    75  H    0.029896
    76  H    0.059596
    77  H    0.065663
    78  H    0.052743
    79  H    0.056765
    80  Mg   0.959859
    81  C   -0.000931
    82  C   -0.090033
    83  C   -0.073929
    84  C   -0.086928
    85  N   -0.357174
    86  C   -0.011288
    87  C   -0.047785
    88  C   -0.148964
    89  C    0.067683
    90  C    0.032182
    91  C    0.017146
    92  C   -0.110775
    93  H    0.046838
    94  N   -0.477779
    95  C    0.165542
    96  C   -0.178495
    97  C   -0.089923
    98  C    0.129233
    99  C    0.057185
   100  C    0.082224
   101  O   -0.208405
   102  C   -0.022427
   103  N   -0.337888
   104  C    0.039832
   105  C   -0.081633
   106  C   -0.049154
   107  C    0.050952
   108  C    0.022585
   109  C   -0.042559
   110  C   -0.033358
   111  N   -0.449819
   112  C    0.142143
   113  C   -0.165043
   114  C   -0.034722
   115  C    0.132452
   116  C    0.085500
   117  C    0.094064
   118  O   -0.220720
   119  C   -0.059009
   120  C    0.274396
   121  O   -0.254805
   122  O   -0.379420
   123  C    0.128384
   124  H    0.001355
   125  H    0.020121
   126  H   -0.015931
   127  H    0.038838
   128  H    0.031212
   129  H    0.040115
   130  H    0.043107
   131  H    0.055418
   132  H    0.031077
   133  H    0.031046
   134  H    0.040520
   135  H    0.054389
   136  H    0.029111
   137  H    0.047885
   138  H    0.067780
   139  H    0.082026
   140  H    0.053791
   141  H    0.031756
   142  H    0.039759
   143  H    0.036090
   144  H    0.039805
   145  H    0.035662
   146  H    0.050974
   147  H    0.030123
   148  H    0.031099
   149  H    0.040361
   150  H    0.037228
   151  H    0.046623
   152  H    0.052935
   153  H    0.034588
   154  H    0.057805
   155  H    0.073295
   156  H    0.066862
   157  H    0.054443
   158  H    0.073500
 Sum of Mulliken charges =  -0.00000

 Dipole moment (field-independent basis, Debye):
    X=             -0.7602    Y=             -2.6086    Z=              3.0884  Tot=              4.1136
 Quadrupole moment (field-independent basis, Debye-Ang):
   XX=           -425.7689   YY=           -500.3832   ZZ=           -494.6777
   XY=             20.7627   XZ=             23.8115   YZ=             10.3451

 Normal termination of Gaussian 16 at Sun Sep 19 03:51:03 2021.
