 Gaussian 16, Revision A.03,
 Gaussian 16:  ES64L-G16RevA.03 25-Dec-2016

 --------------------------------
 #p wB97XD/Def2SVP td=(nstates=5)
 --------------------------------

 --------------------------------
 TDDFT excited states in gaussian
 --------------------------------
 Symbolic Z-matrix:
 Charge =  0 Multiplicity = 1

                         Standard orientation:
 ---------------------------------------------------------------------
 Center     Atomic      Atomic             Coordinates (Angstroms)
 Number     Number       Type             X           Y           Z
 ---------------------------------------------------------------------
      1         12           0      -13.666932   -0.474070    0.288694
      2          6           0      -13.632203    2.907972   -0.697958
      3          6           0      -12.244304    0.418802    3.239899
      4          6           0      -13.617050   -3.747908    1.136895
      5          6           0      -14.699567   -1.330471   -2.914239
      6          7           0      -12.932320    1.394280    1.121724
      7          6           0      -13.125968    2.672714    0.591371
      8          6           0      -12.726697    3.698775    1.608895
      9          6           0      -11.865882    2.873316    2.594484
     10          6           0      -12.387125    1.443136    2.299728
     11          6           0      -10.316200    2.915443    2.408750
     12          6           0      -13.908997    4.463272    2.315056
     13          6           0      -13.737171    5.947692    2.376541
     14          1           0      -14.058818    6.622266    3.723196
     15          7           0      -13.126888   -1.462587    1.964386
     16          6           0      -12.629348   -0.908554    3.155623
     17          6           0      -12.442268   -1.920429    4.117425
     18          6           0      -12.852430   -3.207151    3.527138
     19          6           0      -13.228190   -2.848199    2.189415
     20          6           0      -11.794331   -1.746217    5.459868
     21          6           0      -12.826386   -4.699827    4.074977
     22          8           0      -13.242214   -5.614326    3.403801
     23          6           0      -12.373829   -5.005395    5.495678
     24          7           0      -13.995213   -2.290709   -0.787185
     25          6           0      -13.887818   -3.507712   -0.194000
     26          6           0      -14.186452   -4.669268   -1.257939
     27          6           0      -14.829721   -3.875702   -2.478010
     28          6           0      -14.490580   -2.384363   -2.050817
     29          6           0      -12.968799   -5.525735   -1.702801
     30          6           0      -16.370292   -4.116053   -2.663810
     31          6           0      -16.686563   -4.530656   -4.039226
     32          7           0      -14.039726    0.544192   -1.473905
     33          6           0      -14.562787    0.069416   -2.675726
     34          6           0      -14.781851    1.165546   -3.579699
     35          6           0      -14.406637    2.281357   -2.859593
     36          6           0      -14.003033    1.891523   -1.621569
     37          6           0      -15.406340    0.974705   -4.986521
     38          6           0      -14.251872    3.723366   -2.916016
     39          8           0      -14.381128    4.450362   -3.876247
     40          6           0      -13.704834    4.198608   -1.479578
     41          6           0      -12.407755    4.875481   -1.662037
     42          8           0      -11.396688    4.347703   -2.195230
     43          8           0      -12.520329    6.152791   -1.196609
     44          6           0      -11.439267    7.067461   -1.650154
     45          1           0      -11.748982    0.774513    4.145716
     46          1           0      -13.616944   -4.823978    1.321808
     47          1           0      -14.954810   -1.621175   -3.934919
     48          1           0      -12.029333    4.448476    1.233130
     49          1           0      -12.016746    3.147192    3.638816
     50          1           0       -9.939640    3.874227    2.049934
     51          1           0      -10.058799    2.110745    1.719565
     52          1           0       -9.726713    2.633307    3.280733
     53          1           0      -13.986073    4.009418    3.302889
     54          1           0      -14.869171    4.231069    1.853428
     55          1           0      -14.404619    6.266361    1.575722
     56          1           0      -12.690379    6.201197    2.209532
     57          1           0      -12.466510   -1.782961    6.317429
     58          1           0      -11.373761   -0.743533    5.524851
     59          1           0      -10.980504   -2.417408    5.732944
     60          1           0      -12.591343   -6.061496    5.650399
     61          1           0      -12.807182   -4.309286    6.214423
     62          1           0      -11.333133   -4.705587    5.622273
     63          1           0      -14.840579   -5.419505   -0.813384
     64          1           0      -14.284537   -4.142804   -3.384516
     65          1           0      -11.994715   -5.222780   -1.317367
     66          1           0      -12.840926   -5.557646   -2.785091
     67          1           0      -13.166652   -6.544573   -1.368684
     68          1           0      -16.890158   -3.171459   -2.499585
     69          1           0      -16.789693   -4.891109   -2.022663
     70          1           0      -16.811819   -5.613654   -4.054039
     71          1           0      -16.031096   -4.218958   -4.851665
     72          1           0      -17.607366   -4.043024   -4.359475
     73          1           0      -15.890567   -0.001236   -5.028148
     74          1           0      -14.684791    1.186054   -5.777025
     75          1           0      -16.204267    1.715428   -5.023364
     76          1           0      -14.406761    4.869930   -0.984230
     77          1           0      -11.663651    8.092669   -1.356170
     78          1           0      -11.514861    7.071577   -2.737740
     79          1           0      -10.501764    6.653310   -1.278063
     80         12           0       12.910851   -0.638184   -0.544283
     81          6           0       15.474637    1.749113   -0.088550
     82          6           0       10.685037    1.487578    0.639497
     83          6           0       10.772218   -3.279231   -0.192217
     84          6           0       15.622801   -3.137358   -0.817502
     85          7           0       13.122340    1.381427    0.241104
     86          6           0       14.173487    2.215874    0.106661
     87          6           0       13.708799    3.660680    0.375310
     88          6           0       12.229144    3.579576    0.573767
     89          6           0       11.958991    2.045164    0.526275
     90          6           0       11.729237    4.399106    1.833030
     91          6           0       14.144011    4.783181   -0.625161
     92          6           0       13.204320    6.011045   -0.990319
     93          1           0       13.819536    7.417612   -1.028975
     94          7           0       10.916442   -0.792838   -0.097665
     95          6           0       10.150197    0.244920    0.382949
     96          6           0        8.806651   -0.237993    0.530506
     97          6           0        8.770074   -1.673327    0.333124
     98          6           0       10.190639   -1.977651    0.052945
     99          6           0        7.775747    0.709693    0.994053
    100          6           0        7.580027   -2.664384    0.327575
    101          8           0        7.771623   -3.827064    0.186284
    102          6           0        6.176421   -2.158920    0.246627
    103          7           0       13.209248   -2.900991   -0.458477
    104          6           0       12.101032   -3.675038   -0.435662
    105          6           0       12.443305   -5.194009   -0.562387
    106          6           0       13.983774   -5.170264   -0.803004
    107          6           0       14.335744   -3.667162   -0.678080
    108          6           0       12.063853   -6.048253    0.617917
    109          6           0       14.531956   -5.762857   -2.148115
    110          6           0       14.421449   -4.956496   -3.397775
    111          7           0       15.092280   -0.801065   -0.500875
    112          6           0       15.974787   -1.828280   -0.675494
    113          6           0       17.316288   -1.300714   -0.731275
    114          6           0       17.211617    0.097237   -0.506605
    115          6           0       15.834647    0.339217   -0.325993
    116          6           0       18.592985   -2.061630   -0.803555
    117          6           0       17.928917    1.329795   -0.346343
    118          8           0       19.114877    1.629802   -0.422269
    119          6           0       16.835591    2.467542   -0.117145
    120          6           0       17.142737    3.353831    1.078125
    121          8           0       17.155726    2.964073    2.217186
    122          8           0       17.351061    4.652313    0.641076
    123          6           0       17.690521    5.578329    1.722103
    124          1           0        9.854787    2.173066    0.823946
    125          1           0       10.016885   -4.063588   -0.113644
    126          1           0       16.421032   -3.858653   -1.004115
    127          1           0       14.276226    3.837441    1.289041
    128          1           0       11.759068    4.093645   -0.265053
    129          1           0       12.556642    4.982967    2.235947
    130          1           0       11.235572    3.698346    2.506272
    131          1           0       11.029947    5.183215    1.542150
    132          1           0       14.363668    4.286426   -1.570512
    133          1           0       15.093708    5.235989   -0.339103
    134          1           0       12.411410    5.972800   -0.243102
    135          1           0       12.738179    5.823931   -1.957762
    136          1           0        7.116143    0.129634    1.639071
    137          1           0        7.202345    1.009493    0.117680
    138          1           0        8.031184    1.629517    1.520410
    139          1           0        5.898863   -2.083017    1.297148
    140          1           0        5.594359   -2.826355   -0.389588
    141          1           0        6.072172   -1.140939   -0.129449
    142          1           0       12.041413   -5.625552   -1.479315
    143          1           0       14.653068   -5.586458   -0.050710
    144          1           0       11.422150   -5.505591    1.313276
    145          1           0       12.932048   -6.352701    1.203023
    146          1           0       11.535390   -6.904451    0.199423
    147          1           0       14.046022   -6.717006   -2.352285
    148          1           0       15.552842   -6.099641   -1.966510
    149          1           0       13.618115   -4.226759   -3.294760
    150          1           0       14.164688   -5.423242   -4.348994
    151          1           0       15.415737   -4.533916   -3.545859
    152          1           0       18.759859   -2.755781    0.019596
    153          1           0       19.370798   -1.339209   -0.554880
    154          1           0       18.725813   -2.539634   -1.774500
    155          1           0       16.829552    3.057280   -1.034030
    156          1           0       16.735355    6.086011    1.591494
    157          1           0       18.541351    6.128295    1.320643
    158          1           0       17.853584    5.081544    2.678754
 ---------------------------------------------------------------------

 SCF Done:  E(RwB97XD) =  -4070.61508706     A.U. after   19 cycles

 Excitation energies and oscillator strengths:

 Excited State   1:      Singlet-A      1.6417 eV  755.21 nm  f=0.3910  <S**2>=0.000
     310 -> 315        0.19296
     312 -> 314        0.68141
     310 <- 315        0.11999
 This state for optimization and/or second-order correction.
 Total Energy, E(TD-HF/TD-DFT) =  -4070.55475534
 Copying the excited state density for this state as the 1-particle RhoCI density.

 Excited State   2:      Singlet-A      1.6895 eV  733.84 nm  f=0.3892  <S**2>=0.000
     309 -> 316       -0.18334
     311 -> 313        0.68230
     309 <- 316       -0.11551

 Excited State   3:      Singlet-A      2.1319 eV  581.55 nm  f=0.0953  <S**2>=0.000
     310 -> 314        0.63974
     312 -> 315       -0.28509

 Excited State   4:      Singlet-A      2.1432 eV  578.49 nm  f=0.1625  <S**2>=0.000
     309 -> 313        0.65099
     311 -> 316        0.25236

 Excited State   5:      Singlet-A      3.1995 eV  387.52 nm  f=0.0021  <S**2>=0.000
     305 -> 313        0.29588
     307 -> 313        0.62337

 The electronic state is 1-A.
 Alpha  occ. eigenvalues --  -46.96331 -46.93615 -19.30957 -19.29983 -19.24997
 Alpha  occ. eigenvalues --  -19.24955 -19.24598 -19.24558 -19.24142 -19.23678
 Alpha  occ. eigenvalues --  -14.46796 -14.46744 -14.46374 -14.46163 -14.44105
 Alpha  occ. eigenvalues --  -14.44038 -14.43389 -14.43222 -10.43362 -10.42965
 Alpha  occ. eigenvalues --  -10.40420 -10.39686 -10.39112 -10.38812 -10.35999
 Alpha  occ. eigenvalues --  -10.35677 -10.35144 -10.35143 -10.34995 -10.34965
 Alpha  occ. eigenvalues --  -10.34803 -10.34758 -10.34742 -10.34724 -10.34489
 Alpha  occ. eigenvalues --  -10.34349 -10.34078 -10.33606 -10.33481 -10.33220
 Alpha  occ. eigenvalues --  -10.33150 -10.33029 -10.32828 -10.32688 -10.32554
 Alpha  occ. eigenvalues --  -10.32318 -10.32255 -10.32227 -10.32104 -10.32083
 Alpha  occ. eigenvalues --  -10.32067 -10.31919 -10.31907 -10.31896 -10.31877
 Alpha  occ. eigenvalues --  -10.31763 -10.31736 -10.31696 -10.31670 -10.31548
 Alpha  occ. eigenvalues --  -10.31399 -10.31314 -10.31266 -10.31099 -10.30968
 Alpha  occ. eigenvalues --  -10.30757 -10.30752 -10.30688 -10.30494 -10.30445
 Alpha  occ. eigenvalues --  -10.30429 -10.30423 -10.30421 -10.30255 -10.30045
 Alpha  occ. eigenvalues --  -10.30044 -10.30041 -10.29922 -10.29666 -10.29263
 Alpha  occ. eigenvalues --  -10.29248 -10.28946 -10.28912 -10.28767 -10.28496
 Alpha  occ. eigenvalues --  -10.28411  -3.22125  -3.19749  -1.95678  -1.95248
 Alpha  occ. eigenvalues --   -1.95074  -1.93350  -1.92867  -1.92750  -1.18456
 Alpha  occ. eigenvalues --   -1.18016  -1.15124  -1.14020  -1.12619  -1.11440
 Alpha  occ. eigenvalues --   -1.10742  -1.08599  -1.07025  -1.06215  -1.05420
 Alpha  occ. eigenvalues --   -1.05133  -1.04640  -1.04513  -1.03871  -1.03579
 Alpha  occ. eigenvalues --   -0.94616  -0.93572  -0.91160  -0.91148  -0.90734
 Alpha  occ. eigenvalues --   -0.90621  -0.90187  -0.90004  -0.89303  -0.89113
 Alpha  occ. eigenvalues --   -0.89034  -0.88451  -0.88031  -0.87837  -0.86291
 Alpha  occ. eigenvalues --   -0.85876  -0.85770  -0.85593  -0.84885  -0.84448
 Alpha  occ. eigenvalues --   -0.84116  -0.83902  -0.83213  -0.82780  -0.82707
 Alpha  occ. eigenvalues --   -0.82363  -0.80300  -0.80262  -0.79319  -0.79059
 Alpha  occ. eigenvalues --   -0.79010  -0.78762  -0.77804  -0.77723  -0.76899
 Alpha  occ. eigenvalues --   -0.76597  -0.74936  -0.74316  -0.73430  -0.72988
 Alpha  occ. eigenvalues --   -0.71724  -0.71186  -0.70676  -0.70207  -0.70090
 Alpha  occ. eigenvalues --   -0.69593  -0.68931  -0.68595  -0.67535  -0.67167
 Alpha  occ. eigenvalues --   -0.66927  -0.66657  -0.66226  -0.66125  -0.66086
 Alpha  occ. eigenvalues --   -0.66003  -0.64013  -0.63686  -0.62410  -0.62169
 Alpha  occ. eigenvalues --   -0.62041  -0.61506  -0.61326  -0.60800  -0.60315
 Alpha  occ. eigenvalues --   -0.60224  -0.59975  -0.59764  -0.59664  -0.59384
 Alpha  occ. eigenvalues --   -0.58253  -0.58046  -0.57844  -0.57718  -0.57499
 Alpha  occ. eigenvalues --   -0.57330  -0.56989  -0.56971  -0.56527  -0.55994
 Alpha  occ. eigenvalues --   -0.55783  -0.55670  -0.55604  -0.55466  -0.55292
 Alpha  occ. eigenvalues --   -0.54708  -0.54646  -0.54578  -0.54289  -0.53893
 Alpha  occ. eigenvalues --   -0.53818  -0.53673  -0.53582  -0.53138  -0.53044
 Alpha  occ. eigenvalues --   -0.52884  -0.52874  -0.52757  -0.52516  -0.52511
 Alpha  occ. eigenvalues --   -0.52231  -0.52131  -0.51952  -0.51816  -0.51436
 Alpha  occ. eigenvalues --   -0.51430  -0.51415  -0.51178  -0.51103  -0.50932
 Alpha  occ. eigenvalues --   -0.50723  -0.50665  -0.50520  -0.50290  -0.49967
 Alpha  occ. eigenvalues --   -0.49653  -0.49644  -0.49241  -0.49175  -0.49068
 Alpha  occ. eigenvalues --   -0.48827  -0.48724  -0.48644  -0.48460  -0.48136
 Alpha  occ. eigenvalues --   -0.47965  -0.47849  -0.47757  -0.47751  -0.47459
 Alpha  occ. eigenvalues --   -0.47388  -0.47368  -0.47063  -0.46767  -0.46660
 Alpha  occ. eigenvalues --   -0.46554  -0.46507  -0.46473  -0.46359  -0.46245
 Alpha  occ. eigenvalues --   -0.46004  -0.45642  -0.45568  -0.45425  -0.45324
 Alpha  occ. eigenvalues --   -0.45218  -0.44975  -0.44939  -0.44905  -0.44866
 Alpha  occ. eigenvalues --   -0.44645  -0.44517  -0.44367  -0.44329  -0.43962
 Alpha  occ. eigenvalues --   -0.43953  -0.43862  -0.43768  -0.43416  -0.43209
 Alpha  occ. eigenvalues --   -0.42954  -0.42806  -0.42481  -0.42413  -0.42049
 Alpha  occ. eigenvalues --   -0.42018  -0.41116  -0.41098  -0.40839  -0.40807
 Alpha  occ. eigenvalues --   -0.40347  -0.40038  -0.39973  -0.39842  -0.39827
 Alpha  occ. eigenvalues --   -0.39333  -0.38996  -0.38848  -0.38482  -0.37992
 Alpha  occ. eigenvalues --   -0.37918  -0.37665  -0.36597  -0.36308  -0.36186
 Alpha  occ. eigenvalues --   -0.35560  -0.35452  -0.35371  -0.33810  -0.33751
 Alpha  occ. eigenvalues --   -0.33557  -0.33030  -0.32908  -0.32629  -0.32234
 Alpha  occ. eigenvalues --   -0.32013  -0.31823  -0.31505  -0.25957  -0.25736
 Alpha  occ. eigenvalues --   -0.23414  -0.22849
 Alpha virt. eigenvalues --   -0.07443  -0.06999   0.00295   0.00566   0.02471
 Alpha virt. eigenvalues --    0.02710   0.04254   0.04639   0.04799   0.06401
 Alpha virt. eigenvalues --    0.06616   0.07011   0.07795   0.07972   0.08502

 Mulliken charges:
               1
     1  Mg   0.978638
     2  C   -0.032794
     3  C   -0.099861
     4  C   -0.063494
     5  C   -0.089453
     6  N   -0.322165
     7  C    0.015155
     8  C   -0.082454
     9  C   -0.128262
    10  C    0.030658
    11  C    0.020711
    12  C    0.044935
    13  C   -0.121257
    14  H    0.030901
    15  N   -0.523109
    16  C    0.242030
    17  C   -0.149227
    18  C   -0.081283
    19  C    0.154483
    20  C    0.041767
    21  C    0.076214
    22  O   -0.213694
    23  C   -0.007606
    24  N   -0.359284
    25  C    0.071708
    26  C   -0.108400
    27  C   -0.079629
    28  C    0.063486
    29  C    0.008299
    30  C    0.027419
    31  C   -0.074100
    32  N   -0.443904
    33  C    0.130133
    34  C   -0.214795
    35  C    0.007946
    36  C    0.121513
    37  C    0.094307
    38  C    0.108399
    39  O   -0.190842
    40  C   -0.042064
    41  C    0.275657
    42  O   -0.282101
    43  O   -0.372003
    44  C    0.141543
    45  H   -0.011190
    46  H    0.021775
    47  H   -0.003551
    48  H    0.026544
    49  H    0.025681
    50  H    0.044861
    51  H    0.043145
    52  H    0.033020
    53  H    0.030151
    54  H    0.030181
    55  H    0.065345
    56  H    0.053972
    57  H    0.051234
    58  H    0.022986
    59  H    0.045353
    60  H    0.070976
    61  H    0.046673
    62  H    0.048619
    63  H    0.037947
    64  H    0.037766
    65  H    0.044075
    66  H    0.029752
    67  H    0.037127
    68  H    0.035383
    69  H    0.037634
    70  H    0.038984
    71  H    0.028169
    72  H    0.026733
    73  H    0.030880
    74  H    0.066412
    75  H    0.049454
    76  H    0.057676
    77  H    0.060475
    78  H    0.064174
    79  H    0.067464
    80  Mg   0.948660
    81  C   -0.025447
    82  C   -0.065441
    83  C   -0.063870
    84  C   -0.102249
    85  N   -0.370913
    86  C   -0.015948
    87  C   -0.028368
    88  C   -0.134594
    89  C    0.098671
    90  C    0.020652
    91  C   -0.029999
    92  C   -0.123665
    93  H    0.053515
    94  N   -0.508270
    95  C    0.144461
    96  C   -0.142026
    97  C   -0.082424
    98  C    0.112979
    99  C    0.033060
   100  C    0.056451
   101  O   -0.199122
   102  C   -0.017946
   103  N   -0.306792
   104  C    0.065608
   105  C   -0.068739
   106  C   -0.048078
   107  C    0.007260
   108  C    0.036413
   109  C   -0.047546
   110  C   -0.031101
   111  N   -0.393639
   112  C    0.166252
   113  C   -0.184933
   114  C   -0.031403
   115  C    0.105926
   116  C    0.061933
   117  C    0.130909
   118  O   -0.210234
   119  C   -0.060733
   120  C    0.252629
   121  O   -0.228708
   122  O   -0.379361
   123  C    0.117896
   124  H   -0.017354
   125  H    0.026236
   126  H   -0.005169
   127  H    0.048787
   128  H    0.042288
   129  H    0.042654
   130  H    0.050032
   131  H    0.032117
   132  H    0.030249
   133  H    0.046362
   134  H    0.034855
   135  H    0.055908
   136  H    0.037020
   137  H    0.055517
   138  H    0.058178
   139  H    0.064355
   140  H    0.073835
   141  H    0.037481
   142  H    0.039996
   143  H    0.035188
   144  H    0.044112
   145  H    0.034812
   146  H    0.041352
   147  H    0.023738
   148  H    0.022400
   149  H    0.035779
   150  H    0.033412
   151  H    0.037193
   152  H    0.045430
   153  H    0.051365
   154  H    0.052664
   155  H    0.070940
   156  H    0.051477
   157  H    0.068801
   158  H    0.086261
 Sum of Mulliken charges =  -0.00000

 Dipole moment (field-independent basis, Debye):
    X=             -4.5444    Y=              1.0050    Z=              2.5849  Tot=              5.3239
 Quadrupole moment (field-independent basis, Debye-Ang):
   XX=           -661.2253   YY=           -477.4963   ZZ=           -497.4423
   XY=              9.6708   XZ=            -71.1098   YZ=             30.8577

 Normal termination of Gaussian 16 at Sat Sep 18 17:07:22 2021.
