 Gaussian 16, Revision A.03,
 Gaussian 16:  ES64L-G16RevA.03 25-Dec-2016

 --------------------------------
 #p wB97XD/Def2SVP td=(nstates=5)
 --------------------------------

 --------------------------------
 TDDFT excited states in gaussian
 --------------------------------
 Symbolic Z-matrix:
 Charge =  0 Multiplicity = 1

                         Standard orientation:
 ---------------------------------------------------------------------
 Center     Atomic      Atomic             Coordinates (Angstroms)
 Number     Number       Type             X           Y           Z
 ---------------------------------------------------------------------
      1         12           0       14.523436   -0.350542   -0.108136
      2          6           0       10.985979   -1.087532   -0.747558
      3          6           0       14.220929    1.902864   -2.717797
      4          6           0       17.146309    1.053849    1.039948
      5          6           0       14.165890   -2.479940    2.764075
      6          7           0       12.647861    0.418086   -1.503200
      7          6           0       11.345733   -0.023776   -1.589704
      8          6           0       10.561658    0.866001   -2.622319
      9          6           0       11.659965    1.596273   -3.414551
     10          6           0       12.912340    1.296812   -2.505842
     11          6           0       11.959869    1.131064   -4.899989
     12          6           0        9.495527    1.806182   -1.962540
     13          6           0        8.188469    1.968607   -2.708213
     14          1           0        8.004907    3.286770   -3.523881
     15          7           0       15.609938    1.154377   -0.795186
     16          6           0       15.416901    1.901658   -1.925157
     17          6           0       16.515940    2.895572   -2.066726
     18          6           0       17.354077    2.655034   -0.946936
     19          6           0       16.691766    1.618214   -0.159351
     20          6           0       16.648027    3.987168   -3.141289
     21          6           0       18.561656    3.466064   -0.468278
     22          8           0       18.937905    4.389062   -1.185648
     23          6           0       19.288527    3.211690    0.712460
     24          7           0       15.368596   -0.513510    1.830436
     25          6           0       16.635665    0.032200    1.887407
     26          6           0       17.328842   -0.479880    3.208993
     27          6           0       16.221277   -1.362621    3.888329
     28          6           0       15.235600   -1.538642    2.708345
     29          6           0       18.679052   -1.223548    3.016863
     30          6           0       15.530059   -0.837970    5.210934
     31          6           0       16.285709   -1.011461    6.539901
     32          7           0       12.978142   -1.606884    0.863251
     33          6           0       13.049566   -2.485100    1.926084
     34          6           0       11.855048   -3.285799    2.043630
     35          6           0       11.010826   -2.774403    0.988100
     36          6           0       11.673511   -1.702630    0.293993
     37          6           0       11.627418   -4.305427    3.116719
     38          6           0        9.734046   -2.881942    0.438032
     39          8           0        8.743530   -3.491634    0.817921
     40          6           0        9.594102   -1.736269   -0.605789
     41          6           0        9.209222   -2.437058   -1.887793
     42          8           0        8.267456   -2.080955   -2.600435
     43          8           0       10.125017   -3.473785   -2.332240
     44          6           0        9.904201   -3.852626   -3.726960
     45          1           0       14.176531    2.567712   -3.582362
     46          1           0       18.124602    1.307269    1.453671
     47          1           0       14.241960   -3.146687    3.625437
     48          1           0       10.129363    0.212312   -3.381233
     49          1           0       11.533662    2.678354   -3.379363
     50          1           0       11.537338    1.918566   -5.523658
     51          1           0       11.423839    0.213604   -5.141236
     52          1           0       13.005275    0.921272   -5.126057
     53          1           0        9.792579    2.852981   -1.893775
     54          1           0        9.218490    1.431372   -0.976978
     55          1           0        7.389528    1.797607   -1.986696
     56          1           0        8.127428    1.163014   -3.440612
     57          1           0       17.689200    4.073394   -3.453272
     58          1           0       16.246133    4.877416   -2.657651
     59          1           0       16.093427    3.720479   -4.039926
     60          1           0       19.793805    2.252346    0.596399
     61          1           0       18.707130    3.277777    1.632138
     62          1           0       19.934020    4.090039    0.745895
     63          1           0       17.563106    0.314337    3.917031
     64          1           0       16.581799   -2.372849    4.080626
     65          1           0       18.531175   -2.202482    3.473056
     66          1           0       19.450790   -0.673351    3.554295
     67          1           0       18.813128   -1.228732    1.934459
     68          1           0       14.601846   -1.408910    5.251109
     69          1           0       15.371048    0.239662    5.166678
     70          1           0       17.157186   -1.573090    6.202222
     71          1           0       15.756404   -1.690720    7.209665
     72          1           0       16.586475   -0.103970    7.062889
     73          1           0       11.743986   -3.764281    4.054775
     74          1           0       12.400675   -5.072272    3.159190
     75          1           0       10.596628   -4.657811    3.155987
     76          1           0        8.753771   -1.120322   -0.286127
     77          1           0       10.921475   -4.204169   -3.903336
     78          1           0        9.482376   -3.036642   -4.313721
     79          1           0        9.269735   -4.738750   -3.704835
     80         12           0      -13.456843    0.993458    0.138745
     81          6           0      -14.346666   -2.264289   -0.387784
     82          6           0      -10.275710    0.326741   -0.594870
     83          6           0      -12.774629    4.086504    0.906982
     84          6           0      -16.731634    1.441376    1.472038
     85          7           0      -12.366674   -0.837506   -0.272564
     86          6           0      -12.993689   -1.964530   -0.692902
     87          6           0      -12.071934   -2.861814   -1.472596
     88          6           0      -10.691100   -2.118827   -1.267505
     89          6           0      -11.097737   -0.824696   -0.596647
     90          6           0       -9.623291   -2.938759   -0.504316
     91          6           0      -12.547652   -3.140348   -3.026141
     92          6           0      -12.533642   -4.584319   -3.550543
     93          1           0      -11.566879   -5.584136   -2.841577
     94          7           0      -11.864770    2.058797   -0.007864
     95          6           0      -10.603675    1.660808   -0.319222
     96          6           0       -9.624130    2.710395   -0.177486
     97          6           0      -10.354082    3.837117    0.053187
     98          6           0      -11.702851    3.325018    0.448683
     99          6           0       -8.162892    2.314311   -0.284598
    100          6           0       -9.874066    5.299783    0.135728
    101          8           0      -10.591618    6.234067    0.407668
    102          6           0       -8.405590    5.472358   -0.117997
    103          7           0      -14.582206    2.478312    1.226969
    104          6           0      -14.062606    3.718283    1.272250
    105          6           0      -15.074922    4.714843    1.845691
    106          6           0      -16.431839    3.941200    1.727279
    107          6           0      -15.901720    2.512998    1.485484
    108          6           0      -14.816154    5.303711    3.297587
    109          6           0      -17.374219    4.359295    0.536379
    110          6           0      -16.944564    4.294494   -0.905647
    111          7           0      -15.269723   -0.082565    0.433582
    112          6           0      -16.492478    0.174684    1.061943
    113          6           0      -17.373242   -0.999959    1.032921
    114          6           0      -16.566588   -1.992652    0.456632
    115          6           0      -15.329027   -1.356061    0.125881
    116          6           0      -18.815434   -1.098743    1.459358
    117          6           0      -16.494605   -3.328511    0.075146
    118          8           0      -17.267800   -4.268251    0.175919
    119          6           0      -15.162056   -3.512117   -0.696321
    120          6           0      -14.618958   -4.755925   -0.103802
    121          8           0      -14.029687   -4.835587    0.976772
    122          8           0      -14.951821   -5.845959   -0.854624
    123          6           0      -14.772347   -7.189280   -0.294814
    124          1           0       -9.293810    0.118273   -1.025355
    125          1           0      -12.635799    5.144514    1.135714
    126          1           0      -17.707561    1.732871    1.867710
    127          1           0      -11.948763   -3.819216   -0.966209
    128          1           0      -10.301143   -1.827412   -2.242512
    129          1           0       -9.558640   -2.567319    0.518329
    130          1           0       -8.658286   -2.781215   -0.986052
    131          1           0       -9.957023   -3.976266   -0.525444
    132          1           0      -11.874873   -2.533175   -3.631912
    133          1           0      -13.579225   -2.821415   -3.171881
    134          1           0      -12.169973   -4.607918   -4.577471
    135          1           0      -13.552448   -4.968483   -3.599634
    136          1           0       -7.819672    1.601220    0.465099
    137          1           0       -7.376881    3.037579   -0.068233
    138          1           0       -8.116739    1.983618   -1.322217
    139          1           0       -8.130596    5.054273   -1.086049
    140          1           0       -7.972233    5.012525    0.769937
    141          1           0       -8.004534    6.480183   -0.219332
    142          1           0      -14.972024    5.551820    1.154134
    143          1           0      -16.921332    3.945300    2.701431
    144          1           0      -13.888079    4.893322    3.694803
    145          1           0      -15.565023    4.940437    4.000381
    146          1           0      -14.811608    6.391004    3.388134
    147          1           0      -17.598640    5.382597    0.838445
    148          1           0      -18.303314    3.790269    0.527681
    149          1           0      -15.875851    4.082571   -0.958094
    150          1           0      -17.095003    5.257846   -1.392668
    151          1           0      -17.391592    3.506172   -1.510971
    152          1           0      -18.937802   -1.660550    2.384310
    153          1           0      -19.402975   -1.561501    0.666239
    154          1           0      -19.072234   -0.064341    1.689131
    155          1           0      -15.317327   -3.543344   -1.774910
    156          1           0      -15.447813   -7.917094   -0.745956
    157          1           0      -14.752244   -7.178289    0.793873
    158          1           0      -13.771907   -7.584675   -0.469595
 ---------------------------------------------------------------------

 SCF Done:  E(RwB97XD) =  -4070.55147978     A.U. after   20 cycles

 Excitation energies and oscillator strengths:

 Excited State   1:      Singlet-A      1.6687 eV  743.01 nm  f=0.3651  <S**2>=0.000
     309 -> 315        0.20207
     311 -> 313        0.67703
     309 <- 315        0.11955
 This state for optimization and/or second-order correction.
 Total Energy, E(TD-HF/TD-DFT) =  -4070.49015713
 Copying the excited state density for this state as the 1-particle RhoCI density.

 Excited State   2:      Singlet-A      1.7225 eV  719.80 nm  f=0.3659  <S**2>=0.000
     310 -> 316       -0.19577
     312 -> 314        0.67970
     310 <- 316       -0.11410

 Excited State   3:      Singlet-A      2.1894 eV  566.29 nm  f=0.0674  <S**2>=0.000
     309 -> 313        0.61432
     311 -> 315       -0.33155

 Excited State   4:      Singlet-A      2.2245 eV  557.37 nm  f=0.0563  <S**2>=0.000
     310 -> 314        0.61470
     312 -> 316        0.33861

 Excited State   5:      Singlet-A      3.2150 eV  385.64 nm  f=0.0161  <S**2>=0.000
     308 -> 313        0.61808
     308 -> 317        0.11975
     311 -> 315        0.24428

 The electronic state is 1-A.
 Alpha  occ. eigenvalues --  -46.97176 -46.94198 -19.29033 -19.29015 -19.25131
 Alpha  occ. eigenvalues --  -19.24881 -19.23901 -19.23169 -19.22985 -19.22578
 Alpha  occ. eigenvalues --  -14.47427 -14.46643 -14.46174 -14.45536 -14.45492
 Alpha  occ. eigenvalues --  -14.44539 -14.43818 -14.43215 -10.43370 -10.41987
 Alpha  occ. eigenvalues --  -10.39850 -10.38963 -10.37573 -10.37415 -10.36486
 Alpha  occ. eigenvalues --  -10.36048 -10.35725 -10.35688 -10.35533 -10.35077
 Alpha  occ. eigenvalues --  -10.34838 -10.34588 -10.34511 -10.34341 -10.34281
 Alpha  occ. eigenvalues --  -10.34196 -10.34130 -10.33949 -10.33442 -10.33313
 Alpha  occ. eigenvalues --  -10.33148 -10.33071 -10.33009 -10.32997 -10.32876
 Alpha  occ. eigenvalues --  -10.32802 -10.32757 -10.32560 -10.32512 -10.32465
 Alpha  occ. eigenvalues --  -10.32399 -10.32377 -10.32179 -10.31905 -10.31885
 Alpha  occ. eigenvalues --  -10.31791 -10.31784 -10.31667 -10.31615 -10.31607
 Alpha  occ. eigenvalues --  -10.31555 -10.31511 -10.31472 -10.31410 -10.31280
 Alpha  occ. eigenvalues --  -10.31250 -10.30962 -10.30923 -10.30839 -10.30839
 Alpha  occ. eigenvalues --  -10.30691 -10.30574 -10.30464 -10.30299 -10.30184
 Alpha  occ. eigenvalues --  -10.30108 -10.30101 -10.29818 -10.29765 -10.29709
 Alpha  occ. eigenvalues --  -10.29645 -10.29514 -10.29334 -10.28927 -10.28904
 Alpha  occ. eigenvalues --  -10.27948  -3.23078  -3.20457  -1.96602  -1.96244
 Alpha  occ. eigenvalues --   -1.95998  -1.94019  -1.93602  -1.93468  -1.16894
 Alpha  occ. eigenvalues --   -1.16180  -1.13673  -1.12755  -1.11281  -1.11107
 Alpha  occ. eigenvalues --   -1.08649  -1.07988  -1.07535  -1.07185  -1.06647
 Alpha  occ. eigenvalues --   -1.06006  -1.05443  -1.05431  -1.04907  -1.03168
 Alpha  occ. eigenvalues --   -0.94960  -0.94203  -0.91497  -0.90979  -0.90912
 Alpha  occ. eigenvalues --   -0.90476  -0.90250  -0.89781  -0.89746  -0.89287
 Alpha  occ. eigenvalues --   -0.89060  -0.88964  -0.88380  -0.87933  -0.87004
 Alpha  occ. eigenvalues --   -0.86177  -0.85841  -0.85681  -0.85376  -0.84569
 Alpha  occ. eigenvalues --   -0.84528  -0.84389  -0.83196  -0.82885  -0.82376
 Alpha  occ. eigenvalues --   -0.81934  -0.80893  -0.80318  -0.79354  -0.79277
 Alpha  occ. eigenvalues --   -0.79050  -0.78785  -0.77856  -0.77513  -0.77310
 Alpha  occ. eigenvalues --   -0.77038  -0.74907  -0.74510  -0.74002  -0.73559
 Alpha  occ. eigenvalues --   -0.71463  -0.71176  -0.70903  -0.70625  -0.70014
 Alpha  occ. eigenvalues --   -0.69800  -0.69205  -0.69095  -0.67605  -0.67410
 Alpha  occ. eigenvalues --   -0.67230  -0.67079  -0.66808  -0.66639  -0.66113
 Alpha  occ. eigenvalues --   -0.65643  -0.63983  -0.63591  -0.63049  -0.62492
 Alpha  occ. eigenvalues --   -0.61894  -0.61350  -0.61182  -0.61156  -0.60988
 Alpha  occ. eigenvalues --   -0.59768  -0.59685  -0.59429  -0.59268  -0.59075
 Alpha  occ. eigenvalues --   -0.58760  -0.58220  -0.57673  -0.57127  -0.56982
 Alpha  occ. eigenvalues --   -0.56838  -0.56492  -0.56371  -0.56285  -0.55920
 Alpha  occ. eigenvalues --   -0.55765  -0.55560  -0.55476  -0.55315  -0.55014
 Alpha  occ. eigenvalues --   -0.54928  -0.54525  -0.54485  -0.54447  -0.54220
 Alpha  occ. eigenvalues --   -0.54084  -0.54008  -0.53774  -0.53500  -0.53491
 Alpha  occ. eigenvalues --   -0.53087  -0.53052  -0.52592  -0.52430  -0.52305
 Alpha  occ. eigenvalues --   -0.52032  -0.51898  -0.51887  -0.51582  -0.51383
 Alpha  occ. eigenvalues --   -0.51190  -0.51139  -0.50985  -0.50903  -0.50637
 Alpha  occ. eigenvalues --   -0.50610  -0.50411  -0.50384  -0.50176  -0.49974
 Alpha  occ. eigenvalues --   -0.49908  -0.49838  -0.49755  -0.49600  -0.49321
 Alpha  occ. eigenvalues --   -0.48984  -0.48739  -0.48640  -0.48565  -0.48464
 Alpha  occ. eigenvalues --   -0.48329  -0.48132  -0.47936  -0.47516  -0.47398
 Alpha  occ. eigenvalues --   -0.47300  -0.47040  -0.46983  -0.46689  -0.46661
 Alpha  occ. eigenvalues --   -0.46532  -0.46410  -0.46345  -0.46096  -0.45968
 Alpha  occ. eigenvalues --   -0.45805  -0.45695  -0.45657  -0.45646  -0.45399
 Alpha  occ. eigenvalues --   -0.45243  -0.44975  -0.44729  -0.44685  -0.44634
 Alpha  occ. eigenvalues --   -0.44466  -0.44348  -0.44264  -0.44122  -0.43998
 Alpha  occ. eigenvalues --   -0.43962  -0.43673  -0.43517  -0.43397  -0.43339
 Alpha  occ. eigenvalues --   -0.43049  -0.42885  -0.42577  -0.42341  -0.42242
 Alpha  occ. eigenvalues --   -0.42226  -0.41900  -0.41380  -0.41314  -0.41012
 Alpha  occ. eigenvalues --   -0.40859  -0.40285  -0.39991  -0.39890  -0.39701
 Alpha  occ. eigenvalues --   -0.39263  -0.38914  -0.38390  -0.38313  -0.38198
 Alpha  occ. eigenvalues --   -0.37443  -0.37034  -0.36637  -0.36237  -0.36018
 Alpha  occ. eigenvalues --   -0.35358  -0.35332  -0.34841  -0.34529  -0.33917
 Alpha  occ. eigenvalues --   -0.33606  -0.33300  -0.33283  -0.32824  -0.32209
 Alpha  occ. eigenvalues --   -0.31959  -0.31756  -0.30950  -0.26483  -0.25656
 Alpha  occ. eigenvalues --   -0.23350  -0.22325
 Alpha virt. eigenvalues --   -0.07218  -0.06058  -0.00884   0.00261   0.01796
 Alpha virt. eigenvalues --    0.02406   0.03563   0.04238   0.04687   0.05977
 Alpha virt. eigenvalues --    0.06730   0.06880   0.07687   0.08027   0.08597

 Mulliken charges:
               1
     1  Mg   0.966223
     2  C   -0.023828
     3  C   -0.063272
     4  C   -0.092180
     5  C   -0.100944
     6  N   -0.282692
     7  C   -0.034191
     8  C    0.018349
     9  C   -0.119771
    10  C   -0.008019
    11  C    0.015408
    12  C    0.017621
    13  C   -0.125672
    14  H    0.021987
    15  N   -0.499516
    16  C    0.163185
    17  C   -0.190064
    18  C   -0.055659
    19  C    0.215425
    20  C    0.096957
    21  C    0.017833
    22  O   -0.245675
    23  C    0.019954
    24  N   -0.384830
    25  C    0.048480
    26  C   -0.125786
    27  C   -0.090054
    28  C    0.045146
    29  C    0.037744
    30  C   -0.003815
    31  C   -0.042765
    32  N   -0.423384
    33  C    0.155235
    34  C   -0.159517
    35  C   -0.021116
    36  C    0.159214
    37  C    0.093578
    38  C    0.074420
    39  O   -0.216540
    40  C   -0.098822
    41  C    0.286790
    42  O   -0.257165
    43  O   -0.417704
    44  C    0.139068
    45  H   -0.001315
    46  H   -0.023593
    47  H   -0.001793
    48  H    0.034541
    49  H    0.044223
    50  H    0.048478
    51  H    0.036586
    52  H    0.049502
    53  H    0.048469
    54  H    0.043913
    55  H    0.057025
    56  H    0.052549
    57  H    0.068349
    58  H    0.069355
    59  H    0.030860
    60  H    0.075528
    61  H    0.064059
    62  H    0.054942
    63  H    0.035972
    64  H    0.020041
    65  H    0.037931
    66  H    0.042325
    67  H    0.042244
    68  H    0.028916
    69  H    0.036368
    70  H    0.015467
    71  H    0.040261
    72  H    0.050315
    73  H    0.034170
    74  H    0.047950
    75  H    0.062789
    76  H    0.071798
    77  H    0.050901
    78  H    0.068703
    79  H    0.052535
    80  Mg   0.992843
    81  C    0.010908
    82  C   -0.117504
    83  C   -0.081069
    84  C   -0.116970
    85  N   -0.330563
    86  C   -0.016932
    87  C   -0.037136
    88  C   -0.154093
    89  C    0.076435
    90  C    0.047298
    91  C    0.007277
    92  C   -0.126151
    93  H    0.026706
    94  N   -0.509753
    95  C    0.179871
    96  C   -0.131168
    97  C   -0.119647
    98  C    0.182799
    99  C    0.046023
   100  C    0.071514
   101  O   -0.202048
   102  C   -0.025010
   103  N   -0.321430
   104  C    0.020804
   105  C   -0.086043
   106  C   -0.050077
   107  C   -0.008208
   108  C    0.024245
   109  C   -0.010706
   110  C   -0.046750
   111  N   -0.398654
   112  C    0.159567
   113  C   -0.187113
   114  C    0.034826
   115  C    0.091722
   116  C    0.104703
   117  C    0.050608
   118  O   -0.214458
   119  C   -0.074728
   120  C    0.264649
   121  O   -0.268156
   122  O   -0.355866
   123  C    0.151804
   124  H   -0.008056
   125  H    0.016418
   126  H   -0.010722
   127  H    0.043189
   128  H    0.031995
   129  H    0.045822
   130  H    0.039048
   131  H    0.045988
   132  H    0.033262
   133  H    0.041000
   134  H    0.049107
   135  H    0.062358
   136  H    0.060913
   137  H    0.029976
   138  H    0.066726
   139  H    0.061575
   140  H    0.069514
   141  H    0.047941
   142  H    0.034966
   143  H    0.029096
   144  H    0.038371
   145  H    0.025837
   146  H    0.050106
   147  H    0.032121
   148  H    0.032199
   149  H    0.028626
   150  H    0.041022
   151  H    0.043799
   152  H    0.059334
   153  H    0.063814
   154  H    0.019577
   155  H    0.072592
   156  H    0.061419
   157  H    0.057149
   158  H    0.029551
 Sum of Mulliken charges =  -0.00000

 Dipole moment (field-independent basis, Debye):
    X=              9.6144    Y=              2.9850    Z=             -2.1739  Tot=             10.2992
 Quadrupole moment (field-independent basis, Debye-Ang):
   XX=           -477.0721   YY=           -535.8026   ZZ=           -476.5241
   XY=            -81.5770   XZ=             57.8641   YZ=             12.9676

 Normal termination of Gaussian 16 at Mon Sep 20 05:01:07 2021.
