 Gaussian 16, Revision A.03,
 Gaussian 16:  ES64L-G16RevA.03 25-Dec-2016

 --------------------------------
 #p wB97XD/Def2SVP td=(nstates=5)
 --------------------------------

 --------------------------------
 TDDFT excited states in gaussian
 --------------------------------
 Symbolic Z-matrix:
 Charge =  0 Multiplicity = 1

                         Standard orientation:
 ---------------------------------------------------------------------
 Center     Atomic      Atomic             Coordinates (Angstroms)
 Number     Number       Type             X           Y           Z
 ---------------------------------------------------------------------
      1         12           0       -0.669162    0.111640   -0.344415
      2          6           0        2.743321    0.356243    0.259134
      3          6           0       -0.245904   -3.423484    0.023412
      4          6           0       -3.936369   -0.244209   -0.407755
      5          6           0       -0.913674    3.595635    0.055226
      6          7           0        1.033569   -1.323268    0.209713
      7          6           0        2.353862   -0.945705    0.309955
      8          6           0        3.229622   -2.166085    0.606582
      9          6           0        2.274558   -3.336075    0.241610
     10          6           0        0.917207   -2.685589    0.188976
     11          6           0        2.541746   -4.140034   -1.091069
     12          6           0        3.727223   -2.212512    2.060627
     13          6           0        4.714353   -3.273108    2.366995
     14          1           0        5.632847   -3.056432    3.629737
     15          7           0       -1.955933   -1.607718   -0.199128
     16          6           0       -1.589661   -2.957542   -0.081153
     17          6           0       -2.790975   -3.744815   -0.068964
     18          6           0       -3.897632   -2.817852   -0.056130
     19          6           0       -3.271122   -1.465018   -0.252861
     20          6           0       -2.786758   -5.290407    0.089222
     21          6           0       -5.356864   -3.272448    0.048655
     22          8           0       -5.672538   -4.448665   -0.021162
     23          6           0       -6.415110   -2.252536    0.231365
     24          7           0       -2.181710    1.516891   -0.417363
     25          6           0       -3.450941    1.100838   -0.483900
     26          6           0       -4.426364    2.339914   -0.353539
     27          6           0       -3.499823    3.599118   -0.145862
     28          6           0       -2.057703    2.850042   -0.112493
     29          6           0       -5.510217    2.517918   -1.449090
     30          6           0       -3.821380    4.283018    1.200200
     31          6           0       -3.565493    5.794452    1.242445
     32          7           0        0.603424    1.729464    0.071168
     33          6           0        0.399997    3.081017    0.078432
     34          6           0        1.704824    3.745995    0.176941
     35          6           0        2.622189    2.729960    0.154741
     36          6           0        1.941819    1.533414    0.159006
     37          6           0        1.951504    5.257842    0.148277
     38          6           0        4.023279    2.441886    0.222508
     39          8           0        4.995508    3.155337    0.256286
     40          6           0        4.160943    0.883689    0.278327
     41          6           0        4.873331    0.452029   -0.955618
     42          8           0        4.622411    0.765975   -2.086072
     43          8           0        5.827729   -0.518053   -0.603492
     44          6           0        6.552774   -1.100672   -1.696564
     45          1           0       -0.001282   -4.486830    0.054801
     46          1           0       -5.027014   -0.205273   -0.456228
     47          1           0       -0.945563    4.685784    0.112368
     48          1           0        4.028619   -2.143678   -0.133261
     49          1           0        2.153319   -4.106705    1.002077
     50          1           0        2.546957   -5.181818   -0.771212
     51          1           0        3.279582   -3.741194   -1.787737
     52          1           0        1.632451   -4.054601   -1.685854
     53          1           0        2.968531   -2.435276    2.811360
     54          1           0        4.142724   -1.244180    2.339757
     55          1           0        5.336431   -3.384800    1.478939
     56          1           0        4.189476   -4.222795    2.468955
     57          1           0       -3.111090   -5.317425    1.129990
     58          1           0       -1.806024   -5.765976    0.111768
     59          1           0       -3.394729   -5.959635   -0.519831
     60          1           0       -6.056766   -1.631657    1.052453
     61          1           0       -7.321733   -2.755256    0.568514
     62          1           0       -6.448223   -1.748205   -0.734689
     63          1           0       -4.998994    2.160799    0.556907
     64          1           0       -3.511934    4.323547   -0.959586
     65          1           0       -6.473044    2.243633   -1.016835
     66          1           0       -5.212874    1.944689   -2.326584
     67          1           0       -5.621015    3.575628   -1.687904
     68          1           0       -3.200663    3.763805    1.929983
     69          1           0       -4.829642    4.090473    1.567400
     70          1           0       -4.540152    6.197058    1.520340
     71          1           0       -3.156476    6.211701    0.322192
     72          1           0       -2.883207    6.039446    2.056517
     73          1           0        2.664247    5.646150    0.875065
     74          1           0        0.945244    5.649262    0.299577
     75          1           0        2.140030    5.509476   -0.895508
     76          1           0        4.743259    0.661262    1.172575
     77          1           0        7.571105   -0.718101   -1.627094
     78          1           0        6.193575   -0.955850   -2.715721
     79          1           0        6.542280   -2.180559   -1.551299
 ---------------------------------------------------------------------

 SCF Done:  E(RwB97XD) =  -2035.30914563     A.U. after   19 cycles

 Excitation energies and oscillator strengths:

 Excited State   1:      Singlet-A      1.7222 eV  719.91 nm  f=0.3942  <S**2>=0.000
     155 ->158        -0.17630
     156 ->157         0.68546
     155 <-158        -0.11115
 This state for optimization and/or second-order correction.
 Total Energy, E(TD-HF/TD-DFT) =  -2035.24585487
 Copying the excited state density for this state as the 1-particle RhoCI density.

 Excited State   2:      Singlet-A      2.2424 eV  552.90 nm  f=0.1147  <S**2>=0.000
     155 ->157         0.63519
     156 ->158         0.29254

 Excited State   3:      Singlet-A      3.2984 eV  375.89 nm  f=0.0028  <S**2>=0.000
     151 ->157         0.12847
     153 ->157        -0.40106
     154 ->157         0.52921
     156 ->158         0.11720

 Excited State   4:      Singlet-A      3.5443 eV  349.81 nm  f=0.0001  <S**2>=0.000
     151 ->157         0.54363
     151 ->158         0.12204
     151 ->159        -0.24193
     151 ->160        -0.17220
     153 ->157         0.20035

 Excited State   5:      Singlet-A      3.5982 eV  344.57 nm  f=0.1233  <S**2>=0.000
     151 ->157        -0.16619
     153 ->157         0.37630
     154 ->157         0.37808
     155 ->157         0.12131
     156 ->158        -0.35088

 The electronic state is 1-A.
 Alpha  occ. eigenvalues --  -46.96012 -19.30181 -19.25412 -19.23764 -19.23534
 Alpha  occ. eigenvalues --  -14.47237 -14.46979 -14.44871 -14.43659 -10.43342
 Alpha  occ. eigenvalues --  -10.38867 -10.38122 -10.36458 -10.35724 -10.35344
 Alpha  occ. eigenvalues --  -10.35201 -10.35064 -10.34959 -10.34554 -10.33800
 Alpha  occ. eigenvalues --  -10.33169 -10.32558 -10.32334 -10.32281 -10.32279
 Alpha  occ. eigenvalues --  -10.32252 -10.32246 -10.32022 -10.31954 -10.31910
 Alpha  occ. eigenvalues --  -10.31776 -10.31619 -10.31441 -10.30898 -10.30717
 Alpha  occ. eigenvalues --  -10.30502 -10.30404 -10.30334 -10.30153 -10.29989
 Alpha  occ. eigenvalues --  -10.29879 -10.29438 -10.27936  -3.21891  -1.95482
 Alpha  occ. eigenvalues --   -1.95015  -1.94844  -1.18769  -1.12535  -1.12385
 Alpha  occ. eigenvalues --   -1.11027  -1.06603  -1.05845  -1.05741  -1.04873
 Alpha  occ. eigenvalues --   -0.95225  -0.91292  -0.91188  -0.90715  -0.90024
 Alpha  occ. eigenvalues --   -0.88429  -0.87907  -0.87156  -0.85924  -0.85093
 Alpha  occ. eigenvalues --   -0.84531  -0.83247  -0.82831  -0.79720  -0.79271
 Alpha  occ. eigenvalues --   -0.79074  -0.78137  -0.77500  -0.75216  -0.74042
 Alpha  occ. eigenvalues --   -0.71317  -0.70990  -0.69762  -0.68767  -0.67997
 Alpha  occ. eigenvalues --   -0.67562  -0.66973  -0.66622  -0.64676  -0.62314
 Alpha  occ. eigenvalues --   -0.61881  -0.61300  -0.60795  -0.60455  -0.59572
 Alpha  occ. eigenvalues --   -0.58504  -0.57838  -0.57457  -0.56838  -0.56324
 Alpha  occ. eigenvalues --   -0.55953  -0.55530  -0.55283  -0.55110  -0.54582
 Alpha  occ. eigenvalues --   -0.53856  -0.53664  -0.53620  -0.52814  -0.52657
 Alpha  occ. eigenvalues --   -0.52307  -0.52207  -0.51802  -0.51250  -0.50974
 Alpha  occ. eigenvalues --   -0.50835  -0.50250  -0.50071  -0.49488  -0.49337
 Alpha  occ. eigenvalues --   -0.49090  -0.48994  -0.48422  -0.48341  -0.48087
 Alpha  occ. eigenvalues --   -0.47789  -0.47306  -0.47030  -0.46646  -0.46087
 Alpha  occ. eigenvalues --   -0.45872  -0.45652  -0.45296  -0.45167  -0.44887
 Alpha  occ. eigenvalues --   -0.44643  -0.44341  -0.44245  -0.44097  -0.43828
 Alpha  occ. eigenvalues --   -0.43416  -0.42498  -0.42160  -0.41801  -0.41606
 Alpha  occ. eigenvalues --   -0.40739  -0.40127  -0.39670  -0.38900  -0.38537
 Alpha  occ. eigenvalues --   -0.38031  -0.37205  -0.36279  -0.35928  -0.33997
 Alpha  occ. eigenvalues --   -0.33063  -0.32616  -0.32268  -0.32131  -0.26617
 Alpha  occ. eigenvalues --   -0.23491
 Alpha virt. eigenvalues --   -0.07380  -0.00032   0.02981   0.04820   0.05200
 Alpha virt. eigenvalues --    0.06947   0.07576   0.08525   0.09144   0.10517
 Alpha virt. eigenvalues --    0.11404   0.11615   0.12400   0.12693   0.13138

 Mulliken charges:
               1
     1  Mg   0.953672
     2  C   -0.018549
     3  C   -0.078123
     4  C   -0.102395
     5  C   -0.070944
     6  N   -0.331703
     7  C   -0.062217
     8  C    0.031534
     9  C   -0.153739
    10  C    0.038863
    11  C    0.036044
    12  C    0.038131
    13  C   -0.109487
    14  H    0.041405
    15  N   -0.434397
    16  C    0.181797
    17  C   -0.135685
    18  C   -0.121064
    19  C    0.236187
    20  C    0.062986
    21  C    0.024965
    22  O   -0.229584
    23  C    0.001899
    24  N   -0.396419
    25  C    0.068657
    26  C   -0.119402
    27  C   -0.096968
    28  C    0.094304
    29  C    0.022082
    30  C   -0.030771
    31  C   -0.043172
    32  N   -0.425056
    33  C    0.086231
    34  C   -0.233663
    35  C    0.018460
    36  C    0.142440
    37  C    0.107339
    38  C    0.094473
    39  O   -0.186559
    40  C   -0.073869
    41  C    0.260022
    42  O   -0.213117
    43  O   -0.378405
    44  C    0.124747
    45  H   -0.006382
    46  H   -0.019635
    47  H   -0.005970
    48  H    0.020838
    49  H    0.031364
    50  H    0.043441
    51  H    0.049286
    52  H    0.029125
    53  H    0.029823
    54  H    0.035492
    55  H    0.036440
    56  H    0.039789
    57  H    0.058587
    58  H    0.019599
    59  H    0.074516
    60  H    0.052436
    61  H    0.058033
    62  H    0.079001
    63  H    0.040399
    64  H    0.042195
    65  H    0.035906
    66  H    0.050035
    67  H    0.035385
    68  H    0.033115
    69  H    0.030003
    70  H    0.038276
    71  H    0.042321
    72  H    0.038966
    73  H    0.070610
    74  H    0.005433
    75  H    0.058175
    76  H    0.072885
    77  H    0.057134
    78  H    0.062219
    79  H    0.040214
 Sum of Mulliken charges =  -0.00000

 Dipole moment (field-independent basis, Debye):
    X=             -2.8780    Y=             -0.8035    Z=              0.0685  Tot=              2.9888
 Quadrupole moment (field-independent basis, Debye-Ang):
   XX=           -265.3046   YY=           -252.7455   ZZ=           -256.9770
   XY=            -49.0339   XZ=             -3.5853   YZ=              2.6161

 Normal termination of Gaussian 16 at Mon Sep 20 18:18:23 2021.
