 Gaussian 16, Revision A.03,
 Gaussian 16:  ES64L-G16RevA.03 25-Dec-2016

 --------------------------------
 #p wB97XD/Def2SVP td=(nstates=5)
 --------------------------------

 --------------------------------
 TDDFT excited states in gaussian
 --------------------------------
 Symbolic Z-matrix:
 Charge =  0 Multiplicity = 1

                         Standard orientation:
 ---------------------------------------------------------------------
 Center     Atomic      Atomic             Coordinates (Angstroms)
 Number     Number       Type             X           Y           Z
 ---------------------------------------------------------------------
      1         12           0       -4.810529   -0.590883    0.057605
      2          6           0       -2.728018    1.909211    1.314905
      3          6           0       -7.145875    1.684592   -0.609664
      4          6           0       -7.116787   -3.112164    0.154653
      5          6           0       -2.355048   -2.941162    0.821196
      6          7           0       -4.854874    1.603838    0.174475
      7          6           0       -3.906603    2.375243    0.692071
      8          6           0       -4.292607    3.881312    0.462935
      9          6           0       -5.749182    3.769749   -0.047620
     10          6           0       -5.966628    2.263453   -0.155702
     11          6           0       -6.850160    4.319868    0.988600
     12          6           0       -3.363626    4.673042   -0.565406
     13          6           0       -3.054586    6.054851   -0.100643
     14          1           0       -3.285643    7.230010   -1.038115
     15          7           0       -6.843311   -0.683024   -0.218979
     16          6           0       -7.648679    0.384806   -0.514475
     17          6           0       -8.952952   -0.122173   -0.963233
     18          6           0       -8.930867   -1.526242   -0.733843
     19          6           0       -7.591213   -1.808463   -0.192104
     20          6           0      -10.111058    0.808418   -1.445758
     21          6           0      -10.079956   -2.562042   -0.922288
     22          8           0       -9.967213   -3.762774   -0.702320
     23          6           0      -11.384201   -2.068802   -1.424199
     24          7           0       -4.769681   -2.648418    0.450177
     25          6           0       -5.859631   -3.522327    0.505099
     26          6           0       -5.397118   -4.894057    1.062197
     27          6           0       -3.863201   -4.947679    0.641423
     28          6           0       -3.675246   -3.404111    0.627808
     29          6           0       -5.699312   -5.074313    2.565370
     30          6           0       -3.538127   -5.548921   -0.696420
     31          6           0       -3.734116   -4.770881   -1.963644
     32          7           0       -2.847975   -0.588256    0.701041
     33          6           0       -1.974265   -1.605440    1.008635
     34          6           0       -0.688724   -1.097020    1.492621
     35          6           0       -0.961114    0.323772    1.737655
     36          6           0       -2.302745    0.547265    1.237293
     37          6           0        0.454382   -1.883525    1.886020
     38          6           0       -0.430093    1.571464    2.273002
     39          8           0        0.566146    1.833105    2.835747
     40          6           0       -1.556801    2.681058    1.936158
     41          6           0       -1.916029    3.574197    3.096682
     42          8           0       -2.828891    3.370014    3.891457
     43          8           0       -1.104533    4.707386    3.051898
     44          6           0       -1.312200    5.736573    4.086668
     45          1           0       -7.943072    2.283663   -1.055498
     46          1           0       -7.910042   -3.862549    0.184302
     47          1           0       -1.599315   -3.718929    0.946376
     48          1           0       -4.331121    4.442439    1.396947
     49          1           0       -5.978243    4.295828   -0.974357
     50          1           0       -7.022995    5.366188    0.735902
     51          1           0       -6.541928    4.332513    2.033717
     52          1           0       -7.768791    3.753672    0.830441
     53          1           0       -3.831534    4.761498   -1.546025
     54          1           0       -2.412371    4.196434   -0.802596
     55          1           0       -1.973150    6.031778    0.030953
     56          1           0       -3.475634    6.380594    0.850106
     57          1           0      -10.685960    1.048733   -0.551862
     58          1           0      -10.694711    0.344573   -2.241294
     59          1           0       -9.792140    1.820130   -1.698669
     60          1           0      -11.812150   -1.128211   -1.077786
     61          1           0      -12.154669   -2.816165   -1.236283
     62          1           0      -11.404164   -2.155457   -2.510942
     63          1           0       -5.955678   -5.610287    0.460281
     64          1           0       -3.248254   -5.458615    1.382077
     65          1           0       -4.858511   -5.346369    3.203474
     66          1           0       -6.586409   -5.676234    2.763750
     67          1           0       -6.026720   -4.126611    2.992517
     68          1           0       -4.064230   -6.478811   -0.908931
     69          1           0       -2.485711   -5.832701   -0.682364
     70          1           0       -2.739467   -4.360345   -2.136600
     71          1           0       -4.417535   -3.923681   -1.902226
     72          1           0       -4.031978   -5.452447   -2.761071
     73          1           0        1.327984   -1.300926    1.593060
     74          1           0        0.426140   -2.803165    1.302110
     75          1           0        0.452748   -2.036943    2.964718
     76          1           0       -1.145562    3.321860    1.156173
     77          1           0       -1.263313    5.229973    5.050928
     78          1           0       -2.304844    6.177895    4.001207
     79          1           0       -0.644215    6.596847    4.132470
     80         12           0        4.921567   -0.680995   -0.614721
     81          6           0        2.708796    1.750729   -1.652182
     82          6           0        7.353444    1.935806   -0.357383
     83          6           0        7.207308   -2.913732    0.051191
     84          6           0        2.574300   -3.146417   -1.228914
     85          7           0        5.029385    1.604148   -1.190025
     86          6           0        3.946391    2.343834   -1.359981
     87          6           0        4.247888    3.844306   -1.085616
     88          6           0        5.808180    3.836031   -1.247998
     89          6           0        6.147752    2.374499   -0.914485
     90          6           0        6.261602    4.239872   -2.695947
     91          6           0        3.761757    4.122282    0.354251
     92          6           0        3.811929    5.582345    0.824493
     93          1           0        4.543706    6.623586    0.001618
     94          7           0        6.934858   -0.597371   -0.103264
     95          6           0        7.732686    0.595472   -0.022412
     96          6           0        9.002842    0.187454    0.562120
     97          6           0        8.922562   -1.222358    0.787359
     98          6           0        7.656915   -1.666946    0.205543
     99          6           0       10.184499    1.165727    0.915461
    100          6           0        9.964530   -2.118829    1.534481
    101          8           0        9.793935   -3.307135    1.527515
    102          6           0       11.154604   -1.507807    2.200161
    103          7           0        4.864877   -2.759761   -0.503586
    104          6           0        5.955129   -3.499243   -0.199003
    105          6           0        5.701285   -5.004732   -0.266521
    106          6           0        4.180539   -5.058920   -0.541179
    107          6           0        3.841970   -3.531166   -0.778595
    108          6           0        6.547985   -5.790972   -1.333703
    109          6           0        3.322702   -5.801983    0.450956
    110          6           0        3.476675   -5.577382    1.974576
    111          7           0        3.029189   -0.781866   -1.308112
    112          6           0        2.179717   -1.833275   -1.502092
    113          6           0        0.894294   -1.279928   -1.872691
    114          6           0        1.001144    0.152374   -1.927632
    115          6           0        2.359671    0.385070   -1.578689
    116          6           0       -0.322062   -2.104847   -2.156630
    117          6           0        0.351747    1.382155   -2.235244
    118          8           0       -0.800994    1.660376   -2.631616
    119          6           0        1.583684    2.438659   -2.314083
    120          6           0        1.061656    3.756049   -1.738268
    121          8           0        0.551302    3.888554   -0.692206
    122          8           0        1.256152    4.730324   -2.675594
    123          6           0        1.182322    6.111687   -2.246153
    124          1           0        8.105156    2.727220   -0.345598
    125          1           0        7.942409   -3.704156    0.216558
    126          1           0        1.795174   -3.875401   -1.458040
    127          1           0        3.827325    4.496569   -1.850839
    128          1           0        6.145625    4.521570   -0.470277
    129          1           0        6.646665    5.258759   -2.682517
    130          1           0        5.397311    4.144815   -3.353545
    131          1           0        7.087276    3.638727   -3.076824
    132          1           0        4.431559    3.590146    1.029251
    133          1           0        2.796071    3.660303    0.557204
    134          1           0        3.983753    5.682054    1.896471
    135          1           0        2.766898    5.892535    0.836532
    136          1           0       11.138848    0.826632    0.511464
    137          1           0       10.179652    1.247242    2.002279
    138          1           0        9.941974    2.169576    0.564711
    139          1           0       11.353022   -2.222894    2.998833
    140          1           0       10.918130   -0.575251    2.711252
    141          1           0       11.988714   -1.130800    1.608423
    142          1           0        5.944647   -5.374292    0.729371
    143          1           0        3.939663   -5.470130   -1.521452
    144          1           0        5.890786   -6.577494   -1.703656
    145          1           0        7.359613   -6.196656   -0.729373
    146          1           0        6.970996   -5.103767   -2.066378
    147          1           0        3.749968   -6.799627    0.355435
    148          1           0        2.246480   -5.819119    0.275805
    149          1           0        3.777146   -6.422373    2.592681
    150          1           0        2.517834   -5.352478    2.441577
    151          1           0        4.215888   -4.795078    2.147426
    152          1           0       -1.090494   -1.395076   -2.461633
    153          1           0       -0.674761   -2.577348   -1.238888
    154          1           0       -0.169770   -2.941690   -2.837610
    155          1           0        1.848069    2.476984   -3.371042
    156          1           0        0.449980    6.339137   -3.020909
    157          1           0        2.146202    6.620942   -2.233937
    158          1           0        0.710329    6.257164   -1.274125
 ---------------------------------------------------------------------

 SCF Done:  E(RwB97XD) =  -4070.63825509     A.U. after   20 cycles

 Excitation energies and oscillator strengths:

 Excited State   1:      Singlet-A      1.5854 eV  782.02 nm  f=0.8227  <S**2>=0.000
     310 -> 316        0.14510
     311 -> 313        0.32260
     312 -> 313       -0.19810
     312 -> 314        0.56324
 This state for optimization and/or second-order correction.
 Total Energy, E(TD-HF/TD-DFT) =  -4070.57999128
 Copying the excited state density for this state as the 1-particle RhoCI density.

 Excited State   2:      Singlet-A      1.6790 eV  738.44 nm  f=0.0595  <S**2>=0.000
     309 -> 315       -0.17463
     311 -> 313        0.57948
     311 -> 314        0.10069
     312 -> 314       -0.33487
     309 <- 315       -0.10372

 Excited State   3:      Singlet-A      2.1461 eV  577.72 nm  f=0.0167  <S**2>=0.000
     309 -> 313        0.52978
     309 -> 314        0.15407
     310 -> 313        0.18509
     310 -> 314       -0.25616
     311 -> 315        0.25847
     312 -> 316        0.12494

 Excited State   4:      Singlet-A      2.1910 eV  565.88 nm  f=0.1399  <S**2>=0.000
     309 -> 313        0.30276
     310 -> 313       -0.10908
     310 -> 314        0.53970
     311 -> 315        0.14687
     312 -> 316       -0.26577

 Excited State   5:      Singlet-A      2.4126 eV  513.89 nm  f=0.0025  <S**2>=0.000
     312 -> 313        0.66101
     312 -> 314        0.19505

 The electronic state is 1-A.
 Alpha  occ. eigenvalues --  -46.94618 -46.93520 -19.30169 -19.29563 -19.26055
 Alpha  occ. eigenvalues --  -19.24436 -19.24274 -19.24082 -19.24012 -19.23664
 Alpha  occ. eigenvalues --  -14.46345 -14.46318 -14.46010 -14.45351 -14.43977
 Alpha  occ. eigenvalues --  -14.43919 -14.43149 -14.43141 -10.43446 -10.42738
 Alpha  occ. eigenvalues --  -10.39402 -10.39211 -10.39079 -10.38737 -10.35579
 Alpha  occ. eigenvalues --  -10.35092 -10.34754 -10.34701 -10.34646 -10.34519
 Alpha  occ. eigenvalues --  -10.34471 -10.34360 -10.34094 -10.33785 -10.33724
 Alpha  occ. eigenvalues --  -10.33440 -10.33428 -10.33249 -10.33166 -10.33002
 Alpha  occ. eigenvalues --  -10.32834 -10.32702 -10.32682 -10.32609 -10.32488
 Alpha  occ. eigenvalues --  -10.32297 -10.32143 -10.32077 -10.32065 -10.31876
 Alpha  occ. eigenvalues --  -10.31801 -10.31794 -10.31715 -10.31712 -10.31578
 Alpha  occ. eigenvalues --  -10.31536 -10.31395 -10.31355 -10.31291 -10.31242
 Alpha  occ. eigenvalues --  -10.31175 -10.31107 -10.30935 -10.30681 -10.30558
 Alpha  occ. eigenvalues --  -10.30537 -10.30525 -10.30367 -10.30191 -10.30113
 Alpha  occ. eigenvalues --  -10.30086 -10.30042 -10.29883 -10.29565 -10.29446
 Alpha  occ. eigenvalues --  -10.29442 -10.29434 -10.29434 -10.29255 -10.29223
 Alpha  occ. eigenvalues --  -10.29189 -10.29113 -10.29003 -10.28979 -10.28736
 Alpha  occ. eigenvalues --  -10.28123  -3.20688  -3.19639  -1.94278  -1.93831
 Alpha  occ. eigenvalues --   -1.93649  -1.93234  -1.92742  -1.92644  -1.20454
 Alpha  occ. eigenvalues --   -1.16599  -1.14445  -1.13711  -1.12668  -1.11837
 Alpha  occ. eigenvalues --   -1.10574  -1.08928  -1.07284  -1.06362  -1.06096
 Alpha  occ. eigenvalues --   -1.05152  -1.04944  -1.04203  -1.04122  -1.03485
 Alpha  occ. eigenvalues --   -0.95173  -0.92948  -0.91307  -0.90649  -0.90492
 Alpha  occ. eigenvalues --   -0.90267  -0.89526  -0.89277  -0.89227  -0.88550
 Alpha  occ. eigenvalues --   -0.88343  -0.88181  -0.87633  -0.87592  -0.86057
 Alpha  occ. eigenvalues --   -0.85677  -0.85355  -0.84931  -0.84377  -0.83677
 Alpha  occ. eigenvalues --   -0.83630  -0.83537  -0.83224  -0.82305  -0.82284
 Alpha  occ. eigenvalues --   -0.81665  -0.79952  -0.79583  -0.79356  -0.78729
 Alpha  occ. eigenvalues --   -0.78644  -0.77966  -0.77952  -0.77467  -0.77058
 Alpha  occ. eigenvalues --   -0.76135  -0.74686  -0.74040  -0.73578  -0.72792
 Alpha  occ. eigenvalues --   -0.72264  -0.70899  -0.70728  -0.70007  -0.69825
 Alpha  occ. eigenvalues --   -0.68820  -0.68213  -0.67921  -0.67159  -0.66928
 Alpha  occ. eigenvalues --   -0.66792  -0.66433  -0.66133  -0.65914  -0.65622
 Alpha  occ. eigenvalues --   -0.65495  -0.64664  -0.63143  -0.62516  -0.61729
 Alpha  occ. eigenvalues --   -0.61538  -0.61131  -0.61010  -0.60731  -0.60296
 Alpha  occ. eigenvalues --   -0.60153  -0.60045  -0.59466  -0.59094  -0.58584
 Alpha  occ. eigenvalues --   -0.58312  -0.58143  -0.57679  -0.57438  -0.57217
 Alpha  occ. eigenvalues --   -0.56877  -0.56708  -0.56542  -0.56259  -0.55857
 Alpha  occ. eigenvalues --   -0.55430  -0.55386  -0.55006  -0.54958  -0.54534
 Alpha  occ. eigenvalues --   -0.54432  -0.54297  -0.54220  -0.54131  -0.53897
 Alpha  occ. eigenvalues --   -0.53828  -0.53442  -0.53310  -0.53092  -0.52752
 Alpha  occ. eigenvalues --   -0.52701  -0.52381  -0.52220  -0.52116  -0.51932
 Alpha  occ. eigenvalues --   -0.51751  -0.51702  -0.51585  -0.51461  -0.51392
 Alpha  occ. eigenvalues --   -0.51280  -0.51180  -0.50951  -0.50764  -0.50691
 Alpha  occ. eigenvalues --   -0.50620  -0.50280  -0.50082  -0.49935  -0.49909
 Alpha  occ. eigenvalues --   -0.49733  -0.49561  -0.49390  -0.49059  -0.48803
 Alpha  occ. eigenvalues --   -0.48629  -0.48438  -0.48349  -0.48143  -0.47894
 Alpha  occ. eigenvalues --   -0.47848  -0.47798  -0.47569  -0.47457  -0.47356
 Alpha  occ. eigenvalues --   -0.47333  -0.47116  -0.46897  -0.46726  -0.46687
 Alpha  occ. eigenvalues --   -0.46393  -0.46044  -0.45900  -0.45766  -0.45749
 Alpha  occ. eigenvalues --   -0.45360  -0.45270  -0.45261  -0.45041  -0.44987
 Alpha  occ. eigenvalues --   -0.44935  -0.44672  -0.44618  -0.44505  -0.44400
 Alpha  occ. eigenvalues --   -0.44181  -0.44109  -0.44008  -0.43975  -0.43893
 Alpha  occ. eigenvalues --   -0.43702  -0.43272  -0.43111  -0.42952  -0.42897
 Alpha  occ. eigenvalues --   -0.42872  -0.42811  -0.42524  -0.42070  -0.41901
 Alpha  occ. eigenvalues --   -0.41426  -0.41356  -0.41258  -0.40571  -0.40372
 Alpha  occ. eigenvalues --   -0.39884  -0.39692  -0.39642  -0.39405  -0.39228
 Alpha  occ. eigenvalues --   -0.38877  -0.38689  -0.38200  -0.37943  -0.37910
 Alpha  occ. eigenvalues --   -0.37803  -0.37666  -0.37073  -0.36036  -0.35678
 Alpha  occ. eigenvalues --   -0.35653  -0.35567  -0.34347  -0.33732  -0.33138
 Alpha  occ. eigenvalues --   -0.32818  -0.32652  -0.32636  -0.32363  -0.32072
 Alpha  occ. eigenvalues --   -0.31538  -0.31497  -0.30942  -0.25805  -0.25142
 Alpha  occ. eigenvalues --   -0.22928  -0.21913
 Alpha virt. eigenvalues --   -0.06902  -0.06100  -0.00024   0.01234   0.02100
 Alpha virt. eigenvalues --    0.03152   0.04630   0.05269   0.06221   0.06936
 Alpha virt. eigenvalues --    0.07370   0.07651   0.08258   0.08457   0.08776

 Mulliken charges:
               1
     1  Mg   0.984418
     2  C    0.025521
     3  C   -0.087512
     4  C   -0.085305
     5  C   -0.101738
     6  N   -0.316437
     7  C    0.019295
     8  C   -0.045750
     9  C   -0.126602
    10  C    0.105540
    11  C   -0.004728
    12  C    0.027744
    13  C   -0.150132
    14  H    0.014365
    15  N   -0.452580
    16  C    0.110050
    17  C   -0.155407
    18  C   -0.104723
    19  C    0.123988
    20  C    0.045921
    21  C    0.083995
    22  O   -0.234677
    23  C   -0.022467
    24  N   -0.365439
    25  C    0.052242
    26  C   -0.052652
    27  C   -0.058837
    28  C    0.045922
    29  C    0.045204
    30  C   -0.024676
    31  C   -0.034616
    32  N   -0.448161
    33  C    0.149054
    34  C   -0.170432
    35  C   -0.083275
    36  C    0.122183
    37  C    0.090372
    38  C    0.145237
    39  O   -0.151928
    40  C   -0.143616
    41  C    0.276255
    42  O   -0.252286
    43  O   -0.380125
    44  C    0.148120
    45  H   -0.013860
    46  H    0.019541
    47  H   -0.016841
    48  H    0.039793
    49  H    0.043508
    50  H    0.029440
    51  H    0.049700
    52  H    0.036073
    53  H    0.036991
    54  H    0.054823
    55  H    0.057115
    56  H    0.046592
    57  H    0.056373
    58  H    0.062389
    59  H    0.032496
    60  H    0.058681
    61  H    0.037035
    62  H    0.061768
    63  H    0.023108
    64  H    0.021119
    65  H    0.037379
    66  H    0.043389
    67  H    0.032571
    68  H    0.025702
    69  H    0.017140
    70  H    0.025015
    71  H    0.055874
    72  H    0.038877
    73  H    0.063450
    74  H    0.025354
    75  H    0.070033
    76  H    0.095753
    77  H    0.052044
    78  H    0.040153
    79  H    0.056884
    80  Mg   0.966184
    81  C   -0.022787
    82  C   -0.075659
    83  C   -0.087716
    84  C   -0.118912
    85  N   -0.289012
    86  C   -0.033844
    87  C   -0.086953
    88  C   -0.089574
    89  C    0.021064
    90  C    0.040493
    91  C   -0.003207
    92  C   -0.088907
    93  H    0.039018
    94  N   -0.479205
    95  C    0.176981
    96  C   -0.189117
    97  C   -0.080584
    98  C    0.189416
    99  C    0.062472
   100  C    0.065540
   101  O   -0.213608
   102  C   -0.007767
   103  N   -0.341786
   104  C    0.015591
   105  C   -0.100154
   106  C   -0.052620
   107  C    0.090718
   108  C    0.035510
   109  C   -0.009729
   110  C   -0.072466
   111  N   -0.487137
   112  C    0.138947
   113  C   -0.189509
   114  C   -0.020509
   115  C    0.181913
   116  C    0.091176
   117  C    0.150743
   118  O   -0.237688
   119  C   -0.148607
   120  C    0.249481
   121  O   -0.184109
   122  O   -0.365584
   123  C    0.106385
   124  H    0.004070
   125  H    0.009755
   126  H   -0.008097
   127  H    0.016970
   128  H    0.023978
   129  H    0.039867
   130  H    0.042943
   131  H    0.040076
   132  H    0.029488
   133  H    0.076872
   134  H    0.045635
   135  H    0.038032
   136  H    0.058951
   137  H    0.058671
   138  H    0.030481
   139  H    0.058528
   140  H    0.021204
   141  H    0.069266
   142  H    0.048336
   143  H    0.031132
   144  H    0.046192
   145  H    0.048227
   146  H    0.054387
   147  H    0.029701
   148  H    0.036712
   149  H    0.033390
   150  H    0.031633
   151  H    0.041275
   152  H    0.062155
   153  H    0.024147
   154  H    0.044735
   155  H    0.086103
   156  H    0.070309
   157  H    0.065587
   158  H    0.067620
 Sum of Mulliken charges =  -0.00000

 Dipole moment (field-independent basis, Debye):
    X=              3.7337    Y=              3.0056    Z=             -1.8973  Tot=              5.1550
 Quadrupole moment (field-independent basis, Debye-Ang):
   XX=           -481.9203   YY=           -461.8618   ZZ=           -518.8352
   XY=              1.6559   XZ=             12.3146   YZ=             -0.3102

 Normal termination of Gaussian 16 at Sat Sep 18 19:19:29 2021.
