 Gaussian 16, Revision A.03,
 Gaussian 16:  ES64L-G16RevA.03 25-Dec-2016

 --------------------------------
 #p wB97XD/Def2SVP td=(nstates=5)
 --------------------------------

 --------------------------------
 TDDFT excited states in gaussian
 --------------------------------
 Symbolic Z-matrix:
 Charge =  0 Multiplicity = 1

                         Standard orientation:
 ---------------------------------------------------------------------
 Center     Atomic      Atomic             Coordinates (Angstroms)
 Number     Number       Type             X           Y           Z
 ---------------------------------------------------------------------
      1         12           0       -0.698684    0.104617    0.126591
      2          6           0        2.722280    0.309396    0.284228
      3          6           0       -0.427539   -3.312761    0.052844
      4          6           0       -4.148732   -0.119959   -0.147061
      5          6           0       -0.890924    3.546606   -0.242352
      6          7           0        0.977712   -1.386847    0.112517
      7          6           0        2.281602   -1.015176    0.277317
      8          6           0        3.149566   -2.176584    0.351772
      9          6           0        2.252036   -3.372497    0.075635
     10          6           0        0.817194   -2.685825    0.037185
     11          6           0        2.530607   -4.247384   -1.195156
     12          6           0        3.900527   -2.252016    1.724688
     13          6           0        5.341676   -2.869253    1.715799
     14          1           0        5.652721   -3.916259    0.628295
     15          7           0       -2.082430   -1.527224    0.090337
     16          6           0       -1.737616   -2.867935    0.086265
     17          6           0       -2.971521   -3.677879    0.031941
     18          6           0       -4.092085   -2.741260   -0.021692
     19          6           0       -3.479019   -1.401723   -0.003980
     20          6           0       -3.007881   -5.196979   -0.004546
     21          6           0       -5.566873   -3.064711    0.034790
     22          8           0       -6.388907   -2.131914    0.059072
     23          6           0       -6.132554   -4.435488    0.029028
     24          7           0       -2.301452    1.496159   -0.232932
     25          6           0       -3.591745    1.149411   -0.240878
     26          6           0       -4.491093    2.395840   -0.288960
     27          6           0       -3.471969    3.641456   -0.064113
     28          6           0       -2.128881    2.830662   -0.102811
     29          6           0       -5.312509    2.453386   -1.613699
     30          6           0       -3.622832    4.393454    1.286646
     31          6           0       -4.153975    5.831639    1.192322
     32          7           0        0.623417    1.663423   -0.036040
     33          6           0        0.411930    3.034314   -0.200233
     34          6           0        1.706869    3.749977   -0.226698
     35          6           0        2.613949    2.677907   -0.054378
     36          6           0        1.913630    1.446001    0.045637
     37          6           0        1.949047    5.174773   -0.330687
     38          6           0        4.042661    2.369117    0.161444
     39          8           0        5.007806    3.079522    0.259229
     40          6           0        4.158381    0.813923    0.344900
     41          6           0        5.142000    0.303503   -0.623467
     42          8           0        4.866889    0.262552   -1.833494
     43          8           0        6.268249   -0.226074   -0.071853
     44          6           0        7.204681   -0.937297   -0.936383
     45          1           0       -0.306630   -4.397854    0.032289
     46          1           0       -5.230096   -0.212289   -0.269812
     47          1           0       -1.007850    4.632176   -0.231488
     48          1           0        3.888406   -2.092558   -0.445941
     49          1           0        2.159179   -4.010463    0.955314
     50          1           0        3.364647   -4.039168   -1.866110
     51          1           0        1.627411   -4.246453   -1.804858
     52          1           0        2.624819   -5.311551   -0.977479
     53          1           0        3.265170   -2.742310    2.462372
     54          1           0        3.890436   -1.263662    2.183820
     55          1           0        5.559228   -3.322041    2.683555
     56          1           0        6.115655   -2.136470    1.489501
     57          1           0       -2.031363   -5.656163    0.145377
     58          1           0       -3.347439   -5.558083   -0.975729
     59          1           0       -3.542468   -5.578624    0.865135
     60          1           0       -7.207392   -4.323148    0.167930
     61          1           0       -5.718367   -5.081373    0.804331
     62          1           0       -5.846857   -4.941613   -0.893256
     63          1           0       -5.106881    2.373902    0.610258
     64          1           0       -3.479626    4.343070   -0.898174
     65          1           0       -6.375861    2.635966   -1.458053
     66          1           0       -5.234347    1.512801   -2.159626
     67          1           0       -4.816316    3.230218   -2.195927
     68          1           0       -2.691899    4.460799    1.848369
     69          1           0       -4.287996    3.867617    1.971945
     70          1           0       -4.784341    5.927931    0.308241
     71          1           0       -3.299232    6.497465    1.077438
     72          1           0       -4.620449    6.053460    2.151281
     73          1           0        2.943163    5.460425    0.012456
     74          1           0        1.222792    5.776597    0.215277
     75          1           0        2.027872    5.418132   -1.390345
     76          1           0        4.496172    0.754973    1.380118
     77          1           0        7.701226   -0.306811   -1.674473
     78          1           0        6.733831   -1.810883   -1.387114
     79          1           0        8.028551   -1.324239   -0.336906
 ---------------------------------------------------------------------

 SCF Done:  E(RwB97XD) =  -2035.34325969     A.U. after   20 cycles

 Excitation energies and oscillator strengths:

 Excited State   1:      Singlet-A      1.6696 eV  742.58 nm  f=0.3871  <S**2>=0.000
     155 ->158         0.19483
     156 ->157         0.68024
     155 <-158         0.11871
 This state for optimization and/or second-order correction.
 Total Energy, E(TD-HF/TD-DFT) =  -2035.28190145
 Copying the excited state density for this state as the 1-particle RhoCI density.

 Excited State   2:      Singlet-A      2.1969 eV  564.36 nm  f=0.0832  <S**2>=0.000
     155 ->157         0.62407
     156 ->158        -0.31820

 Excited State   3:      Singlet-A      3.4244 eV  362.06 nm  f=0.1930  <S**2>=0.000
     154 ->157         0.53342
     155 ->157         0.16253
     156 ->158         0.41053

 Excited State   4:      Singlet-A      3.5556 eV  348.70 nm  f=0.4146  <S**2>=0.000
     153 ->157        -0.29434
     154 ->157         0.40955
     155 ->157        -0.22084
     156 ->158        -0.41107

 Excited State   5:      Singlet-A      3.6540 eV  339.31 nm  f=0.0025  <S**2>=0.000
     150 ->157         0.15078
     150 ->159         0.10916
     151 ->157         0.46916
     151 ->158         0.17117
     151 ->159         0.33973
     151 ->160         0.21934
     152 ->157         0.11099

 The electronic state is 1-A.
 Alpha  occ. eigenvalues --  -46.95226 -19.31193 -19.24264 -19.24092 -19.23413
 Alpha  occ. eigenvalues --  -14.46410 -14.46292 -14.44126 -14.43835 -10.43423
 Alpha  occ. eigenvalues --  -10.38939 -10.38876 -10.36077 -10.34926 -10.34697
 Alpha  occ. eigenvalues --  -10.34670 -10.34424 -10.34125 -10.34076 -10.33955
 Alpha  occ. eigenvalues --  -10.33348 -10.33295 -10.32681 -10.32524 -10.32334
 Alpha  occ. eigenvalues --  -10.32063 -10.31970 -10.31896 -10.31662 -10.31436
 Alpha  occ. eigenvalues --  -10.31436 -10.31335 -10.31258 -10.31036 -10.30529
 Alpha  occ. eigenvalues --  -10.30104 -10.29975 -10.29936 -10.29932 -10.29930
 Alpha  occ. eigenvalues --  -10.29365 -10.29320 -10.29164  -3.21096  -1.94706
 Alpha  occ. eigenvalues --   -1.94201  -1.94072  -1.18620  -1.13193  -1.11138
 Alpha  occ. eigenvalues --   -1.09317  -1.07119  -1.06062  -1.05400  -1.03010
 Alpha  occ. eigenvalues --   -0.94458  -0.91015  -0.90173  -0.89597  -0.89133
 Alpha  occ. eigenvalues --   -0.88664  -0.88215  -0.85890  -0.85454  -0.84212
 Alpha  occ. eigenvalues --   -0.83795  -0.83158  -0.82516  -0.80409  -0.79493
 Alpha  occ. eigenvalues --   -0.79248  -0.78155  -0.76823  -0.74601  -0.73493
 Alpha  occ. eigenvalues --   -0.71172  -0.70272  -0.70024  -0.68930  -0.67780
 Alpha  occ. eigenvalues --   -0.67345  -0.67051  -0.66335  -0.64716  -0.61842
 Alpha  occ. eigenvalues --   -0.61569  -0.61220  -0.60719  -0.60220  -0.59283
 Alpha  occ. eigenvalues --   -0.58047  -0.57837  -0.57358  -0.56676  -0.55920
 Alpha  occ. eigenvalues --   -0.55402  -0.54882  -0.54730  -0.54348  -0.54152
 Alpha  occ. eigenvalues --   -0.53555  -0.53417  -0.53240  -0.53075  -0.52138
 Alpha  occ. eigenvalues --   -0.51916  -0.51814  -0.51298  -0.50934  -0.50460
 Alpha  occ. eigenvalues --   -0.50383  -0.50020  -0.49857  -0.49410  -0.49164
 Alpha  occ. eigenvalues --   -0.49067  -0.48646  -0.48189  -0.47817  -0.47633
 Alpha  occ. eigenvalues --   -0.47450  -0.47160  -0.46848  -0.46477  -0.46261
 Alpha  occ. eigenvalues --   -0.45761  -0.45564  -0.45404  -0.45097  -0.44962
 Alpha  occ. eigenvalues --   -0.44547  -0.44076  -0.43799  -0.43382  -0.43141
 Alpha  occ. eigenvalues --   -0.42842  -0.42586  -0.42249  -0.41867  -0.41417
 Alpha  occ. eigenvalues --   -0.40090  -0.39427  -0.39206  -0.38783  -0.38709
 Alpha  occ. eigenvalues --   -0.37938  -0.36028  -0.35921  -0.35369  -0.33284
 Alpha  occ. eigenvalues --   -0.32898  -0.32706  -0.32235  -0.31704  -0.25802
 Alpha  occ. eigenvalues --   -0.22610
 Alpha virt. eigenvalues --   -0.06658   0.00180   0.02584   0.04681   0.06116
 Alpha virt. eigenvalues --    0.06605   0.07936   0.08660   0.09390   0.10695
 Alpha virt. eigenvalues --    0.11915   0.12405   0.12801   0.13602   0.14119

 Mulliken charges:
               1
     1  Mg   0.952550
     2  C   -0.029907
     3  C   -0.087535
     4  C   -0.053646
     5  C   -0.079048
     6  N   -0.317085
     7  C   -0.009061
     8  C   -0.054163
     9  C   -0.041540
    10  C   -0.009153
    11  C    0.019993
    12  C    0.021289
    13  C   -0.115185
    14  H    0.015619
    15  N   -0.461398
    16  C    0.197339
    17  C   -0.169658
    18  C   -0.061152
    19  C    0.119880
    20  C    0.061284
    21  C    0.038497
    22  O   -0.262802
    23  C    0.013336
    24  N   -0.333066
    25  C    0.064105
    26  C   -0.091867
    27  C   -0.099002
    28  C    0.041295
    29  C    0.031125
    30  C   -0.015247
    31  C   -0.053811
    32  N   -0.449150
    33  C    0.129867
    34  C   -0.162239
    35  C   -0.055508
    36  C    0.144861
    37  C    0.075965
    38  C    0.096395
    39  O   -0.183896
    40  C   -0.041966
    41  C    0.280450
    42  O   -0.276064
    43  O   -0.352412
    44  C    0.141034
    45  H   -0.023833
    46  H    0.028215
    47  H   -0.002404
    48  H    0.045997
    49  H    0.034462
    50  H    0.048878
    51  H    0.031135
    52  H    0.026864
    53  H    0.018625
    54  H    0.024777
    55  H    0.055077
    56  H    0.067005
    57  H    0.025627
    58  H    0.064192
    59  H    0.051412
    60  H    0.063685
    61  H    0.041634
    62  H    0.053116
    63  H    0.040543
    64  H    0.038369
    65  H    0.048240
    66  H    0.046064
    67  H    0.029728
    68  H    0.031755
    69  H    0.025739
    70  H    0.040596
    71  H    0.032176
    72  H    0.041542
    73  H    0.049763
    74  H    0.047510
    75  H    0.057502
    76  H    0.066856
    77  H    0.067223
    78  H    0.052481
    79  H    0.050128
 Sum of Mulliken charges =  -0.00000

 Dipole moment (field-independent basis, Debye):
    X=             -0.3335    Y=             -3.3431    Z=              1.8586  Tot=              3.8396
 Quadrupole moment (field-independent basis, Debye-Ang):
   XX=           -267.6359   YY=           -222.6058   ZZ=           -256.8954
   XY=            -22.2433   XZ=              3.4311   YZ=              1.1673

 Normal termination of Gaussian 16 at Mon Sep 20 01:04:12 2021.
