 Gaussian 16, Revision A.03,
 Gaussian 16:  ES64L-G16RevA.03 25-Dec-2016

 --------------------------------
 #p wB97XD/Def2SVP td=(nstates=5)
 --------------------------------

 --------------------------------
 TDDFT excited states in gaussian
 --------------------------------
 Symbolic Z-matrix:
 Charge =  0 Multiplicity = 1

                         Standard orientation:
 ---------------------------------------------------------------------
 Center     Atomic      Atomic             Coordinates (Angstroms)
 Number     Number       Type             X           Y           Z
 ---------------------------------------------------------------------
      1         12           0       18.676894   -0.389848    0.030756
      2          6           0       15.319336   -0.616907   -1.362155
      3          6           0       19.326677    2.028840   -2.318139
      4          6           0       21.013360    0.856609    2.072735
      5          6           0       17.901580   -2.894985    2.191662
      6          7           0       17.351642    0.723382   -1.534950
      7          6           0       16.018815    0.393576   -1.973959
      8          6           0       15.696007    1.176518   -3.249724
      9          6           0       17.076128    1.706449   -3.738889
     10          6           0       18.035919    1.488522   -2.487808
     11          6           0       17.644099    0.931303   -5.020391
     12          6           0       14.570829    2.167335   -3.181734
     13          6           0       14.103632    2.622472   -1.778999
     14          1           0       13.024100    3.673652   -1.462633
     15          7           0       20.104577    1.160649   -0.166890
     16          6           0       20.185371    2.055312   -1.211032
     17          6           0       21.392626    2.912458   -0.995283
     18          6           0       21.775580    2.629207    0.313260
     19          6           0       20.948221    1.553146    0.853768
     20          6           0       21.831353    3.889438   -2.027849
     21          6           0       22.910388    3.370619    1.078239
     22          8           0       23.443194    4.317424    0.527095
     23          6           0       23.293208    3.102857    2.496048
     24          7           0       19.210775   -0.897115    1.947177
     25          6           0       20.334650   -0.285405    2.501356
     26          6           0       20.749810   -0.976049    3.800409
     27          6           0       19.982163   -2.345236    3.720967
     28          6           0       19.025108   -2.067321    2.559613
     29          6           0       22.261260   -1.176553    4.081489
     30          6           0       19.269721   -2.811695    5.030894
     31          6           0       19.955311   -4.029716    5.803365
     32          7           0       17.004902   -1.613323    0.337900
     33          6           0       16.881025   -2.667416    1.231271
     34          6           0       15.657870   -3.379102    0.952772
     35          6           0       15.028323   -2.546293    0.017749
     36          6           0       15.920556   -1.501339   -0.327605
     37          6           0       15.201909   -4.628945    1.725436
     38          6           0       13.871530   -2.378544   -0.807417
     39          8           0       12.904979   -3.165705   -0.858109
     40          6           0       14.034359   -1.198085   -1.864373
     41          6           0       12.813091   -0.385468   -1.696183
     42          8           0       12.341104    0.026997   -0.631473
     43          8           0       12.382942   -0.074428   -2.943461
     44          6           0       11.045050    0.589591   -3.037308
     45          1           0       19.525587    2.809736   -3.054443
     46          1           0       21.789448    1.266730    2.722709
     47          1           0       17.735642   -3.773796    2.817659
     48          1           0       15.406296    0.323683   -3.863647
     49          1           0       17.097014    2.789445   -3.861759
     50          1           0       17.614082    1.690272   -5.801156
     51          1           0       17.027967    0.053215   -5.215378
     52          1           0       18.678926    0.686935   -4.777937
     53          1           0       13.767767    1.751557   -3.790003
     54          1           0       14.999798    2.998447   -3.742504
     55          1           0       15.015365    2.952748   -1.280243
     56          1           0       13.707339    1.766819   -1.231907
     57          1           0       21.637034    4.875166   -1.606149
     58          1           0       21.255927    3.705831   -2.934692
     59          1           0       22.878717    3.709732   -2.272930
     60          1           0       22.562702    3.315362    3.275700
     61          1           0       24.107084    3.740944    2.839108
     62          1           0       23.628408    2.068801    2.416838
     63          1           0       20.309760   -0.248399    4.483287
     64          1           0       20.733271   -3.057468    3.378687
     65          1           0       22.677702   -0.439302    4.768632
     66          1           0       22.823426   -1.046235    3.157381
     67          1           0       22.394824   -2.202237    4.427071
     68          1           0       18.219815   -3.075448    4.900460
     69          1           0       19.242871   -1.912628    5.646698
     70          1           0       19.905455   -3.693349    6.838664
     71          1           0       20.985894   -4.236728    5.514618
     72          1           0       19.396459   -4.925081    5.533481
     73          1           0       14.578733   -5.323544    1.161722
     74          1           0       14.598762   -4.172008    2.509240
     75          1           0       16.061402   -5.249391    1.978299
     76          1           0       14.135288   -1.623116   -2.864087
     77          1           0       10.817930    0.792890   -4.084393
     78          1           0       11.039784    1.542908   -2.508517
     79          1           0       10.391084   -0.160682   -2.595106
     80         12           0      -18.265631    0.381947    0.544452
     81          6           0      -15.492236   -0.940528   -1.170865
     82          6           0      -19.870426   -2.657242    0.016665
     83          6           0      -20.966017    1.781386    1.877513
     84          6           0      -16.824562    3.655604    0.233047
     85          7           0      -17.757921   -1.537681   -0.468516
     86          6           0      -16.499016   -1.868806   -0.989081
     87          6           0      -16.387163   -3.378273   -1.097591
     88          6           0      -17.848733   -3.899032   -0.991135
     89          6           0      -18.541591   -2.616784   -0.439202
     90          6           0      -18.462264   -4.515280   -2.287497
     91          6           0      -15.392635   -4.035763   -0.079056
     92          6           0      -14.682319   -5.353874   -0.620126
     93          1           0      -15.073746   -5.856838   -2.012182
     94          7           0      -20.050297   -0.359246    0.995457
     95          6           0      -20.503853   -1.648238    0.774240
     96          6           0      -21.800049   -1.838146    1.358651
     97          6           0      -22.205081   -0.536573    1.796194
     98          6           0      -21.055198    0.327673    1.598057
     99          6           0      -22.587052   -3.182831    1.298234
    100          6           0      -23.521622   -0.104562    2.354260
    101          8           0      -23.785344    1.105930    2.549549
    102          6           0      -24.772625   -0.964902    2.699726
    103          7           0      -18.950114    2.448451    0.751954
    104          6           0      -20.069639    2.747742    1.437500
    105          6           0      -20.079680    4.246053    1.831996
    106          6           0      -18.779770    4.855214    1.294480
    107          6           0      -18.099180    3.522942    0.749551
    108          6           0      -21.370986    4.911639    1.465273
    109          6           0      -17.900280    5.634438    2.295801
    110          6           0      -17.414756    4.822657    3.521958
    111          7           0      -16.537091    1.272063   -0.345139
    112          6           0      -16.053415    2.531430   -0.236355
    113          6           0      -14.673292    2.493143   -0.717493
    114          6           0      -14.347875    1.157713   -1.085841
    115          6           0      -15.549862    0.435881   -0.886862
    116          6           0      -13.688989    3.659515   -0.692554
    117          6           0      -13.328941    0.295503   -1.593587
    118          8           0      -12.132975    0.438167   -1.833751
    119          6           0      -14.089351   -1.178314   -1.738742
    120          6           0      -13.928205   -1.684178   -3.159930
    121          8           0      -14.612996   -1.305868   -4.090065
    122          8           0      -12.985911   -2.685660   -3.219804
    123          6           0      -12.409455   -3.036318   -4.513748
    124          1           0      -20.225741   -3.683935   -0.091672
    125          1           0      -21.844707    2.162584    2.401422
    126          1           0      -16.399289    4.659058    0.296945
    127          1           0      -15.997021   -3.640239   -2.080980
    128          1           0      -17.857542   -4.658433   -0.209789
    129          1           0      -19.361882   -3.916422   -2.425447
    130          1           0      -18.802482   -5.535303   -2.104867
    131          1           0      -17.895554   -4.492259   -3.218279
    132          1           0      -15.910235   -4.384578    0.814005
    133          1           0      -14.668780   -3.283966    0.232855
    134          1           0      -15.002818   -6.178284    0.017033
    135          1           0      -13.607095   -5.183562   -0.571183
    136          1           0      -23.638621   -2.940006    1.140652
    137          1           0      -22.528639   -3.744763    2.229784
    138          1           0      -22.334174   -3.955882    0.572755
    139          1           0      -24.510311   -1.762538    3.395332
    140          1           0      -25.266251   -1.359449    1.811641
    141          1           0      -25.473222   -0.484108    3.381415
    142          1           0      -20.163075    4.257448    2.917983
    143          1           0      -19.076488    5.377308    0.384138
    144          1           0      -22.035329    5.046039    2.319108
    145          1           0      -21.861080    4.355810    0.665759
    146          1           0      -21.253494    5.899526    1.018489
    147          1           0      -18.569016    6.417682    2.653346
    148          1           0      -17.050631    6.082933    1.780117
    149          1           0      -16.326599    4.850692    3.468853
    150          1           0      -17.804403    3.811624    3.402939
    151          1           0      -17.821043    5.161585    4.475059
    152          1           0      -12.696797    3.363523   -0.353088
    153          1           0      -13.973373    4.405764    0.048740
    154          1           0      -13.710937    4.140537   -1.670813
    155          1           0      -13.512279   -1.839103   -1.091364
    156          1           0      -13.226897   -3.005496   -5.234604
    157          1           0      -11.966847   -4.031230   -4.563424
    158          1           0      -11.608166   -2.315986   -4.678732
 ---------------------------------------------------------------------

 SCF Done:  E(RwB97XD) =  -4070.58374706     A.U. after   19 cycles

 Excitation energies and oscillator strengths:

 Excited State   1:      Singlet-A      1.6018 eV  774.04 nm  f=0.4577  <S**2>=0.000
     310 -> 316        0.17241
     311 -> 313        0.68365
     310 <- 316        0.11387
 This state for optimization and/or second-order correction.
 Total Energy, E(TD-HF/TD-DFT) =  -4070.52488289
 Copying the excited state density for this state as the 1-particle RhoCI density.

 Excited State   2:      Singlet-A      1.6105 eV  769.85 nm  f=0.3056  <S**2>=0.000
     309 -> 315        0.16102
     312 -> 314        0.68655
     309 <- 315        0.10967

 Excited State   3:      Singlet-A      2.1365 eV  580.33 nm  f=0.1500  <S**2>=0.000
     310 -> 313        0.65483
     311 -> 316       -0.24836

 Excited State   4:      Singlet-A      2.2276 eV  556.59 nm  f=0.0764  <S**2>=0.000
     309 -> 314        0.61811
     312 -> 315       -0.32524

 Excited State   5:      Singlet-A      3.2957 eV  376.20 nm  f=0.0031  <S**2>=0.000
     305 -> 313        0.52457
     305 -> 316       -0.13578
     305 -> 317        0.34608
     305 -> 319        0.20401

 The electronic state is 1-A.
 Alpha  occ. eigenvalues --  -46.95633 -46.95209 -19.30526 -19.29430 -19.24352
 Alpha  occ. eigenvalues --  -19.24315 -19.24132 -19.24122 -19.23382 -19.22067
 Alpha  occ. eigenvalues --  -14.47132 -14.47046 -14.46172 -14.45941 -14.44856
 Alpha  occ. eigenvalues --  -14.44343 -14.43911 -14.43241 -10.42928 -10.42907
 Alpha  occ. eigenvalues --  -10.39556 -10.39504 -10.39449 -10.37498 -10.36037
 Alpha  occ. eigenvalues --  -10.35822 -10.35724 -10.35598 -10.35071 -10.34987
 Alpha  occ. eigenvalues --  -10.34942 -10.34928 -10.34911 -10.34753 -10.34722
 Alpha  occ. eigenvalues --  -10.34504 -10.34501 -10.34299 -10.33789 -10.33688
 Alpha  occ. eigenvalues --  -10.33195 -10.33041 -10.32973 -10.32929 -10.32779
 Alpha  occ. eigenvalues --  -10.32538 -10.32430 -10.32374 -10.32279 -10.32255
 Alpha  occ. eigenvalues --  -10.32154 -10.32062 -10.31993 -10.31939 -10.31852
 Alpha  occ. eigenvalues --  -10.31831 -10.31779 -10.31655 -10.31646 -10.31580
 Alpha  occ. eigenvalues --  -10.31522 -10.31519 -10.31431 -10.31371 -10.31370
 Alpha  occ. eigenvalues --  -10.31255 -10.31202 -10.31093 -10.30851 -10.30805
 Alpha  occ. eigenvalues --  -10.30768 -10.30685 -10.30604 -10.30535 -10.30213
 Alpha  occ. eigenvalues --  -10.30203 -10.30169 -10.30082 -10.30074 -10.29857
 Alpha  occ. eigenvalues --  -10.29846 -10.29387 -10.29375 -10.29270 -10.28703
 Alpha  occ. eigenvalues --  -10.27920  -3.21573  -3.21222  -1.95130  -1.94781
 Alpha  occ. eigenvalues --   -1.94717  -1.94522  -1.94344  -1.94201  -1.18192
 Alpha  occ. eigenvalues --   -1.17559  -1.12933  -1.11628  -1.10598  -1.09605
 Alpha  occ. eigenvalues --   -1.09590  -1.08824  -1.06805  -1.06311  -1.06009
 Alpha  occ. eigenvalues --   -1.05434  -1.05188  -1.04902  -1.04082  -1.02327
 Alpha  occ. eigenvalues --   -0.94100  -0.93853  -0.91240  -0.90999  -0.90861
 Alpha  occ. eigenvalues --   -0.90474  -0.90363  -0.90066  -0.89234  -0.88778
 Alpha  occ. eigenvalues --   -0.88738  -0.88622  -0.87975  -0.87201  -0.86268
 Alpha  occ. eigenvalues --   -0.85655  -0.85573  -0.85178  -0.84644  -0.84236
 Alpha  occ. eigenvalues --   -0.84039  -0.82946  -0.82886  -0.82527  -0.82089
 Alpha  occ. eigenvalues --   -0.81922  -0.80627  -0.80002  -0.79637  -0.78807
 Alpha  occ. eigenvalues --   -0.78628  -0.78392  -0.77895  -0.77714  -0.77165
 Alpha  occ. eigenvalues --   -0.76891  -0.74978  -0.74463  -0.73662  -0.72995
 Alpha  occ. eigenvalues --   -0.71779  -0.71541  -0.71072  -0.70940  -0.70277
 Alpha  occ. eigenvalues --   -0.69538  -0.69473  -0.68897  -0.68120  -0.67351
 Alpha  occ. eigenvalues --   -0.67162  -0.66808  -0.66656  -0.66097  -0.66014
 Alpha  occ. eigenvalues --   -0.65489  -0.64080  -0.63580  -0.62891  -0.61644
 Alpha  occ. eigenvalues --   -0.61402  -0.61093  -0.61004  -0.60747  -0.60000
 Alpha  occ. eigenvalues --   -0.59904  -0.59502  -0.59344  -0.59165  -0.58869
 Alpha  occ. eigenvalues --   -0.58739  -0.58128  -0.57850  -0.57626  -0.57072
 Alpha  occ. eigenvalues --   -0.56735  -0.56691  -0.56505  -0.56153  -0.55800
 Alpha  occ. eigenvalues --   -0.55602  -0.55420  -0.55349  -0.54941  -0.54726
 Alpha  occ. eigenvalues --   -0.54636  -0.54494  -0.54443  -0.54229  -0.54222
 Alpha  occ. eigenvalues --   -0.53867  -0.53710  -0.53354  -0.53225  -0.53122
 Alpha  occ. eigenvalues --   -0.52962  -0.52907  -0.52559  -0.52552  -0.51951
 Alpha  occ. eigenvalues --   -0.51876  -0.51523  -0.51509  -0.51446  -0.51110
 Alpha  occ. eigenvalues --   -0.51068  -0.50887  -0.50816  -0.50689  -0.50623
 Alpha  occ. eigenvalues --   -0.50506  -0.50232  -0.50087  -0.50047  -0.49781
 Alpha  occ. eigenvalues --   -0.49675  -0.49624  -0.49540  -0.49306  -0.49097
 Alpha  occ. eigenvalues --   -0.48833  -0.48761  -0.48562  -0.48453  -0.48266
 Alpha  occ. eigenvalues --   -0.48209  -0.48121  -0.47734  -0.47639  -0.47391
 Alpha  occ. eigenvalues --   -0.47339  -0.47094  -0.47092  -0.46862  -0.46621
 Alpha  occ. eigenvalues --   -0.46366  -0.46309  -0.46097  -0.45938  -0.45909
 Alpha  occ. eigenvalues --   -0.45854  -0.45817  -0.45379  -0.45336  -0.45287
 Alpha  occ. eigenvalues --   -0.45064  -0.44920  -0.44848  -0.44626  -0.44475
 Alpha  occ. eigenvalues --   -0.44465  -0.44250  -0.44211  -0.44038  -0.43884
 Alpha  occ. eigenvalues --   -0.43821  -0.43742  -0.43651  -0.43524  -0.43461
 Alpha  occ. eigenvalues --   -0.42938  -0.42755  -0.42598  -0.42473  -0.41939
 Alpha  occ. eigenvalues --   -0.41801  -0.41469  -0.41221  -0.41100  -0.40975
 Alpha  occ. eigenvalues --   -0.40520  -0.40418  -0.39701  -0.39541  -0.39333
 Alpha  occ. eigenvalues --   -0.39213  -0.38852  -0.38533  -0.38260  -0.38217
 Alpha  occ. eigenvalues --   -0.37920  -0.37766  -0.36283  -0.35983  -0.35789
 Alpha  occ. eigenvalues --   -0.35654  -0.35203  -0.34899  -0.33723  -0.33633
 Alpha  occ. eigenvalues --   -0.33147  -0.32919  -0.32713  -0.32300  -0.32203
 Alpha  occ. eigenvalues --   -0.31597  -0.31521  -0.31123  -0.26374  -0.25990
 Alpha  occ. eigenvalues --   -0.23141  -0.22557
 Alpha virt. eigenvalues --   -0.07559  -0.06899   0.00152   0.00566   0.02054
 Alpha virt. eigenvalues --    0.03169   0.04129   0.04493   0.04662   0.04724
 Alpha virt. eigenvalues --    0.07112   0.07424   0.07797   0.07819   0.08653

 Mulliken charges:
               1
     1  Mg   0.954194
     2  C   -0.033039
     3  C   -0.082902
     4  C   -0.079808
     5  C   -0.082983
     6  N   -0.368330
     7  C   -0.053260
     8  C   -0.005117
     9  C   -0.142301
    10  C    0.044404
    11  C    0.037061
    12  C    0.030728
    13  C   -0.102251
    14  H    0.037401
    15  N   -0.471042
    16  C    0.144942
    17  C   -0.159938
    18  C   -0.079457
    19  C    0.169613
    20  C    0.104815
    21  C    0.036101
    22  O   -0.227588
    23  C    0.002042
    24  N   -0.386299
    25  C    0.091594
    26  C   -0.126897
    27  C   -0.015429
    28  C    0.025697
    29  C    0.031702
    30  C   -0.022283
    31  C   -0.061803
    32  N   -0.378012
    33  C    0.092424
    34  C   -0.180562
    35  C   -0.010797
    36  C    0.118724
    37  C    0.073260
    38  C    0.083854
    39  O   -0.250511
    40  C   -0.041255
    41  C    0.265277
    42  O   -0.260757
    43  O   -0.368617
    44  C    0.138600
    45  H    0.004127
    46  H   -0.041800
    47  H   -0.009051
    48  H    0.025785
    49  H    0.040015
    50  H    0.048715
    51  H    0.050490
    52  H    0.040779
    53  H    0.031553
    54  H    0.017664
    55  H    0.047056
    56  H    0.072045
    57  H    0.073555
    58  H    0.022222
    59  H    0.060915
    60  H    0.076674
    61  H    0.048846
    62  H    0.056594
    63  H    0.052193
    64  H    0.031475
    65  H    0.041476
    66  H    0.036516
    67  H    0.042329
    68  H    0.044476
    69  H    0.024535
    70  H    0.051139
    71  H    0.034923
    72  H    0.047417
    73  H    0.051618
    74  H    0.071757
    75  H    0.038708
    76  H    0.074335
    77  H    0.059776
    78  H    0.067180
    79  H    0.072771
    80  Mg   0.971842
    81  C    0.006882
    82  C   -0.061517
    83  C   -0.062979
    84  C   -0.062926
    85  N   -0.337647
    86  C   -0.003240
    87  C   -0.035393
    88  C   -0.097901
    89  C    0.010255
    90  C    0.027415
    91  C   -0.006696
    92  C   -0.129129
    93  H    0.034050
    94  N   -0.495037
    95  C    0.189665
    96  C   -0.136895
    97  C   -0.054420
    98  C    0.137675
    99  C    0.058962
   100  C    0.036183
   101  O   -0.271673
   102  C   -0.006990
   103  N   -0.340808
   104  C    0.077676
   105  C   -0.129574
   106  C   -0.020109
   107  C    0.012595
   108  C    0.021375
   109  C   -0.019679
   110  C   -0.045863
   111  N   -0.428930
   112  C    0.150901
   113  C   -0.205181
   114  C    0.004396
   115  C    0.122898
   116  C    0.072260
   117  C    0.116742
   118  O   -0.207471
   119  C   -0.128382
   120  C    0.274735
   121  O   -0.237606
   122  O   -0.379756
   123  C    0.133592
   124  H   -0.003030
   125  H    0.023006
   126  H   -0.004428
   127  H    0.030769
   128  H    0.033151
   129  H    0.030606
   130  H    0.034859
   131  H    0.058460
   132  H    0.029806
   133  H    0.037270
   134  H    0.054520
   135  H    0.069272
   136  H    0.037121
   137  H    0.051125
   138  H    0.045650
   139  H    0.030955
   140  H    0.073481
   141  H    0.048556
   142  H    0.037192
   143  H    0.038730
   144  H    0.043450
   145  H    0.041828
   146  H    0.022242
   147  H    0.033249
   148  H    0.039466
   149  H    0.046984
   150  H    0.038547
   151  H    0.042993
   152  H    0.057739
   153  H    0.018523
   154  H    0.059385
   155  H    0.065644
   156  H    0.060169
   157  H    0.053781
   158  H    0.064635
 Sum of Mulliken charges =  -0.00000

 Dipole moment (field-independent basis, Debye):
    X=              2.8594    Y=             -4.3209    Z=              2.8701  Tot=              5.9231
 Quadrupole moment (field-independent basis, Debye-Ang):
   XX=           -325.5089   YY=           -481.0726   ZZ=           -478.3121
   XY=             30.8389   XZ=            -37.7786   YZ=             -5.8215

 Normal termination of Gaussian 16 at Sat Sep 18 15:10:44 2021.
