 Gaussian 16, Revision A.03,
 Gaussian 16:  ES64L-G16RevA.03 25-Dec-2016

 --------------------------------
 #p wB97XD/Def2SVP td=(nstates=5)
 --------------------------------

 --------------------------------
 TDDFT excited states in gaussian
 --------------------------------
 Symbolic Z-matrix:
 Charge =  0 Multiplicity = 1

                         Standard orientation:
 ---------------------------------------------------------------------
 Center     Atomic      Atomic             Coordinates (Angstroms)
 Number     Number       Type             X           Y           Z
 ---------------------------------------------------------------------
      1         12           0       30.282073    0.142138    0.007424
      2          6           0       26.960670   -0.753482    0.002948
      3          6           0       30.959682   -1.950893   -2.616976
      4          6           0       33.614678    1.216917   -0.092577
      5          6           0       29.570546    2.851331    2.027377
      6          7           0       28.975472   -1.023070   -1.271783
      7          6           0       27.660906   -1.423770   -1.017923
      8          6           0       27.148777   -2.380092   -2.097945
      9          6           0       28.502177   -2.804910   -2.722328
     10          6           0       29.579443   -1.808676   -2.246785
     11          6           0       28.832168   -4.296623   -2.496530
     12          6           0       26.192759   -1.685080   -3.087565
     13          6           0       24.919198   -2.488639   -3.523544
     14          1           0       24.417016   -2.225172   -4.889313
     15          7           0       32.003004   -0.344872   -1.134468
     16          6           0       32.102501   -1.287715   -2.099335
     17          6           0       33.457258   -1.564321   -2.472871
     18          6           0       34.270052   -0.757059   -1.660154
     19          6           0       33.286466    0.093618   -0.870321
     20          6           0       33.877460   -2.666208   -3.447705
     21          6           0       35.840813   -0.705572   -1.642591
     22          8           0       36.470566   -1.390493   -2.488756
     23          6           0       36.685752    0.097380   -0.562324
     24          7           0       31.371612    1.978926    0.612321
     25          6           0       32.722528    2.082040    0.579092
     26          6           0       33.244381    3.232596    1.400940
     27          6           0       31.967150    3.805308    2.052448
     28          6           0       30.902083    2.811941    1.581024
     29          6           0       34.390269    2.856975    2.398082
     30          6           0       31.719214    5.350926    1.708555
     31          6           0       32.025106    6.318993    2.857296
     32          7           0       28.640391    0.893535    0.906853
     33          6           0       28.457837    2.008686    1.754010
     34          6           0       27.112151    1.955865    2.340424
     35          6           0       26.544724    0.847070    1.728099
     36          6           0       27.471676    0.345400    0.799675
     37          6           0       26.457953    2.859855    3.323005
     38          6           0       25.309932    0.054108    1.644493
     39          8           0       24.298472    0.019945    2.364515
     40          6           0       25.544991   -1.056093    0.543270
     41          6           0       25.438515   -2.455484    1.134264
     42          8           0       25.936484   -2.870138    2.185679
     43          8           0       24.612363   -3.104642    0.265613
     44          6           0       24.173435   -4.433427    0.657799
     45          1           0       31.189667   -2.618944   -3.449494
     46          1           0       34.633649    1.590061    0.030005
     47          1           0       29.280432    3.679668    2.676841
     48          1           0       26.601317   -3.199190   -1.630428
     49          1           0       28.337148   -2.666201   -3.790753
     50          1           0       28.028412   -4.995569   -2.265217
     51          1           0       29.468980   -4.322282   -1.612400
     52          1           0       29.352638   -4.736730   -3.346806
     53          1           0       26.700896   -1.313248   -3.976890
     54          1           0       25.937857   -0.738535   -2.610324
     55          1           0       24.113654   -2.283062   -2.818659
     56          1           0       25.165405   -3.551383   -3.520349
     57          1           0       34.563558   -3.302884   -2.889582
     58          1           0       34.184511   -2.221653   -4.394458
     59          1           0       32.971961   -3.254788   -3.594904
     60          1           0       36.750968    1.120161   -0.931636
     61          1           0       37.675650   -0.358237   -0.553776
     62          1           0       36.244386   -0.139378    0.406167
     63          1           0       33.668845    3.967106    0.716402
     64          1           0       31.869705    3.670021    3.129368
     65          1           0       34.222099    3.289950    3.383778
     66          1           0       35.370246    3.188092    2.054902
     67          1           0       34.486669    1.772669    2.435321
     68          1           0       30.677194    5.562366    1.468929
     69          1           0       32.262927    5.623510    0.804091
     70          1           0       32.495999    7.219533    2.462708
     71          1           0       32.701998    5.844487    3.567436
     72          1           0       31.146177    6.623206    3.425363
     73          1           0       27.209636    3.574488    3.658287
     74          1           0       25.890467    2.274401    4.046675
     75          1           0       25.763211    3.471826    2.746744
     76          1           0       24.866319   -0.951802   -0.303687
     77          1           0       24.970074   -5.062548    1.056911
     78          1           0       23.659647   -5.028973   -0.096793
     79          1           0       23.415229   -4.353579    1.437225
     80         12           0      -30.444226    0.400468   -0.197271
     81          6           0      -27.555622   -0.520604    1.628689
     82          6           0      -31.640806   -2.714005    0.310188
     83          6           0      -33.029277    1.265097   -2.010620
     84          6           0      -28.659540    3.339469   -1.219531
     85          7           0      -29.643926   -1.499045    0.780106
     86          6           0      -28.569455   -1.501223    1.653766
     87          6           0      -28.649220   -2.769351    2.433062
     88          6           0      -29.586918   -3.665921    1.623926
     89          6           0      -30.389967   -2.591573    0.848692
     90          6           0      -28.774772   -4.576814    0.628738
     91          6           0      -29.125683   -2.647974    3.979295
     92          6           0      -28.409967   -3.470540    5.094191
     93          1           0      -28.216805   -4.991482    4.827953
     94          7           0      -32.113330   -0.639950   -0.770572
     95          6           0      -32.407225   -1.864743   -0.447175
     96          6           0      -33.682603   -2.219309   -1.093692
     97          6           0      -34.243037   -1.013171   -1.613201
     98          6           0      -33.107125   -0.054094   -1.505844
     99          6           0      -34.380898   -3.624847   -1.184546
    100          6           0      -35.626340   -0.696275   -2.180575
    101          8           0      -35.935145    0.387922   -2.710965
    102          6           0      -36.588484   -1.780875   -2.300497
    103          7           0      -30.697779    2.048403   -1.602851
    104          6           0      -31.963804    2.229665   -2.153399
    105          6           0      -32.032534    3.660107   -2.814732
    106          6           0      -30.684046    4.304916   -2.408070
    107          6           0      -29.966196    3.181766   -1.656322
    108          6           0      -32.367057    3.613670   -4.305876
    109          6           0      -30.771116    5.662018   -1.665430
    110          6           0      -29.726436    6.745791   -2.020161
    111          7           0      -28.519940    1.267788    0.091190
    112          6           0      -27.921388    2.417207   -0.415040
    113          6           0      -26.651973    2.599855    0.241608
    114          6           0      -26.447818    1.447288    1.001776
    115          6           0      -27.615850    0.641300    0.908455
    116          6           0      -25.805069    3.715640    0.151886
    117          6           0      -25.546617    0.766547    1.943277
    118          8           0      -24.468321    1.072187    2.427264
    119          6           0      -26.262115   -0.544285    2.407134
    120          6           0      -25.333298   -1.702160    2.087969
    121          8           0      -25.127661   -2.352973    1.088589
    122          8           0      -24.784909   -1.963207    3.310378
    123          6           0      -24.073551   -3.251816    3.486285
    124          1           0      -32.080179   -3.687326    0.540011
    125          1           0      -33.986036    1.586683   -2.427177
    126          1           0      -28.197110    4.321266   -1.336861
    127          1           0      -27.713823   -3.316432    2.553296
    128          1           0      -30.322369   -4.175819    2.245716
    129          1           0      -29.230615   -5.549753    0.448298
    130          1           0      -27.797488   -4.869464    1.013413
    131          1           0      -28.772336   -4.028051   -0.312423
    132          1           0      -30.205694   -2.780664    4.033927
    133          1           0      -29.043878   -1.610108    4.304292
    134          1           0      -29.125530   -3.411672    5.915119
    135          1           0      -27.479907   -2.914515    5.212442
    136          1           0      -35.299612   -3.728069   -0.607574
    137          1           0      -33.655094   -4.360736   -0.837321
    138          1           0      -34.760493   -3.892149   -2.170765
    139          1           0      -36.734528   -2.280028   -1.342210
    140          1           0      -36.262053   -2.507757   -3.044370
    141          1           0      -37.559268   -1.320587   -2.481761
    142          1           0      -32.781591    4.214038   -2.248693
    143          1           0      -30.026860    4.395405   -3.272734
    144          1           0      -31.440747    3.536901   -4.876177
    145          1           0      -32.834454    4.518015   -4.694186
    146          1           0      -32.835706    2.656854   -4.533657
    147          1           0      -30.818661    5.572210   -0.580287
    148          1           0      -31.741568    6.132844   -1.828070
    149          1           0      -28.973023    6.652541   -1.237864
    150          1           0      -30.249489    7.691333   -1.873537
    151          1           0      -29.324525    6.568896   -3.017420
    152          1           0      -24.743321    3.614193    0.375474
    153          1           0      -26.256420    4.499124    0.761416
    154          1           0      -25.826681    4.007196   -0.897552
    155          1           0      -26.478178   -0.493785    3.474153
    156          1           0      -24.410070   -3.619810    4.455106
    157          1           0      -22.985459   -3.201394    3.517419
    158          1           0      -24.387127   -3.957674    2.717619
 ---------------------------------------------------------------------

 SCF Done:  E(RwB97XD) =  -4070.62068392     A.U. after   19 cycles

 Excitation energies and oscillator strengths:

 Excited State   1:      Singlet-A      1.6649 eV  744.68 nm  f=0.3713  <S**2>=0.000
     309 -> 316        0.17860
     311 -> 313        0.68353
     309 <- 316        0.11331
 This state for optimization and/or second-order correction.
 Total Energy, E(TD-HF/TD-DFT) =  -4070.55949846
 Copying the excited state density for this state as the 1-particle RhoCI density.

 Excited State   2:      Singlet-A      1.6743 eV  740.53 nm  f=0.3726  <S**2>=0.000
     310 -> 315        0.19691
     312 -> 314        0.67896
     310 <- 315        0.11754

 Excited State   3:      Singlet-A      2.1965 eV  564.46 nm  f=0.0911  <S**2>=0.000
     309 -> 313        0.62319
     311 -> 316       -0.31719

 Excited State   4:      Singlet-A      2.2066 eV  561.88 nm  f=0.0674  <S**2>=0.000
     310 -> 314        0.62033
     312 -> 315       -0.32389

 Excited State   5:      Singlet-A      3.4058 eV  364.04 nm  f=0.1379  <S**2>=0.000
     308 -> 314        0.57111
     310 -> 314        0.13910
     312 -> 315        0.36108

 The electronic state is 1-A.
 Alpha  occ. eigenvalues --  -46.95700 -46.95514 -19.31561 -19.29594 -19.25195
 Alpha  occ. eigenvalues --  -19.24962 -19.24782 -19.24295 -19.23718 -19.23459
 Alpha  occ. eigenvalues --  -14.47017 -14.46751 -14.46357 -14.45993 -14.44862
 Alpha  occ. eigenvalues --  -14.44422 -14.43657 -14.43547 -10.43793 -10.43077
 Alpha  occ. eigenvalues --  -10.40753 -10.39486 -10.38822 -10.38741 -10.36313
 Alpha  occ. eigenvalues --  -10.35768 -10.35767 -10.35732 -10.35228 -10.35189
 Alpha  occ. eigenvalues --  -10.35101 -10.34823 -10.34812 -10.34512 -10.34420
 Alpha  occ. eigenvalues --  -10.34318 -10.34034 -10.33982 -10.33825 -10.33642
 Alpha  occ. eigenvalues --  -10.33628 -10.33553 -10.32753 -10.32699 -10.32545
 Alpha  occ. eigenvalues --  -10.32388 -10.32191 -10.32190 -10.32125 -10.32053
 Alpha  occ. eigenvalues --  -10.31984 -10.31967 -10.31953 -10.31921 -10.31823
 Alpha  occ. eigenvalues --  -10.31776 -10.31758 -10.31701 -10.31633 -10.31608
 Alpha  occ. eigenvalues --  -10.31573 -10.31571 -10.31397 -10.31381 -10.31341
 Alpha  occ. eigenvalues --  -10.31290 -10.31243 -10.30988 -10.30824 -10.30758
 Alpha  occ. eigenvalues --  -10.30622 -10.30559 -10.30499 -10.30295 -10.30251
 Alpha  occ. eigenvalues --  -10.30218 -10.29926 -10.29914 -10.29780 -10.29624
 Alpha  occ. eigenvalues --  -10.29552 -10.29549 -10.29462 -10.29083 -10.28828
 Alpha  occ. eigenvalues --  -10.28556  -3.21545  -3.21492  -1.95128  -1.95047
 Alpha  occ. eigenvalues --   -1.94666  -1.94601  -1.94504  -1.94488  -1.19002
 Alpha  occ. eigenvalues --   -1.18278  -1.11816  -1.11574  -1.10898  -1.10530
 Alpha  occ. eigenvalues --   -1.09956  -1.09935  -1.07178  -1.06661  -1.06016
 Alpha  occ. eigenvalues --   -1.05936  -1.05580  -1.05040  -1.04159  -1.04082
 Alpha  occ. eigenvalues --   -0.94735  -0.93346  -0.90804  -0.90755  -0.90706
 Alpha  occ. eigenvalues --   -0.90553  -0.90356  -0.89868  -0.89478  -0.89176
 Alpha  occ. eigenvalues --   -0.89065  -0.88948  -0.88797  -0.88379  -0.86224
 Alpha  occ. eigenvalues --   -0.86128  -0.85759  -0.85473  -0.84602  -0.84398
 Alpha  occ. eigenvalues --   -0.84395  -0.83562  -0.83435  -0.83075  -0.82557
 Alpha  occ. eigenvalues --   -0.82125  -0.80337  -0.79855  -0.79423  -0.79363
 Alpha  occ. eigenvalues --   -0.78941  -0.78680  -0.77796  -0.77775  -0.77232
 Alpha  occ. eigenvalues --   -0.77038  -0.74682  -0.74485  -0.73779  -0.73706
 Alpha  occ. eigenvalues --   -0.71111  -0.70904  -0.70851  -0.70658  -0.69820
 Alpha  occ. eigenvalues --   -0.69685  -0.69315  -0.69272  -0.68036  -0.67418
 Alpha  occ. eigenvalues --   -0.67275  -0.67062  -0.66963  -0.66957  -0.66558
 Alpha  occ. eigenvalues --   -0.66315  -0.64652  -0.63927  -0.62477  -0.61900
 Alpha  occ. eigenvalues --   -0.61598  -0.61548  -0.61220  -0.60931  -0.60590
 Alpha  occ. eigenvalues --   -0.60280  -0.59884  -0.59684  -0.59487  -0.59206
 Alpha  occ. eigenvalues --   -0.58150  -0.57983  -0.57848  -0.57717  -0.57225
 Alpha  occ. eigenvalues --   -0.57124  -0.56949  -0.56393  -0.55704  -0.55629
 Alpha  occ. eigenvalues --   -0.55498  -0.55312  -0.55174  -0.55126  -0.55098
 Alpha  occ. eigenvalues --   -0.54867  -0.54756  -0.54527  -0.54323  -0.54025
 Alpha  occ. eigenvalues --   -0.53901  -0.53594  -0.53518  -0.53494  -0.53277
 Alpha  occ. eigenvalues --   -0.53159  -0.53141  -0.53028  -0.52771  -0.52709
 Alpha  occ. eigenvalues --   -0.52336  -0.51887  -0.51852  -0.51585  -0.51367
 Alpha  occ. eigenvalues --   -0.51319  -0.51230  -0.51012  -0.50923  -0.50722
 Alpha  occ. eigenvalues --   -0.50418  -0.50234  -0.50090  -0.50075  -0.49739
 Alpha  occ. eigenvalues --   -0.49677  -0.49561  -0.49386  -0.49301  -0.49107
 Alpha  occ. eigenvalues --   -0.49019  -0.48845  -0.48808  -0.48564  -0.48500
 Alpha  occ. eigenvalues --   -0.48278  -0.48181  -0.47966  -0.47847  -0.47455
 Alpha  occ. eigenvalues --   -0.47441  -0.47137  -0.46957  -0.46806  -0.46723
 Alpha  occ. eigenvalues --   -0.46596  -0.46340  -0.46293  -0.46061  -0.45991
 Alpha  occ. eigenvalues --   -0.45757  -0.45691  -0.45645  -0.45608  -0.45444
 Alpha  occ. eigenvalues --   -0.45194  -0.44937  -0.44921  -0.44881  -0.44677
 Alpha  occ. eigenvalues --   -0.44500  -0.44361  -0.44217  -0.44086  -0.44079
 Alpha  occ. eigenvalues --   -0.43912  -0.43882  -0.43490  -0.43478  -0.43192
 Alpha  occ. eigenvalues --   -0.43065  -0.42789  -0.42707  -0.42493  -0.42427
 Alpha  occ. eigenvalues --   -0.42114  -0.41753  -0.41599  -0.41473  -0.41261
 Alpha  occ. eigenvalues --   -0.40671  -0.40661  -0.40279  -0.40060  -0.39681
 Alpha  occ. eigenvalues --   -0.39405  -0.39318  -0.38904  -0.38564  -0.38461
 Alpha  occ. eigenvalues --   -0.38376  -0.37826  -0.36838  -0.36765  -0.36638
 Alpha  occ. eigenvalues --   -0.35904  -0.35302  -0.35268  -0.33736  -0.33676
 Alpha  occ. eigenvalues --   -0.33354  -0.33297  -0.32721  -0.32683  -0.32424
 Alpha  occ. eigenvalues --   -0.32393  -0.31930  -0.31412  -0.26123  -0.25880
 Alpha  occ. eigenvalues --   -0.22892  -0.22765
 Alpha virt. eigenvalues --   -0.06906  -0.06612  -0.00135  -0.00112   0.01936
 Alpha virt. eigenvalues --    0.02250   0.04073   0.04295   0.04826   0.05029
 Alpha virt. eigenvalues --    0.07167   0.07424   0.07864   0.08054   0.08316

 Mulliken charges:
               1
     1  Mg   0.973552
     2  C   -0.080590
     3  C   -0.110038
     4  C   -0.086189
     5  C   -0.082864
     6  N   -0.404013
     7  C   -0.008433
     8  C   -0.052776
     9  C   -0.092035
    10  C    0.125797
    11  C    0.014004
    12  C    0.023094
    13  C   -0.127704
    14  H    0.043627
    15  N   -0.430367
    16  C    0.153024
    17  C   -0.190574
    18  C   -0.078492
    19  C    0.194535
    20  C    0.116268
    21  C    0.044347
    22  O   -0.256246
    23  C   -0.009116
    24  N   -0.325134
    25  C    0.022962
    26  C   -0.076369
    27  C   -0.052266
    28  C    0.038461
    29  C    0.010500
    30  C   -0.007594
    31  C   -0.058075
    32  N   -0.440796
    33  C    0.101288
    34  C   -0.206461
    35  C   -0.043944
    36  C    0.153189
    37  C    0.107334
    38  C    0.155580
    39  O   -0.229684
    40  C   -0.059950
    41  C    0.289228
    42  O   -0.247456
    43  O   -0.356467
    44  C    0.133469
    45  H    0.007809
    46  H   -0.019780
    47  H   -0.011109
    48  H    0.025047
    49  H    0.032695
    50  H    0.036833
    51  H    0.034823
    52  H    0.038401
    53  H    0.030662
    54  H    0.030163
    55  H    0.066469
    56  H    0.049602
    57  H    0.065617
    58  H    0.072142
    59  H    0.012152
    60  H    0.080653
    61  H    0.058261
    62  H    0.060656
    63  H    0.046724
    64  H    0.034046
    65  H    0.046864
    66  H    0.033544
    67  H    0.037725
    68  H    0.032989
    69  H    0.028770
    70  H    0.039093
    71  H    0.028602
    72  H    0.041142
    73  H    0.021219
    74  H    0.075398
    75  H    0.050526
    76  H    0.064500
    77  H    0.055249
    78  H    0.052207
    79  H    0.053680
    80  Mg   0.942173
    81  C   -0.052027
    82  C   -0.101141
    83  C   -0.067642
    84  C   -0.090876
    85  N   -0.320552
    86  C    0.052420
    87  C   -0.094431
    88  C   -0.080817
    89  C   -0.005872
    90  C    0.041934
    91  C   -0.020893
    92  C   -0.113920
    93  H    0.029610
    94  N   -0.428030
    95  C    0.194932
    96  C   -0.167321
    97  C   -0.071040
    98  C    0.113707
    99  C    0.058630
   100  C    0.066955
   101  O   -0.250779
   102  C   -0.004263
   103  N   -0.356212
   104  C    0.033207
   105  C   -0.062117
   106  C   -0.056377
   107  C    0.068575
   108  C    0.048395
   109  C   -0.039065
   110  C   -0.040947
   111  N   -0.439496
   112  C    0.135402
   113  C   -0.196869
   114  C   -0.015708
   115  C    0.167546
   116  C    0.061226
   117  C    0.109522
   118  O   -0.199653
   119  C   -0.077052
   120  C    0.279438
   121  O   -0.226446
   122  O   -0.373828
   123  C    0.131576
   124  H   -0.012459
   125  H    0.026180
   126  H   -0.012818
   127  H    0.024519
   128  H    0.020077
   129  H    0.029348
   130  H    0.045933
   131  H    0.057433
   132  H    0.021566
   133  H    0.024524
   134  H    0.065205
   135  H    0.071826
   136  H    0.043729
   137  H    0.041016
   138  H    0.041525
   139  H    0.037696
   140  H    0.075235
   141  H    0.054599
   142  H    0.039199
   143  H    0.033357
   144  H    0.015965
   145  H    0.046693
   146  H    0.047933
   147  H    0.025310
   148  H    0.022962
   149  H    0.043269
   150  H    0.039859
   151  H    0.045446
   152  H    0.060025
   153  H    0.054175
   154  H    0.037943
   155  H    0.081380
   156  H    0.047542
   157  H    0.063831
   158  H    0.058103
 Sum of Mulliken charges =  -0.00000

 Dipole moment (field-independent basis, Debye):
    X=             -1.5285    Y=             -0.5480    Z=              0.9153  Tot=              1.8639
 Quadrupole moment (field-independent basis, Debye-Ang):
   XX=           -180.2506   YY=           -446.2397   ZZ=           -514.2286
   XY=             95.6077   XZ=            -50.8558   YZ=              1.8340

 Normal termination of Gaussian 16 at Mon Sep 20 17:18:59 2021.
