 Gaussian 16, Revision A.03,
 Gaussian 16:  ES64L-G16RevA.03 25-Dec-2016

 --------------------------------
 #p wB97XD/Def2SVP td=(nstates=5)
 --------------------------------

 --------------------------------
 TDDFT excited states in gaussian
 --------------------------------
 Symbolic Z-matrix:
 Charge =  0 Multiplicity = 1

                         Standard orientation:
 ---------------------------------------------------------------------
 Center     Atomic      Atomic             Coordinates (Angstroms)
 Number     Number       Type             X           Y           Z
 ---------------------------------------------------------------------
      1         12           0       28.778534    0.557987    0.570800
      2          6           0       28.906642   -2.446409   -1.169053
      3          6           0       26.752783    1.721671   -1.992761
      4          6           0       29.049587    3.643586    1.975025
      5          6           0       30.947352   -0.748241    2.925773
      6          7           0       27.975937   -0.260049   -1.387738
      7          6           0       28.122475   -1.542740   -1.893549
      8          6           0       27.458520   -1.748720   -3.311509
      9          6           0       27.065920   -0.256842   -3.642931
     10          6           0       27.306858    0.482168   -2.275210
     11          6           0       27.772871    0.517074   -4.759524
     12          6           0       26.299528   -2.759327   -3.233788
     13          6           0       26.532246   -4.118343   -3.839656
     14          1           0       25.336258   -4.773800   -4.552787
     15          7           0       27.878532    2.391067    0.212414
     16          6           0       27.038830    2.594642   -0.837888
     17          6           0       26.642640    4.013956   -0.754379
     18          6           0       27.349559    4.619216    0.296390
     19          6           0       28.115732    3.594863    0.892646
     20          6           0       25.568836    4.553273   -1.609638
     21          6           0       27.378225    6.051039    0.744721
     22          8           0       27.979217    6.443004    1.783366
     23          6           0       26.759952    7.123058    0.029893
     24          7           0       29.752670    1.303044    2.217251
     25          6           0       29.698253    2.601191    2.622713
     26          6           0       30.509202    2.880143    3.826540
     27          6           0       31.084118    1.464023    4.189721
     28          6           0       30.623268    0.662345    3.030951
     29          6           0       31.625318    3.964943    3.871531
     30          6           0       30.695383    0.914857    5.650454
     31          6           0       29.360475    0.170976    5.951784
     32          7           0       29.788004   -1.184417    0.862835
     33          6           0       30.602817   -1.592589    1.879306
     34          6           0       30.867930   -2.959990    1.764671
     35          6           0       30.266259   -3.300984    0.492471
     36          6           0       29.604380   -2.188363    0.012699
     37          6           0       31.605323   -3.861374    2.753201
     38          6           0       29.997684   -4.431729   -0.348820
     39          8           0       30.206365   -5.625022   -0.266051
     40          6           0       29.276787   -3.838955   -1.609991
     41          6           0       30.197350   -3.846657   -2.764185
     42          8           0       30.680750   -2.844952   -3.336169
     43          8           0       30.544029   -5.078961   -3.195815
     44          6           0       31.276912   -5.231598   -4.498843
     45          1           0       26.169281    2.101055   -2.833459
     46          1           0       29.206550    4.614109    2.450711
     47          1           0       31.487557   -1.279558    3.712751
     48          1           0       28.201631   -1.907408   -4.093687
     49          1           0       25.994273   -0.276888   -3.840859
     50          1           0       28.397894    1.302921   -4.334723
     51          1           0       26.996506    1.085880   -5.269078
     52          1           0       28.360648   -0.086948   -5.451600
     53          1           0       25.494227   -2.309011   -3.815320
     54          1           0       25.961730   -2.808390   -2.198614
     55          1           0       26.838223   -4.785777   -3.033615
     56          1           0       27.359211   -4.183125   -4.546925
     57          1           0       24.789278    4.861691   -0.914221
     58          1           0       25.122358    3.921785   -2.378825
     59          1           0       25.930162    5.438563   -2.132840
     60          1           0       27.019373    6.955677   -1.015141
     61          1           0       26.981674    8.080576    0.499397
     62          1           0       25.675593    7.012767    0.017061
     63          1           0       29.709518    3.169836    4.507594
     64          1           0       32.170816    1.488210    4.117497
     65          1           0       31.375328    4.781733    4.548686
     66          1           0       31.764878    4.427411    2.893832
     67          1           0       32.607508    3.565853    4.124517
     68          1           0       30.654639    1.835832    6.232432
     69          1           0       31.592745    0.344612    5.891057
     70          1           0       28.767502   -0.097767    5.077945
     71          1           0       28.738803    0.601536    6.737310
     72          1           0       29.688851   -0.747598    6.436316
     73          1           0       32.454402   -4.365089    2.290022
     74          1           0       30.916733   -4.652127    3.050503
     75          1           0       31.902168   -3.370439    3.680379
     76          1           0       28.509407   -4.553247   -1.908842
     77          1           0       31.107630   -6.301945   -4.617163
     78          1           0       32.332427   -4.963146   -4.469796
     79          1           0       30.791682   -4.627519   -5.266111
     80         12           0      -29.640869   -0.229929   -0.071039
     81          6           0      -26.327336    0.414928   -0.906546
     82          6           0      -28.534113   -2.964286    1.751615
     83          6           0      -32.646310   -0.639304    1.242333
     84          6           0      -30.559868    2.787115   -1.496315
     85          7           0      -27.666328   -1.071656    0.506008
     86          6           0      -26.459447   -0.727212   -0.067309
     87          6           0      -25.352080   -1.672325    0.294362
     88          6           0      -26.167838   -2.934069    0.821461
     89          6           0      -27.530647   -2.309842    1.090440
     90          6           0      -26.143007   -4.342385    0.057836
     91          6           0      -24.247728   -1.084816    1.289979
     92          6           0      -24.708988   -0.038567    2.347827
     93          1           0      -24.095777   -0.225888    3.714752
     94          7           0      -30.464888   -1.540805    1.403452
     95          6           0      -29.832103   -2.622612    2.028348
     96          6           0      -30.698611   -3.262786    2.979654
     97          6           0      -31.932706   -2.578365    2.871674
     98          6           0      -31.745044   -1.514769    1.840412
     99          6           0      -30.284551   -4.581790    3.634037
    100          6           0      -33.168425   -2.992286    3.702817
    101          8           0      -33.112164   -3.873083    4.566989
    102          6           0      -34.428632   -2.313912    3.363963
    103          7           0      -31.291429    1.014593   -0.055334
    104          6           0      -32.499539    0.462166    0.335531
    105          6           0      -33.712441    1.346242   -0.029142
    106          6           0      -32.926265    2.545254   -0.701811
    107          6           0      -31.520521    2.136998   -0.716695
    108          6           0      -34.792021    0.789725   -0.902776
    109          6           0      -33.070055    3.927391    0.115166
    110          6           0      -33.380053    5.074919   -0.810341
    111          7           0      -28.711706    1.251951   -1.203713
    112          6           0      -29.221970    2.429885   -1.717135
    113          6           0      -28.150143    3.186250   -2.404092
    114          6           0      -26.973587    2.413591   -2.108260
    115          6           0      -27.387387    1.285815   -1.389797
    116          6           0      -28.154724    4.543946   -2.979844
    117          6           0      -25.500192    2.320951   -2.187579
    118          8           0      -24.705246    3.115702   -2.633470
    119          6           0      -25.037273    1.019191   -1.457535
    120          6           0      -24.255211    0.178595   -2.364887
    121          8           0      -23.082799   -0.190020   -2.290125
    122          8           0      -25.005170    0.063009   -3.564645
    123          6           0      -24.409936   -0.804145   -4.603899
    124          1           0      -28.183955   -3.941085    2.093282
    125          1           0      -33.708689   -0.781217    1.450731
    126          1           0      -30.966607    3.678478   -1.977253
    127          1           0      -24.776218   -1.935576   -0.592802
    128          1           0      -25.684636   -3.087761    1.786669
    129          1           0      -25.460804   -4.410912   -0.789329
    130          1           0      -27.097902   -4.615695   -0.390948
    131          1           0      -25.719422   -5.099885    0.717857
    132          1           0      -23.393277   -0.703445    0.731866
    133          1           0      -23.827483   -1.944652    1.811630
    134          1           0      -25.796147   -0.029205    2.431682
    135          1           0      -24.417164    0.961466    2.028273
    136          1           0      -30.693349   -4.724110    4.634901
    137          1           0      -29.207664   -4.574789    3.800416
    138          1           0      -30.659740   -5.367079    2.977370
    139          1           0      -34.757417   -2.664153    2.385983
    140          1           0      -34.284881   -1.233409    3.394539
    141          1           0      -35.134480   -2.635166    4.129857
    142          1           0      -34.090405    1.776698    0.898487
    143          1           0      -33.254099    2.484302   -1.739535
    144          1           0      -35.410011    1.641341   -1.187747
    145          1           0      -35.429365    0.174465   -0.267650
    146          1           0      -34.360886    0.236204   -1.737788
    147          1           0      -32.136667    4.057496    0.662699
    148          1           0      -33.773874    3.940921    0.948328
    149          1           0      -32.504862    5.723474   -0.841054
    150          1           0      -34.101032    5.771455   -0.381116
    151          1           0      -33.518704    4.703406   -1.825446
    152          1           0      -29.107398    5.074174   -2.940054
    153          1           0      -27.928339    4.418180   -4.038063
    154          1           0      -27.506180    5.057068   -2.270060
    155          1           0      -24.431579    1.375998   -0.624843
    156          1           0      -25.270979   -1.391113   -4.925595
    157          1           0      -23.599569   -1.493139   -4.365632
    158          1           0      -24.242884   -0.135234   -5.448349
 ---------------------------------------------------------------------

 SCF Done:  E(RwB97XD) =  -4070.61468869     A.U. after   20 cycles

 Excitation energies and oscillator strengths:

 Excited State   1:      Singlet-A      1.6445 eV  753.92 nm  f=0.3802  <S**2>=0.000
     310 -> 316        0.18304
     312 -> 313        0.68254
     310 <- 316        0.11718
 This state for optimization and/or second-order correction.
 Total Energy, E(TD-HF/TD-DFT) =  -4070.55425380
 Copying the excited state density for this state as the 1-particle RhoCI density.

 Excited State   2:      Singlet-A      1.6615 eV  746.21 nm  f=0.3754  <S**2>=0.000
     309 -> 315        0.18777
     311 -> 314        0.68146
     309 <- 315        0.11476

 Excited State   3:      Singlet-A      2.1479 eV  577.22 nm  f=0.0868  <S**2>=0.000
     309 -> 314        0.62834
     311 -> 315       -0.30687

 Excited State   4:      Singlet-A      2.1515 eV  576.26 nm  f=0.1374  <S**2>=0.000
     310 -> 313        0.64863
     312 -> 316       -0.26447

 Excited State   5:      Singlet-A      3.3481 eV  370.31 nm  f=0.0040  <S**2>=0.000
     305 -> 313       -0.19108
     308 -> 313        0.65675

 The electronic state is 1-A.
 Alpha  occ. eigenvalues --  -46.95460 -46.93865 -19.29590 -19.29248 -19.25500
 Alpha  occ. eigenvalues --  -19.24071 -19.23886 -19.23257 -19.23179 -19.22982
 Alpha  occ. eigenvalues --  -14.46854 -14.46798 -14.46595 -14.46433 -14.44271
 Alpha  occ. eigenvalues --  -14.44135 -14.43783 -14.42937 -10.43611 -10.42343
 Alpha  occ. eigenvalues --  -10.39154 -10.39087 -10.38452 -10.38170 -10.35737
 Alpha  occ. eigenvalues --  -10.35698 -10.35222 -10.35034 -10.34986 -10.34780
 Alpha  occ. eigenvalues --  -10.34743 -10.34677 -10.34654 -10.34472 -10.34149
 Alpha  occ. eigenvalues --  -10.34117 -10.34094 -10.34067 -10.33406 -10.32956
 Alpha  occ. eigenvalues --  -10.32861 -10.32807 -10.32626 -10.32580 -10.32521
 Alpha  occ. eigenvalues --  -10.32495 -10.32389 -10.32386 -10.32326 -10.32287
 Alpha  occ. eigenvalues --  -10.32255 -10.32204 -10.32122 -10.31867 -10.31848
 Alpha  occ. eigenvalues --  -10.31730 -10.31694 -10.31435 -10.31404 -10.31337
 Alpha  occ. eigenvalues --  -10.31312 -10.31216 -10.31107 -10.31102 -10.31074
 Alpha  occ. eigenvalues --  -10.31023 -10.30879 -10.30836 -10.30819 -10.30797
 Alpha  occ. eigenvalues --  -10.30782 -10.30758 -10.30751 -10.30179 -10.30088
 Alpha  occ. eigenvalues --  -10.30076 -10.29942 -10.29914 -10.29908 -10.29834
 Alpha  occ. eigenvalues --  -10.29766 -10.29576 -10.29518 -10.29497 -10.29454
 Alpha  occ. eigenvalues --  -10.28639  -3.21430  -3.19992  -1.95002  -1.94568
 Alpha  occ. eigenvalues --   -1.94392  -1.93597  -1.93126  -1.92971  -1.17272
 Alpha  occ. eigenvalues --   -1.16983  -1.12619  -1.11744  -1.11603  -1.10131
 Alpha  occ. eigenvalues --   -1.09122  -1.07242  -1.07071  -1.06865  -1.06100
 Alpha  occ. eigenvalues --   -1.05733  -1.05235  -1.05228  -1.04401  -1.04266
 Alpha  occ. eigenvalues --   -0.95053  -0.94442  -0.91517  -0.91176  -0.90869
 Alpha  occ. eigenvalues --   -0.90317  -0.90187  -0.89894  -0.89571  -0.89520
 Alpha  occ. eigenvalues --   -0.88914  -0.88825  -0.88167  -0.88030  -0.86740
 Alpha  occ. eigenvalues --   -0.86373  -0.86263  -0.85547  -0.84714  -0.84671
 Alpha  occ. eigenvalues --   -0.84326  -0.84285  -0.82909  -0.82806  -0.82479
 Alpha  occ. eigenvalues --   -0.82116  -0.80506  -0.80246  -0.79467  -0.79406
 Alpha  occ. eigenvalues --   -0.78771  -0.78758  -0.78152  -0.78115  -0.77714
 Alpha  occ. eigenvalues --   -0.77215  -0.75073  -0.74641  -0.74134  -0.73298
 Alpha  occ. eigenvalues --   -0.72007  -0.71367  -0.71251  -0.70706  -0.70092
 Alpha  occ. eigenvalues --   -0.69949  -0.69087  -0.68835  -0.68354  -0.67118
 Alpha  occ. eigenvalues --   -0.67002  -0.66911  -0.66607  -0.66524  -0.66351
 Alpha  occ. eigenvalues --   -0.65999  -0.64540  -0.63459  -0.62262  -0.61940
 Alpha  occ. eigenvalues --   -0.61590  -0.61410  -0.61127  -0.60947  -0.60572
 Alpha  occ. eigenvalues --   -0.60284  -0.59708  -0.59521  -0.59273  -0.59207
 Alpha  occ. eigenvalues --   -0.58306  -0.58134  -0.57777  -0.57540  -0.57354
 Alpha  occ. eigenvalues --   -0.57056  -0.56856  -0.56558  -0.56328  -0.55805
 Alpha  occ. eigenvalues --   -0.55754  -0.55172  -0.54872  -0.54822  -0.54661
 Alpha  occ. eigenvalues --   -0.54569  -0.54435  -0.54361  -0.54119  -0.53946
 Alpha  occ. eigenvalues --   -0.53924  -0.53792  -0.53552  -0.53054  -0.52988
 Alpha  occ. eigenvalues --   -0.52777  -0.52758  -0.52379  -0.52276  -0.52241
 Alpha  occ. eigenvalues --   -0.52074  -0.51698  -0.51561  -0.51551  -0.51505
 Alpha  occ. eigenvalues --   -0.51350  -0.51264  -0.50893  -0.50767  -0.50700
 Alpha  occ. eigenvalues --   -0.50510  -0.50342  -0.50197  -0.50107  -0.50076
 Alpha  occ. eigenvalues --   -0.49816  -0.49691  -0.49688  -0.49213  -0.49156
 Alpha  occ. eigenvalues --   -0.48882  -0.48678  -0.48472  -0.48443  -0.48224
 Alpha  occ. eigenvalues --   -0.48152  -0.48145  -0.47904  -0.47668  -0.47592
 Alpha  occ. eigenvalues --   -0.47329  -0.47288  -0.47166  -0.47072  -0.47067
 Alpha  occ. eigenvalues --   -0.46918  -0.46867  -0.46685  -0.46642  -0.46583
 Alpha  occ. eigenvalues --   -0.46158  -0.45881  -0.45871  -0.45803  -0.45682
 Alpha  occ. eigenvalues --   -0.45367  -0.45333  -0.45175  -0.45054  -0.44821
 Alpha  occ. eigenvalues --   -0.44757  -0.44673  -0.44458  -0.44379  -0.44073
 Alpha  occ. eigenvalues --   -0.43968  -0.43683  -0.43590  -0.43504  -0.43394
 Alpha  occ. eigenvalues --   -0.43132  -0.43016  -0.42672  -0.42381  -0.42219
 Alpha  occ. eigenvalues --   -0.41992  -0.41887  -0.41576  -0.41023  -0.40810
 Alpha  occ. eigenvalues --   -0.40443  -0.40117  -0.39971  -0.39792  -0.39411
 Alpha  occ. eigenvalues --   -0.38915  -0.38831  -0.38558  -0.38523  -0.38372
 Alpha  occ. eigenvalues --   -0.37668  -0.37592  -0.37156  -0.36782  -0.36288
 Alpha  occ. eigenvalues --   -0.35580  -0.35432  -0.34742  -0.33509  -0.33198
 Alpha  occ. eigenvalues --   -0.33152  -0.32806  -0.32529  -0.32179  -0.32141
 Alpha  occ. eigenvalues --   -0.31912  -0.31842  -0.31471  -0.26028  -0.25537
 Alpha  occ. eigenvalues --   -0.23031  -0.22900
 Alpha virt. eigenvalues --   -0.07029  -0.07018  -0.00324   0.00627   0.02712
 Alpha virt. eigenvalues --    0.02768   0.04476   0.04551   0.04848   0.06200
 Alpha virt. eigenvalues --    0.06649   0.07452   0.07507   0.08103   0.08435

 Mulliken charges:
               1
     1  Mg   0.984057
     2  C   -0.026339
     3  C   -0.065061
     4  C   -0.072350
     5  C   -0.099215
     6  N   -0.335799
     7  C   -0.019286
     8  C   -0.045859
     9  C   -0.130770
    10  C    0.025555
    11  C    0.037445
    12  C    0.055225
    13  C   -0.144145
    14  H    0.038421
    15  N   -0.481579
    16  C    0.183503
    17  C   -0.191467
    18  C   -0.022604
    19  C    0.131691
    20  C    0.056544
    21  C    0.038504
    22  O   -0.281122
    23  C    0.024524
    24  N   -0.375204
    25  C    0.076487
    26  C   -0.094215
    27  C   -0.055062
    28  C    0.063502
    29  C    0.027624
    30  C   -0.032299
    31  C   -0.043697
    32  N   -0.452866
    33  C    0.130527
    34  C   -0.169480
    35  C   -0.056352
    36  C    0.215885
    37  C    0.092258
    38  C    0.091611
    39  O   -0.190104
    40  C   -0.123886
    41  C    0.263151
    42  O   -0.290775
    43  O   -0.356974
    44  C    0.146671
    45  H   -0.008987
    46  H    0.021566
    47  H   -0.013542
    48  H    0.038406
    49  H    0.026780
    50  H    0.047593
    51  H    0.032133
    52  H    0.052276
    53  H    0.035815
    54  H    0.047036
    55  H    0.065148
    56  H    0.052652
    57  H    0.057369
    58  H    0.043360
    59  H    0.035764
    60  H    0.042670
    61  H    0.066633
    62  H    0.043748
    63  H    0.047311
    64  H    0.036181
    65  H    0.044666
    66  H    0.039205
    67  H    0.036222
    68  H    0.035238
    69  H    0.040147
    70  H    0.056361
    71  H    0.040427
    72  H    0.028969
    73  H    0.060696
    74  H    0.053775
    75  H    0.024477
    76  H    0.056514
    77  H    0.066032
    78  H    0.067012
    79  H    0.053674
    80  Mg   0.956666
    81  C   -0.040794
    82  C   -0.109829
    83  C   -0.099613
    84  C   -0.098511
    85  N   -0.351177
    86  C    0.005550
    87  C   -0.079540
    88  C   -0.049996
    89  C    0.025462
    90  C    0.014884
    91  C   -0.013937
    92  C   -0.131276
    93  H    0.040645
    94  N   -0.438383
    95  C    0.180752
    96  C   -0.147271
    97  C   -0.107006
    98  C    0.207000
    99  C    0.079893
   100  C    0.051295
   101  O   -0.236334
   102  C   -0.010351
   103  N   -0.369082
   104  C    0.022518
   105  C   -0.081687
   106  C   -0.120621
   107  C    0.043074
   108  C    0.052825
   109  C   -0.004587
   110  C   -0.029185
   111  N   -0.430993
   112  C    0.160529
   113  C   -0.200468
   114  C   -0.051357
   115  C    0.127719
   116  C    0.085782
   117  C    0.113340
   118  O   -0.186409
   119  C   -0.040960
   120  C    0.283634
   121  O   -0.239909
   122  O   -0.406698
   123  C    0.140516
   124  H   -0.005319
   125  H   -0.020547
   126  H   -0.017678
   127  H    0.039137
   128  H    0.033400
   129  H    0.033381
   130  H    0.047825
   131  H    0.043642
   132  H    0.053297
   133  H    0.034487
   134  H    0.067884
   135  H    0.053310
   136  H    0.060250
   137  H    0.036803
   138  H    0.064856
   139  H    0.070839
   140  H    0.065191
   141  H    0.051354
   142  H    0.031712
   143  H    0.032438
   144  H    0.042845
   145  H    0.037346
   146  H    0.047646
   147  H    0.039935
   148  H    0.030714
   149  H    0.027366
   150  H    0.038725
   151  H    0.043353
   152  H    0.019166
   153  H    0.066778
   154  H    0.074748
   155  H    0.069290
   156  H    0.037396
   157  H    0.075531
   158  H    0.056790
 Sum of Mulliken charges =  -0.00000

 Dipole moment (field-independent basis, Debye):
    X=             -7.1340    Y=              1.0084    Z=             -3.3315  Tot=              7.9379
 Quadrupole moment (field-independent basis, Debye-Ang):
   XX=           -321.2963   YY=           -529.3289   ZZ=           -489.4087
   XY=             37.6292   XZ=             70.9162   YZ=             15.2711

 Normal termination of Gaussian 16 at Sat Sep 18 20:58:19 2021.
