 Gaussian 16, Revision A.03,
 Gaussian 16:  ES64L-G16RevA.03 25-Dec-2016

 --------------------------------
 #p wB97XD/Def2SVP td=(nstates=5)
 --------------------------------

 --------------------------------
 TDDFT excited states in gaussian
 --------------------------------
 Symbolic Z-matrix:
 Charge =  0 Multiplicity = 1

                         Standard orientation:
 ---------------------------------------------------------------------
 Center     Atomic      Atomic             Coordinates (Angstroms)
 Number     Number       Type             X           Y           Z
 ---------------------------------------------------------------------
      1         12           0      -29.270518    0.380937    0.480212
      2          6           0      -27.909974   -2.084460   -1.594318
      3          6           0      -29.580958    2.331233   -2.372500
      4          6           0      -30.131279    2.826208    2.442611
      5          6           0      -28.629554   -1.731508    3.249764
      6          7           0      -28.414398    0.294452   -1.717614
      7          6           0      -28.068252   -0.851748   -2.312450
      8          6           0      -27.916919   -0.578775   -3.771640
      9          6           0      -28.035756    0.959012   -3.908241
     10          6           0      -28.751265    1.245894   -2.603040
     11          6           0      -26.777586    1.805968   -4.107334
     12          6           0      -28.997152   -1.322435   -4.619535
     13          6           0      -28.544867   -2.150404   -5.865523
     14          1           0      -27.271823   -1.707577   -6.652075
     15          7           0      -29.940287    2.310311    0.064660
     16          6           0      -30.158905    2.821524   -1.207751
     17          6           0      -30.750881    4.107673   -1.031784
     18          6           0      -30.813731    4.355173    0.398020
     19          6           0      -30.304055    3.160438    1.054314
     20          6           0      -31.106685    5.074938   -2.181958
     21          6           0      -31.252717    5.632850    1.169615
     22          8           0      -31.248224    5.739288    2.354969
     23          6           0      -31.775222    6.774504    0.319909
     24          7           0      -29.365266    0.483622    2.536714
     25          6           0      -29.697403    1.655521    3.122989
     26          6           0      -29.712165    1.601903    4.675561
     27          6           0      -29.487072    0.044430    4.895859
     28          6           0      -29.164757   -0.471049    3.498277
     29          6           0      -28.565510    2.589033    5.297968
     30          6           0      -30.655050   -0.657852    5.657063
     31          6           0      -31.696617   -1.395168    4.834597
     32          7           0      -28.473648   -1.558416    0.842624
     33          6           0      -28.364925   -2.297970    1.989269
     34          6           0      -27.805681   -3.646905    1.624655
     35          6           0      -27.622262   -3.584351    0.224778
     36          6           0      -28.000228   -2.277604   -0.229715
     37          6           0      -27.355369   -4.740153    2.555151
     38          6           0      -27.168380   -4.325919   -0.949160
     39          8           0      -26.719418   -5.474805   -0.994640
     40          6           0      -27.495874   -3.440060   -2.147516
     41          6           0      -26.235612   -3.375863   -2.961941
     42          8           0      -25.267289   -2.685091   -2.702719
     43          8           0      -26.338781   -4.340243   -3.861584
     44          6           0      -25.126364   -4.797101   -4.522537
     45          1           0      -29.548238    2.998426   -3.235809
     46          1           0      -30.586018    3.566099    3.104127
     47          1           0      -28.446500   -2.387793    4.103496
     48          1           0      -26.939472   -0.937824   -4.092226
     49          1           0      -28.623317    1.134541   -4.809481
     50          1           0      -25.835920    1.262866   -4.189326
     51          1           0      -26.674669    2.524719   -3.293893
     52          1           0      -26.933433    2.361075   -5.032093
     53          1           0      -29.833848   -0.688023   -4.911299
     54          1           0      -29.381723   -1.994779   -3.852744
     55          1           0      -29.403297   -2.085127   -6.535248
     56          1           0      -28.401928   -3.186474   -5.559618
     57          1           0      -30.674255    6.067965   -2.059084
     58          1           0      -32.172184    5.302667   -2.216489
     59          1           0      -30.844613    4.710609   -3.176157
     60          1           0      -32.551851    6.461208   -0.378104
     61          1           0      -30.923790    7.238974   -0.177672
     62          1           0      -32.113998    7.593907    0.953845
     63          1           0      -30.667535    1.915664    5.095825
     64          1           0      -28.640067   -0.176635    5.545177
     65          1           0      -27.806294    1.908567    5.683764
     66          1           0      -28.892303    3.127828    6.187631
     67          1           0      -28.057352    3.204949    4.555136
     68          1           0      -31.212016    0.170376    6.095383
     69          1           0      -30.301974   -1.298057    6.465246
     70          1           0      -31.899834   -0.719833    4.002604
     71          1           0      -32.514123   -1.472456    5.551022
     72          1           0      -31.455571   -2.336343    4.341111
     73          1           0      -27.357396   -4.547950    3.628113
     74          1           0      -26.329390   -5.016456    2.311583
     75          1           0      -27.961463   -5.605027    2.287288
     76          1           0      -28.197930   -3.874973   -2.859174
     77          1           0      -24.155242   -4.417959   -4.205910
     78          1           0      -25.254491   -4.418316   -5.537007
     79          1           0      -25.264579   -5.842643   -4.798199
     80         12           0       29.071317    0.500740   -0.569291
     81          6           0       27.699720   -2.363246    0.837602
     82          6           0       26.128158    2.260559    0.324807
     83          6           0       30.717864    3.396790   -0.826065
     84          6           0       32.144183   -1.217003   -0.757744
     85          7           0       27.221287    0.047368    0.817770
     86          6           0       26.829751   -1.255758    1.009856
     87          6           0       25.451671   -1.335335    1.587903
     88          6           0       24.854579    0.091299    1.187183
     89          6           0       26.129434    0.905156    0.767467
     90          6           0       23.729575    0.086179    0.033487
     91          6           0       25.512512   -1.727850    3.153046
     92          6           0       24.331433   -2.388480    3.657858
     93          1           0       23.704278   -1.685366    4.880321
     94          7           0       28.492000    2.533318   -0.474839
     95          6           0       27.223999    3.055042   -0.094052
     96          6           0       27.290250    4.501089   -0.221522
     97          6           0       28.609614    4.872194   -0.577815
     98          6           0       29.329964    3.563294   -0.728123
     99          6           0       26.155635    5.377069    0.159816
    100          6           0       29.112875    6.370686   -0.706604
    101          8           0       28.284085    7.255330   -0.498036
    102          6           0       30.444101    6.723281   -1.361271
    103          7           0       31.132600    0.962932   -0.659374
    104          6           0       31.505210    2.248195   -0.885472
    105          6           0       33.146016    2.436894   -0.945290
    106          6           0       33.585929    0.907334   -1.141548
    107          6           0       32.257118    0.132379   -0.873450
    108          6           0       33.692542    3.328349   -2.123952
    109          6           0       34.692680    0.471837   -0.179326
    110          6           0       36.040373   -0.069934   -0.713219
    111          7           0       29.712278   -1.449114   -0.343296
    112          6           0       30.957512   -1.988070   -0.489284
    113          6           0       30.872848   -3.414611   -0.338760
    114          6           0       29.565307   -3.577859    0.255854
    115          6           0       28.942131   -2.318262    0.255165
    116          6           0       32.002800   -4.395137   -0.465364
    117          6           0       28.700693   -4.545386    0.898630
    118          8           0       28.791437   -5.733807    0.960353
    119          6           0       27.354643   -3.817750    1.285892
    120          6           0       26.108760   -4.313198    0.518988
    121          8           0       26.044213   -4.434544   -0.685451
    122          8           0       25.108667   -4.693292    1.437629
    123          6           0       23.950078   -5.339403    0.898947
    124          1           0       25.170799    2.728882    0.559389
    125          1           0       31.334168    4.286654   -0.683151
    126          1           0       33.112960   -1.711509   -0.849354
    127          1           0       24.793961   -1.982312    1.006515
    128          1           0       24.427221    0.540497    2.084395
    129          1           0       22.843555    0.517239    0.499420
    130          1           0       23.526143   -0.910716   -0.356334
    131          1           0       24.096153    0.748965   -0.750907
    132          1           0       25.614663   -0.762383    3.648283
    133          1           0       26.463249   -2.259977    3.195112
    134          1           0       24.643778   -3.396372    3.928521
    135          1           0       23.553941   -2.399676    2.894048
    136          1           0       25.234104    4.809256    0.286916
    137          1           0       25.930938    6.068887   -0.652357
    138          1           0       26.350496    5.890202    1.101822
    139          1           0       31.314200    6.380933   -0.800182
    140          1           0       30.469098    7.806367   -1.485681
    141          1           0       30.437637    6.286779   -2.360097
    142          1           0       33.391997    2.778460    0.059785
    143          1           0       33.820616    0.624840   -2.168045
    144          1           0       34.130596    4.241186   -1.721345
    145          1           0       32.869856    3.595648   -2.788238
    146          1           0       34.445549    2.732412   -2.640764
    147          1           0       34.320041   -0.222119    0.573768
    148          1           0       35.002809    1.235695    0.533543
    149          1           0       36.252612   -1.128832   -0.563114
    150          1           0       36.800529    0.458290   -0.137176
    151          1           0       36.146572    0.117899   -1.782325
    152          1           0       31.554761   -5.379948   -0.599979
    153          1           0       32.509048   -4.640061    0.467821
    154          1           0       32.762233   -4.131766   -1.201097
    155          1           0       27.236245   -4.074599    2.338933
    156          1           0       23.210502   -5.063526    1.651325
    157          1           0       24.013869   -6.424616    0.976653
    158          1           0       23.774613   -5.029564   -0.130476
 ---------------------------------------------------------------------

 SCF Done:  E(RwB97XD) =  -4070.58021350     A.U. after   19 cycles

 Excitation energies and oscillator strengths:

 Excited State   1:      Singlet-A      1.6352 eV  758.24 nm  f=0.3851  <S**2>=0.000
     309 -> 315        0.17852
     311 -> 313        0.68608
     309 <- 315        0.11658
 This state for optimization and/or second-order correction.
 Total Energy, E(TD-HF/TD-DFT) =  -4070.52012276
 Copying the excited state density for this state as the 1-particle RhoCI density.

 Excited State   2:      Singlet-A      1.6771 eV  739.26 nm  f=0.3981  <S**2>=0.000
     310 -> 316       -0.19189
     312 -> 314        0.68164
     310 <- 316       -0.11864

 Excited State   3:      Singlet-A      2.1599 eV  574.03 nm  f=0.0978  <S**2>=0.000
     310 -> 314        0.64013
     312 -> 316        0.28507

 Excited State   4:      Singlet-A      2.1962 eV  564.55 nm  f=0.1043  <S**2>=0.000
     309 -> 313        0.63441
     311 -> 315       -0.29409

 Excited State   5:      Singlet-A      3.3634 eV  368.62 nm  f=0.0023  <S**2>=0.000
     305 -> 314       -0.35545
     308 -> 314        0.58041

 The electronic state is 1-A.
 Alpha  occ. eigenvalues --  -46.96145 -46.95128 -19.31508 -19.30343 -19.25652
 Alpha  occ. eigenvalues --  -19.24761 -19.24637 -19.24551 -19.23561 -19.23243
 Alpha  occ. eigenvalues --  -14.46922 -14.46611 -14.46360 -14.46184 -14.44832
 Alpha  occ. eigenvalues --  -14.43948 -14.43620 -14.43296 -10.43938 -10.43039
 Alpha  occ. eigenvalues --  -10.40415 -10.39559 -10.38388 -10.37972 -10.35902
 Alpha  occ. eigenvalues --  -10.35821 -10.35702 -10.35321 -10.35295 -10.35172
 Alpha  occ. eigenvalues --  -10.35136 -10.35114 -10.34783 -10.34751 -10.34523
 Alpha  occ. eigenvalues --  -10.34450 -10.33698 -10.33626 -10.33595 -10.33532
 Alpha  occ. eigenvalues --  -10.33482 -10.33351 -10.33347 -10.32913 -10.32709
 Alpha  occ. eigenvalues --  -10.32692 -10.32558 -10.32545 -10.32435 -10.32401
 Alpha  occ. eigenvalues --  -10.32383 -10.32342 -10.32251 -10.32132 -10.32093
 Alpha  occ. eigenvalues --  -10.32021 -10.31992 -10.31703 -10.31679 -10.31620
 Alpha  occ. eigenvalues --  -10.31189 -10.31119 -10.31041 -10.30947 -10.30739
 Alpha  occ. eigenvalues --  -10.30715 -10.30625 -10.30597 -10.30580 -10.30490
 Alpha  occ. eigenvalues --  -10.30423 -10.30360 -10.30357 -10.30336 -10.30268
 Alpha  occ. eigenvalues --  -10.30203 -10.29946 -10.29938 -10.29801 -10.29663
 Alpha  occ. eigenvalues --  -10.29524 -10.29422 -10.29211 -10.29035 -10.28891
 Alpha  occ. eigenvalues --  -10.28629  -3.22029  -3.21034  -1.95560  -1.95203
 Alpha  occ. eigenvalues --   -1.94959  -1.94629  -1.94192  -1.93963  -1.20565
 Alpha  occ. eigenvalues --   -1.18224  -1.13516  -1.12985  -1.12553  -1.11921
 Alpha  occ. eigenvalues --   -1.10918  -1.10896  -1.07023  -1.06892  -1.05779
 Alpha  occ. eigenvalues --   -1.04966  -1.04674  -1.04380  -1.03856  -1.03630
 Alpha  occ. eigenvalues --   -0.95405  -0.94188  -0.91099  -0.90590  -0.90486
 Alpha  occ. eigenvalues --   -0.90264  -0.90065  -0.89933  -0.89028  -0.88801
 Alpha  occ. eigenvalues --   -0.88382  -0.88232  -0.87761  -0.87431  -0.86381
 Alpha  occ. eigenvalues --   -0.85992  -0.85616  -0.85237  -0.84614  -0.84505
 Alpha  occ. eigenvalues --   -0.84158  -0.83348  -0.83096  -0.82701  -0.82220
 Alpha  occ. eigenvalues --   -0.81959  -0.79875  -0.79749  -0.79309  -0.79296
 Alpha  occ. eigenvalues --   -0.78908  -0.78687  -0.78227  -0.78048  -0.77034
 Alpha  occ. eigenvalues --   -0.76889  -0.74692  -0.74649  -0.73692  -0.73328
 Alpha  occ. eigenvalues --   -0.71461  -0.71138  -0.70888  -0.70409  -0.70000
 Alpha  occ. eigenvalues --   -0.69403  -0.68474  -0.68064  -0.67846  -0.67246
 Alpha  occ. eigenvalues --   -0.66905  -0.66831  -0.66627  -0.66450  -0.66336
 Alpha  occ. eigenvalues --   -0.66095  -0.64812  -0.64792  -0.61834  -0.61695
 Alpha  occ. eigenvalues --   -0.61652  -0.61433  -0.61178  -0.60980  -0.60522
 Alpha  occ. eigenvalues --   -0.60480  -0.60104  -0.59976  -0.59452  -0.59303
 Alpha  occ. eigenvalues --   -0.58836  -0.58329  -0.58002  -0.57281  -0.56940
 Alpha  occ. eigenvalues --   -0.56917  -0.56743  -0.56684  -0.56645  -0.55924
 Alpha  occ. eigenvalues --   -0.55590  -0.55210  -0.55178  -0.54830  -0.54674
 Alpha  occ. eigenvalues --   -0.54496  -0.54449  -0.54408  -0.54036  -0.53895
 Alpha  occ. eigenvalues --   -0.53690  -0.53606  -0.53585  -0.53340  -0.53143
 Alpha  occ. eigenvalues --   -0.52995  -0.52952  -0.52703  -0.52155  -0.52131
 Alpha  occ. eigenvalues --   -0.52010  -0.51678  -0.51623  -0.51576  -0.51321
 Alpha  occ. eigenvalues --   -0.51145  -0.51104  -0.51042  -0.50757  -0.50708
 Alpha  occ. eigenvalues --   -0.50627  -0.50361  -0.50311  -0.50015  -0.49921
 Alpha  occ. eigenvalues --   -0.49887  -0.49795  -0.49256  -0.49218  -0.48989
 Alpha  occ. eigenvalues --   -0.48917  -0.48816  -0.48349  -0.48320  -0.48073
 Alpha  occ. eigenvalues --   -0.47927  -0.47878  -0.47832  -0.47791  -0.47597
 Alpha  occ. eigenvalues --   -0.47571  -0.47534  -0.47322  -0.47166  -0.46955
 Alpha  occ. eigenvalues --   -0.46877  -0.46745  -0.46733  -0.46426  -0.46425
 Alpha  occ. eigenvalues --   -0.46019  -0.45892  -0.45705  -0.45446  -0.45349
 Alpha  occ. eigenvalues --   -0.45327  -0.45166  -0.45070  -0.45028  -0.44901
 Alpha  occ. eigenvalues --   -0.44718  -0.44635  -0.44613  -0.44420  -0.44169
 Alpha  occ. eigenvalues --   -0.44103  -0.43709  -0.43546  -0.43380  -0.43107
 Alpha  occ. eigenvalues --   -0.42951  -0.42945  -0.42878  -0.42597  -0.42353
 Alpha  occ. eigenvalues --   -0.42165  -0.41705  -0.41537  -0.41195  -0.40606
 Alpha  occ. eigenvalues --   -0.40286  -0.40171  -0.39688  -0.39188  -0.39034
 Alpha  occ. eigenvalues --   -0.39022  -0.38786  -0.38669  -0.38425  -0.38230
 Alpha  occ. eigenvalues --   -0.38146  -0.37562  -0.36742  -0.36414  -0.36238
 Alpha  occ. eigenvalues --   -0.36087  -0.35530  -0.35341  -0.33578  -0.33447
 Alpha  occ. eigenvalues --   -0.33445  -0.33002  -0.32425  -0.32276  -0.32150
 Alpha  occ. eigenvalues --   -0.31933  -0.31289  -0.31073  -0.26252  -0.25719
 Alpha  occ. eigenvalues --   -0.22976  -0.22879
 Alpha virt. eigenvalues --   -0.07115  -0.06831   0.00260   0.00396   0.02217
 Alpha virt. eigenvalues --    0.02521   0.04263   0.04502   0.04988   0.05889
 Alpha virt. eigenvalues --    0.06736   0.07095   0.07694   0.07866   0.08195

 Mulliken charges:
               1
     1  Mg   0.943591
     2  C   -0.010017
     3  C   -0.053541
     4  C   -0.049873
     5  C   -0.089502
     6  N   -0.281327
     7  C    0.032703
     8  C   -0.102709
     9  C   -0.078974
    10  C   -0.023272
    11  C    0.044046
    12  C   -0.007960
    13  C   -0.108862
    14  H    0.034719
    15  N   -0.486424
    16  C    0.194193
    17  C   -0.162011
    18  C   -0.110911
    19  C    0.127611
    20  C    0.066727
    21  C    0.057661
    22  O   -0.197960
    23  C   -0.025152
    24  N   -0.388382
    25  C    0.068161
    26  C   -0.106285
    27  C   -0.052072
    28  C    0.081503
    29  C    0.014969
    30  C   -0.034386
    31  C   -0.035114
    32  N   -0.430951
    33  C    0.126408
    34  C   -0.181580
    35  C   -0.031517
    36  C    0.145012
    37  C    0.072001
    38  C    0.142825
    39  O   -0.213885
    40  C   -0.092529
    41  C    0.223699
    42  O   -0.247852
    43  O   -0.327074
    44  C    0.146649
    45  H   -0.006246
    46  H    0.024700
    47  H   -0.006535
    48  H    0.040552
    49  H    0.020993
    50  H    0.046974
    51  H    0.041494
    52  H    0.029956
    53  H    0.038454
    54  H    0.025567
    55  H    0.052999
    56  H    0.060553
    57  H    0.037199
    58  H    0.040634
    59  H    0.034231
    60  H    0.057441
    61  H    0.052170
    62  H    0.039926
    63  H    0.050016
    64  H    0.031433
    65  H    0.019121
    66  H    0.045894
    67  H    0.058990
    68  H    0.022767
    69  H    0.029636
    70  H    0.030058
    71  H    0.044296
    72  H    0.041681
    73  H    0.038407
    74  H    0.061889
    75  H    0.059407
    76  H    0.073356
    77  H    0.085485
    78  H    0.026941
    79  H    0.057207
    80  Mg   0.960934
    81  C   -0.078195
    82  C   -0.075599
    83  C   -0.094077
    84  C   -0.091105
    85  N   -0.325404
    86  C   -0.039483
    87  C   -0.084305
    88  C   -0.134185
    89  C    0.034746
    90  C    0.014948
    91  C    0.052932
    92  C   -0.094258
    93  H    0.019852
    94  N   -0.466635
    95  C    0.174628
    96  C   -0.161864
    97  C   -0.102852
    98  C    0.203984
    99  C    0.095529
   100  C    0.076036
   101  O   -0.234477
   102  C   -0.028121
   103  N   -0.403737
   104  C    0.073677
   105  C   -0.123912
   106  C   -0.024149
   107  C    0.034665
   108  C    0.024337
   109  C   -0.029747
   110  C   -0.054235
   111  N   -0.416275
   112  C    0.139613
   113  C   -0.160925
   114  C   -0.085620
   115  C    0.221585
   116  C    0.066567
   117  C    0.108961
   118  O   -0.181737
   119  C   -0.079727
   120  C    0.276192
   121  O   -0.220965
   122  O   -0.387187
   123  C    0.130548
   124  H    0.011424
   125  H   -0.019720
   126  H   -0.007350
   127  H    0.027357
   128  H    0.037138
   129  H    0.043869
   130  H    0.052437
   131  H    0.042170
   132  H    0.036894
   133  H    0.036990
   134  H    0.063424
   135  H    0.049677
   136  H    0.010715
   137  H    0.056745
   138  H    0.066353
   139  H    0.071090
   140  H    0.057631
   141  H    0.067764
   142  H    0.055943
   143  H    0.043567
   144  H    0.039925
   145  H    0.046116
   146  H    0.045226
   147  H    0.031545
   148  H    0.018913
   149  H    0.040055
   150  H    0.034070
   151  H    0.032255
   152  H    0.049866
   153  H    0.043570
   154  H    0.043558
   155  H    0.072515
   156  H    0.046060
   157  H    0.054215
   158  H    0.067039
 Sum of Mulliken charges =  -0.00000

 Dipole moment (field-independent basis, Debye):
    X=             -0.1310    Y=              2.3079    Z=             -2.7464  Tot=              3.5897
 Quadrupole moment (field-independent basis, Debye-Ang):
   XX=           -295.3125   YY=           -562.6155   ZZ=           -472.8700
   XY=            101.2268   XZ=             34.2600   YZ=            -18.8814

 Normal termination of Gaussian 16 at Mon Sep 20 19:46:52 2021.
