 Gaussian 16, Revision A.03,
 Gaussian 16:  ES64L-G16RevA.03 25-Dec-2016

 --------------------------------
 #p wB97XD/Def2SVP td=(nstates=5)
 --------------------------------

 --------------------------------
 TDDFT excited states in gaussian
 --------------------------------
 Symbolic Z-matrix:
 Charge =  0 Multiplicity = 1

                         Standard orientation:
 ---------------------------------------------------------------------
 Center     Atomic      Atomic             Coordinates (Angstroms)
 Number     Number       Type             X           Y           Z
 ---------------------------------------------------------------------
      1         12           0       26.459080    0.279393    0.188099
      2          6           0       23.688137   -1.800133   -0.380871
      3          6           0       27.727827   -0.748961   -2.791012
      4          6           0       28.742891    2.575298    0.645724
      5          6           0       24.456569    1.749660    2.794758
      6          7           0       25.801520   -1.148998   -1.328375
      7          6           0       24.641046   -1.868639   -1.375801
      8          6           0       24.495738   -2.452203   -2.789196
      9          6           0       25.949940   -2.556511   -3.235411
     10          6           0       26.500988   -1.341681   -2.464390
     11          6           0       26.624231   -3.873612   -2.786844
     12          6           0       23.650556   -1.504297   -3.718182
     13          6           0       22.216639   -2.017561   -4.231636
     14          1           0       20.956747   -1.224109   -3.845403
     15          7           0       27.988372    0.879040   -0.943485
     16          6           0       28.371946    0.316147   -2.139033
     17          6           0       29.618552    0.899040   -2.525877
     18          6           0       30.051909    1.806117   -1.503041
     19          6           0       28.923842    1.807535   -0.527058
     20          6           0       30.366886    0.528870   -3.852103
     21          6           0       31.432064    2.558231   -1.493786
     22          8           0       32.247053    2.321916   -2.331667
     23          6           0       31.795131    3.319966   -0.304983
     24          7           0       26.436739    2.132943    1.332193
     25          6           0       27.677286    2.624003    1.564335
     26          6           0       27.806197    3.313040    2.912496
     27          6           0       26.370128    3.371535    3.410396
     28          6           0       25.678059    2.347289    2.445304
     29          6           0       28.749734    2.542142    3.908148
     30          6           0       25.606129    4.777735    3.455805
     31          6           0       25.304297    5.479833    4.752542
     32          7           0       24.606239   -0.064592    1.180350
     33          6           0       23.925797    0.599507    2.209055
     34          6           0       22.622744    0.018280    2.449571
     35          6           0       22.510852   -0.940211    1.472558
     36          6           0       23.710368   -0.968944    0.687614
     37          6           0       21.659649    0.468488    3.467744
     38          6           0       21.622895   -1.956268    0.928631
     39          8           0       20.523781   -2.345811    1.342084
     40          6           0       22.379420   -2.617938   -0.203921
     41          6           0       22.562488   -4.084643    0.170655
     42          8           0       23.147732   -4.403428    1.203151
     43          8           0       21.882815   -4.933628   -0.716595
     44          6           0       21.985011   -6.333565   -0.401875
     45          1           0       28.178571   -1.214746   -3.669476
     46          1           0       29.666165    3.083854    0.927526
     47          1           0       23.904421    2.128477    3.657600
     48          1           0       23.901499   -3.361174   -2.692353
     49          1           0       25.977838   -2.455383   -4.319635
     50          1           0       27.046195   -4.173409   -3.745463
     51          1           0       25.800487   -4.503463   -2.449765
     52          1           0       27.379558   -3.798987   -2.004439
     53          1           0       24.232650   -1.340209   -4.624931
     54          1           0       23.584147   -0.534287   -3.226102
     55          1           0       22.075845   -2.989897   -3.758969
     56          1           0       22.155879   -2.198433   -5.304142
     57          1           0       30.705114    1.342577   -4.492906
     58          1           0       29.666236   -0.082910   -4.421292
     59          1           0       31.250233   -0.086037   -3.678868
     60          1           0       31.094279    4.114529   -0.047980
     61          1           0       32.780430    3.757366   -0.465904
     62          1           0       32.028773    2.644024    0.516439
     63          1           0       28.267892    4.298127    2.837273
     64          1           0       26.296525    2.928135    4.403426
     65          1           0       29.758693    2.951977    3.951114
     66          1           0       28.699493    1.472787    3.703129
     67          1           0       28.328772    2.668419    4.906651
     68          1           0       24.735425    4.908882    2.814232
     69          1           0       26.401941    5.338848    2.965249
     70          1           0       25.850416    6.414184    4.878415
     71          1           0       25.576009    4.834546    5.588283
     72          1           0       24.228104    5.648575    4.722385
     73          1           0       21.867199    1.517828    3.679042
     74          1           0       21.895641   -0.105152    4.364489
     75          1           0       20.634247    0.257336    3.167787
     76          1           0       21.679427   -2.532004   -1.033918
     77          1           0       22.938374   -6.790511   -0.668549
     78          1           0       21.210931   -6.914205   -0.902841
     79          1           0       21.834412   -6.569728    0.651174
     80         12           0      -26.360129    0.619770    0.017329
     81          6           0      -23.457037   -1.302021    0.528938
     82          6           0      -28.212628   -2.217705    0.796801
     83          6           0      -29.058145    2.378475   -0.792139
     84          6           0      -24.347253    3.132666   -1.571435
     85          7           0      -25.895558   -1.490645    0.564286
     86          6           0      -24.614277   -1.993464    0.830683
     87          6           0      -24.738911   -3.257832    1.660514
     88          6           0      -26.223457   -3.695293    1.507349
     89          6           0      -26.822333   -2.380859    0.922154
     90          6           0      -26.482013   -4.999396    0.689301
     91          6           0      -24.258716   -3.115446    3.146425
     92          6           0      -23.653391   -4.451013    3.766560
     93          1           0      -23.654644   -5.708957    2.893872
     94          7           0      -28.295168    0.193634    0.126126
     95          6           0      -28.870555   -0.995003    0.541123
     96          6           0      -30.298226   -0.872395    0.607819
     97          6           0      -30.589052    0.405771    0.032231
     98          6           0      -29.304638    1.044605   -0.192668
     99          6           0      -31.245463   -2.028693    1.051574
    100          6           0      -31.918437    1.008278   -0.285684
    101          8           0      -32.015357    2.076892   -0.935029
    102          6           0      -33.343889    0.454867    0.008189
    103          7           0      -26.702679    2.355057   -1.268537
    104          6           0      -27.913320    2.939326   -1.345106
    105          6           0      -27.788538    4.371910   -1.921991
    106          6           0      -26.299332    4.612535   -2.194261
    107          6           0      -25.722873    3.261614   -1.579602
    108          6           0      -28.754282    4.608893   -3.042767
    109          6           0      -25.669480    5.885717   -1.589587
    110          6           0      -25.756769    5.999470   -0.047633
    111          7           0      -24.309284    0.899066   -0.518917
    112          6           0      -23.674671    1.998485   -0.988305
    113          6           0      -22.242263    1.760280   -0.817521
    114          6           0      -22.053786    0.491850   -0.200666
    115          6           0      -23.362038   -0.035741   -0.076035
    116          6           0      -21.131236    2.764380   -1.112988
    117          6           0      -21.092603   -0.441564    0.293606
    118          8           0      -19.877825   -0.401681    0.469927
    119          6           0      -22.010246   -1.750204    0.759248
    120          6           0      -21.488749   -2.995711    0.067588
    121          8           0      -21.758325   -3.290172   -1.080379
    122          8           0      -20.768148   -3.776750    0.942336
    123          6           0      -19.874530   -4.797895    0.405435
    124          1           0      -28.687368   -3.123493    1.179234
    125          1           0      -29.978203    2.945450   -0.946803
    126          1           0      -23.797136    3.997361   -1.947645
    127          1           0      -24.103574   -4.033069    1.232445
    128          1           0      -26.617276   -3.834767    2.513691
    129          1           0      -27.169250   -4.655954   -0.083180
    130          1           0      -27.035736   -5.724796    1.286574
    131          1           0      -25.649718   -5.505177    0.199898
    132          1           0      -25.090065   -2.889666    3.813525
    133          1           0      -23.555213   -2.285941    3.205217
    134          1           0      -24.301729   -4.746895    4.591456
    135          1           0      -22.639643   -4.223009    4.094945
    136          1           0      -32.129855   -1.990294    0.414417
    137          1           0      -31.590888   -1.916576    2.078743
    138          1           0      -30.910560   -3.065847    1.056755
    139          1           0      -33.464522    0.249317    1.072189
    140          1           0      -33.584368   -0.420727   -0.594748
    141          1           0      -34.132013    1.206236   -0.023500
    142          1           0      -28.215635    5.026252   -1.163126
    143          1           0      -26.189329    4.467402   -3.269520
    144          1           0      -29.624948    5.188688   -2.735802
    145          1           0      -29.048331    3.657676   -3.486706
    146          1           0      -28.327775    5.137514   -3.895992
    147          1           0      -26.270198    6.686533   -2.021269
    148          1           0      -24.634106    5.984823   -1.916938
    149          1           0      -24.722823    6.053473    0.292561
    150          1           0      -26.257238    5.097799    0.305492
    151          1           0      -26.383866    6.817121    0.308089
    152          1           0      -20.370225    2.788925   -0.333530
    153          1           0      -21.505238    3.787753   -1.102600
    154          1           0      -20.750921    2.561785   -2.114572
    155          1           0      -21.798667   -1.856959    1.823480
    156          1           0      -20.395922   -5.252416   -0.437391
    157          1           0      -19.620731   -5.596691    1.102380
    158          1           0      -18.950147   -4.274496    0.161036
 ---------------------------------------------------------------------

 SCF Done:  E(RwB97XD) =  -4070.62003449     A.U. after   19 cycles

 Excitation energies and oscillator strengths:

 Excited State   1:      Singlet-A      1.6019 eV  773.97 nm  f=0.4077  <S**2>=0.000
     310 -> 316        0.17292
     311 -> 313        0.68564
     310 <- 316        0.11419
 This state for optimization and/or second-order correction.
 Total Energy, E(TD-HF/TD-DFT) =  -4070.56116501
 Copying the excited state density for this state as the 1-particle RhoCI density.

 Excited State   2:      Singlet-A      1.6668 eV  743.86 nm  f=0.3566  <S**2>=0.000
     309 -> 315        0.19754
     312 -> 314        0.68092
     309 <- 315        0.12066

 Excited State   3:      Singlet-A      2.1365 eV  580.33 nm  f=0.1501  <S**2>=0.000
     310 -> 313        0.65482
     311 -> 316       -0.24836

 Excited State   4:      Singlet-A      2.2262 eV  556.94 nm  f=0.0509  <S**2>=0.000
     309 -> 314        0.60366
     312 -> 315       -0.35679

 Excited State   5:      Singlet-A      3.2951 eV  376.27 nm  f=0.0030  <S**2>=0.000
     306 -> 313        0.52475
     306 -> 316        0.13548
     306 -> 317       -0.34596
     306 -> 319       -0.20412

 The electronic state is 1-A.
 Alpha  occ. eigenvalues --  -46.95245 -46.95018 -19.31276 -19.29470 -19.25543
 Alpha  occ. eigenvalues --  -19.24390 -19.24170 -19.24057 -19.23842 -19.23414
 Alpha  occ. eigenvalues --  -14.47167 -14.46718 -14.46663 -14.45975 -14.44889
 Alpha  occ. eigenvalues --  -14.43978 -14.43969 -14.43946 -10.44141 -10.42945
 Alpha  occ. eigenvalues --  -10.39595 -10.39481 -10.38969 -10.38600 -10.35633
 Alpha  occ. eigenvalues --  -10.35244 -10.35161 -10.35129 -10.35113 -10.34947
 Alpha  occ. eigenvalues --  -10.34861 -10.34788 -10.34758 -10.34683 -10.34558
 Alpha  occ. eigenvalues --  -10.34540 -10.34332 -10.33826 -10.33823 -10.33722
 Alpha  occ. eigenvalues --  -10.33533 -10.33268 -10.33236 -10.33007 -10.32616
 Alpha  occ. eigenvalues --  -10.32479 -10.32314 -10.32293 -10.32189 -10.32187
 Alpha  occ. eigenvalues --  -10.32135 -10.32096 -10.32028 -10.31934 -10.31933
 Alpha  occ. eigenvalues --  -10.31931 -10.31907 -10.31810 -10.31645 -10.31615
 Alpha  occ. eigenvalues --  -10.31559 -10.31464 -10.31411 -10.31202 -10.31014
 Alpha  occ. eigenvalues --  -10.30929 -10.30924 -10.30894 -10.30884 -10.30721
 Alpha  occ. eigenvalues --  -10.30638 -10.30569 -10.30352 -10.30199 -10.30117
 Alpha  occ. eigenvalues --  -10.30112 -10.30108 -10.30075 -10.29850 -10.29488
 Alpha  occ. eigenvalues --  -10.29425 -10.29414 -10.29410 -10.29305 -10.29191
 Alpha  occ. eigenvalues --  -10.28733  -3.21258  -3.21064  -1.94817  -1.94629
 Alpha  occ. eigenvalues --   -1.94381  -1.94237  -1.94203  -1.94032  -1.18158
 Alpha  occ. eigenvalues --   -1.17598  -1.14093  -1.11666  -1.11343  -1.10630
 Alpha  occ. eigenvalues --   -1.10453  -1.09629  -1.06770  -1.06346  -1.06268
 Alpha  occ. eigenvalues --   -1.05469  -1.05222  -1.04902  -1.04117  -1.04100
 Alpha  occ. eigenvalues --   -0.95046  -0.94136  -0.91032  -0.91002  -0.90833
 Alpha  occ. eigenvalues --   -0.90445  -0.90400  -0.90100  -0.89562  -0.89268
 Alpha  occ. eigenvalues --   -0.89040  -0.88772  -0.87236  -0.86924  -0.86492
 Alpha  occ. eigenvalues --   -0.86133  -0.85691  -0.85214  -0.84453  -0.84434
 Alpha  occ. eigenvalues --   -0.84076  -0.82997  -0.82982  -0.82816  -0.82563
 Alpha  occ. eigenvalues --   -0.81954  -0.80660  -0.79938  -0.79165  -0.78842
 Alpha  occ. eigenvalues --   -0.78664  -0.78329  -0.78209  -0.77750  -0.77033
 Alpha  occ. eigenvalues --   -0.76925  -0.74867  -0.74498  -0.74100  -0.73029
 Alpha  occ. eigenvalues --   -0.71814  -0.71107  -0.70942  -0.70587  -0.70313
 Alpha  occ. eigenvalues --   -0.70092  -0.69509  -0.68744  -0.67780  -0.67552
 Alpha  occ. eigenvalues --   -0.67197  -0.66854  -0.66845  -0.66462  -0.66132
 Alpha  occ. eigenvalues --   -0.66048  -0.64716  -0.63618  -0.62924  -0.62198
 Alpha  occ. eigenvalues --   -0.62041  -0.61438  -0.61095  -0.60869  -0.60783
 Alpha  occ. eigenvalues --   -0.60474  -0.60035  -0.59698  -0.59380  -0.58905
 Alpha  occ. eigenvalues --   -0.58208  -0.58054  -0.57884  -0.57661  -0.57239
 Alpha  occ. eigenvalues --   -0.56879  -0.56772  -0.56725  -0.55909  -0.55839
 Alpha  occ. eigenvalues --   -0.55469  -0.55386  -0.55094  -0.54977  -0.54928
 Alpha  occ. eigenvalues --   -0.54706  -0.54670  -0.54607  -0.54478  -0.54264
 Alpha  occ. eigenvalues --   -0.54116  -0.53903  -0.53718  -0.53260  -0.52943
 Alpha  occ. eigenvalues --   -0.52943  -0.52803  -0.52595  -0.52374  -0.52082
 Alpha  occ. eigenvalues --   -0.51983  -0.51725  -0.51569  -0.51482  -0.51244
 Alpha  occ. eigenvalues --   -0.51147  -0.51102  -0.51030  -0.50921  -0.50657
 Alpha  occ. eigenvalues --   -0.50600  -0.50541  -0.50252  -0.50122  -0.50007
 Alpha  occ. eigenvalues --   -0.49814  -0.49658  -0.49428  -0.49340  -0.49022
 Alpha  occ. eigenvalues --   -0.48598  -0.48508  -0.48302  -0.48299  -0.48244
 Alpha  occ. eigenvalues --   -0.48198  -0.48029  -0.47886  -0.47769  -0.47374
 Alpha  occ. eigenvalues --   -0.47364  -0.47273  -0.47128  -0.46658  -0.46402
 Alpha  occ. eigenvalues --   -0.46376  -0.46233  -0.46134  -0.46086  -0.45973
 Alpha  occ. eigenvalues --   -0.45889  -0.45785  -0.45519  -0.45373  -0.45254
 Alpha  occ. eigenvalues --   -0.45100  -0.45021  -0.44953  -0.44527  -0.44509
 Alpha  occ. eigenvalues --   -0.44370  -0.44286  -0.44079  -0.43877  -0.43854
 Alpha  occ. eigenvalues --   -0.43778  -0.43640  -0.43556  -0.43515  -0.43495
 Alpha  occ. eigenvalues --   -0.42989  -0.42750  -0.42634  -0.42593  -0.42510
 Alpha  occ. eigenvalues --   -0.42279  -0.41974  -0.41943  -0.41503  -0.41138
 Alpha  occ. eigenvalues --   -0.40886  -0.40553  -0.39931  -0.39739  -0.39576
 Alpha  occ. eigenvalues --   -0.39458  -0.39158  -0.38888  -0.38610  -0.38576
 Alpha  occ. eigenvalues --   -0.38251  -0.37959  -0.36820  -0.36707  -0.36019
 Alpha  occ. eigenvalues --   -0.35728  -0.35690  -0.35238  -0.33667  -0.33541
 Alpha  occ. eigenvalues --   -0.33187  -0.32953  -0.32936  -0.32752  -0.32315
 Alpha  occ. eigenvalues --   -0.32235  -0.31809  -0.31633  -0.26311  -0.26024
 Alpha  occ. eigenvalues --   -0.23176  -0.22792
 Alpha virt. eigenvalues --   -0.07593  -0.06645  -0.00321   0.00532   0.02019
 Alpha virt. eigenvalues --    0.02601   0.04094   0.04614   0.04687   0.05201
 Alpha virt. eigenvalues --    0.06375   0.07386   0.07488   0.07782   0.08513

 Mulliken charges:
               1
     1  Mg   0.956839
     2  C   -0.054708
     3  C   -0.098146
     4  C   -0.053056
     5  C   -0.094315
     6  N   -0.331728
     7  C   -0.023942
     8  C   -0.114911
     9  C   -0.115727
    10  C    0.039247
    11  C    0.060845
    12  C    0.025425
    13  C   -0.134566
    14  H    0.044867
    15  N   -0.518562
    16  C    0.210560
    17  C   -0.172934
    18  C   -0.106230
    19  C    0.151522
    20  C    0.083472
    21  C    0.062060
    22  O   -0.196896
    23  C   -0.021399
    24  N   -0.326736
    25  C    0.062414
    26  C   -0.102009
    27  C   -0.070087
    28  C    0.069750
    29  C    0.021101
    30  C   -0.022400
    31  C   -0.034773
    32  N   -0.429173
    33  C    0.127810
    34  C   -0.206698
    35  C   -0.016796
    36  C    0.192869
    37  C    0.097461
    38  C    0.099099
    39  O   -0.220820
    40  C   -0.022056
    41  C    0.288781
    42  O   -0.244381
    43  O   -0.362512
    44  C    0.139820
    45  H    0.001594
    46  H   -0.029253
    47  H   -0.001569
    48  H    0.017290
    49  H    0.023680
    50  H    0.042909
    51  H    0.038778
    52  H    0.055115
    53  H    0.032700
    54  H    0.055661
    55  H    0.047922
    56  H    0.058772
    57  H    0.056009
    58  H    0.011825
    59  H    0.051517
    60  H    0.070905
    61  H    0.041991
    62  H    0.069535
    63  H    0.033429
    64  H    0.024315
    65  H    0.046111
    66  H    0.041570
    67  H    0.029640
    68  H    0.043992
    69  H    0.016334
    70  H    0.044034
    71  H    0.026330
    72  H    0.041582
    73  H    0.036663
    74  H    0.058299
    75  H    0.066067
    76  H    0.061070
    77  H    0.042315
    78  H    0.050453
    79  H    0.054034
    80  Mg   0.971970
    81  C    0.006977
    82  C   -0.061603
    83  C   -0.063034
    84  C   -0.062980
    85  N   -0.337733
    86  C   -0.003300
    87  C   -0.035461
    88  C   -0.097825
    89  C    0.010343
    90  C    0.027403
    91  C   -0.006687
    92  C   -0.129119
    93  H    0.034098
    94  N   -0.494931
    95  C    0.189736
    96  C   -0.136960
    97  C   -0.054422
    98  C    0.137765
    99  C    0.059026
   100  C    0.036200
   101  O   -0.271636
   102  C   -0.006984
   103  N   -0.340811
   104  C    0.077595
   105  C   -0.129637
   106  C   -0.020114
   107  C    0.012750
   108  C    0.021356
   109  C   -0.019697
   110  C   -0.045870
   111  N   -0.429037
   112  C    0.150704
   113  C   -0.205239
   114  C    0.004395
   115  C    0.123016
   116  C    0.072266
   117  C    0.116784
   118  O   -0.207596
   119  C   -0.128467
   120  C    0.274753
   121  O   -0.237549
   122  O   -0.379782
   123  C    0.133584
   124  H   -0.002972
   125  H    0.023046
   126  H   -0.004418
   127  H    0.030766
   128  H    0.033128
   129  H    0.030644
   130  H    0.034877
   131  H    0.058471
   132  H    0.029789
   133  H    0.037226
   134  H    0.054506
   135  H    0.069171
   136  H    0.037151
   137  H    0.051135
   138  H    0.045647
   139  H    0.030970
   140  H    0.073503
   141  H    0.048590
   142  H    0.037210
   143  H    0.038768
   144  H    0.043473
   145  H    0.041861
   146  H    0.022288
   147  H    0.033287
   148  H    0.039466
   149  H    0.046936
   150  H    0.038547
   151  H    0.043004
   152  H    0.057639
   153  H    0.018511
   154  H    0.059414
   155  H    0.065552
   156  H    0.060233
   157  H    0.053730
   158  H    0.064598
 Sum of Mulliken charges =  -0.00000

 Dipole moment (field-independent basis, Debye):
    X=             -1.5155    Y=             -0.2422    Z=              5.0279  Tot=              5.2569
 Quadrupole moment (field-independent basis, Debye-Ang):
   XX=           -297.1045   YY=           -457.2062   ZZ=           -492.3063
   XY=             53.6701   XZ=            -57.0477   YZ=             18.5863

 Normal termination of Gaussian 16 at Mon Sep 20 16:48:29 2021.
