 Gaussian 16, Revision A.03,
 Gaussian 16:  ES64L-G16RevA.03 25-Dec-2016

 --------------------------------
 #p wB97XD/Def2SVP td=(nstates=5)
 --------------------------------

 --------------------------------
 TDDFT excited states in gaussian
 --------------------------------
 Symbolic Z-matrix:
 Charge =  0 Multiplicity = 1

                         Standard orientation:
 ---------------------------------------------------------------------
 Center     Atomic      Atomic             Coordinates (Angstroms)
 Number     Number       Type             X           Y           Z
 ---------------------------------------------------------------------
      1         12           0       29.733381    0.054517   -0.317131
      2          6           0       26.498222   -0.305953    1.086625
      3          6           0       28.585321    2.798562   -1.954138
      4          6           0       32.975537    0.842302   -0.970739
      5          6           0       30.829198   -2.436578    1.829115
      6          7           0       27.750715    1.134248   -0.218240
      7          6           0       26.536167    0.792076    0.314558
      8          6           0       25.462120    1.727189   -0.101296
      9          6           0       26.114923    2.501529   -1.341025
     10          6           0       27.553967    2.152808   -1.169690
     11          6           0       25.519748    2.053695   -2.666241
     12          6           0       25.080665    2.561453    1.131635
     13          6           0       23.551840    2.588614    1.555745
     14          1           0       22.780911    3.932815    1.721568
     15          7           0       30.706735    1.552580   -1.346181
     16          6           0       30.016109    2.558970   -2.035552
     17          6           0       30.969533    3.274935   -2.828852
     18          6           0       32.282703    2.763072   -2.554618
     19          6           0       32.014565    1.619352   -1.642178
     20          6           0       30.521760    4.374154   -3.783636
     21          6           0       33.616966    3.230671   -3.091601
     22          8           0       33.516459    4.125736   -3.979990
     23          6           0       35.046434    2.837194   -2.622975
     24          7           0       31.678475   -0.693828    0.326776
     25          6           0       32.863194   -0.217352   -0.115178
     26          6           0       34.084920   -0.932189    0.520516
     27          6           0       33.378402   -2.066739    1.339847
     28          6           0       31.835006   -1.667678    1.192976
     29          6           0       35.008547   -1.435652   -0.574190
     30          6           0       33.769230   -2.155546    2.783501
     31          6           0       34.544594   -3.397936    3.128759
     32          7           0       28.913272   -1.245842    1.005132
     33          6           0       29.431020   -2.273139    1.804108
     34          6           0       28.439002   -3.033497    2.373166
     35          6           0       27.255810   -2.321194    2.089788
     36          6           0       27.608989   -1.209684    1.328055
     37          6           0       28.677627   -4.387543    3.007175
     38          6           0       25.775951   -2.370227    2.228175
     39          8           0       25.093740   -3.195782    2.751173
     40          6           0       25.318490   -0.986563    1.629441
     41          6           0       24.058655   -1.246035    0.832489
     42          8           0       22.921569   -0.961314    1.208541
     43          8           0       24.379787   -1.812737   -0.424878
     44          6           0       23.205743   -1.966405   -1.283504
     45          1           0       28.186564    3.538806   -2.651271
     46          1           0       34.025126    0.996423   -1.232002
     47          1           0       31.120578   -3.063567    2.673603
     48          1           0       24.589667    1.157544   -0.421596
     49          1           0       25.910461    3.565148   -1.221450
     50          1           0       25.300207    0.987466   -2.700520
     51          1           0       26.268992    2.202564   -3.444498
     52          1           0       24.648513    2.631462   -2.974759
     53          1           0       25.404246    3.583787    0.936650
     54          1           0       25.666907    2.327866    2.020377
     55          1           0       23.622578    2.111485    2.533557
     56          1           0       22.981758    1.853201    0.989275
     57          1           0       29.875443    5.092465   -3.279225
     58          1           0       29.934762    3.879759   -4.557563
     59          1           0       31.291835    5.025830   -4.198715
     60          1           0       35.136355    1.801296   -2.948416
     61          1           0       35.087943    2.913104   -1.536352
     62          1           0       35.817318    3.486241   -3.039252
     63          1           0       34.689520   -0.292749    1.163196
     64          1           0       33.457153   -3.013512    0.806125
     65          1           0       35.208930   -0.601243   -1.246496
     66          1           0       34.492580   -2.230735   -1.113402
     67          1           0       35.935402   -1.939531   -0.302684
     68          1           0       32.919595   -2.180925    3.465838
     69          1           0       34.353772   -1.328175    3.185349
     70          1           0       35.470279   -3.089788    3.613253
     71          1           0       34.867383   -3.953056    2.247992
     72          1           0       33.990653   -4.117938    3.732071
     73          1           0       27.702084   -4.872669    3.053079
     74          1           0       29.091805   -4.306962    4.011911
     75          1           0       29.379697   -4.884915    2.338353
     76          1           0       24.949592   -0.471647    2.517256
     77          1           0       23.494647   -1.937689   -2.334215
     78          1           0       22.543734   -1.104792   -1.209637
     79          1           0       22.623910   -2.860182   -1.056589
     80         12           0      -29.795909    0.246967    0.217263
     81          6           0      -26.814583   -1.574171   -0.297885
     82          6           0      -31.323591   -1.577127   -2.235701
     83          6           0      -32.273155    2.421008    0.300244
     84          6           0      -27.966905    2.380049    2.383031
     85          7           0      -29.141207   -1.473939   -1.026430
     86          6           0      -27.937690   -2.012040   -1.039225
     87          6           0      -28.020313   -3.345104   -1.760691
     88          6           0      -29.254146   -3.156414   -2.724965
     89          6           0      -29.980407   -1.980721   -1.970996
     90          6           0      -28.790085   -2.894074   -4.208062
     91          6           0      -28.303237   -4.525925   -0.796804
     92          6           0      -27.912016   -5.969921   -1.340611
     93          1           0      -27.328351   -6.177534   -2.740750
     94          7           0      -31.604243    0.283427   -0.655251
     95          6           0      -32.136848   -0.607178   -1.622355
     96          6           0      -33.538972   -0.212222   -1.892852
     97          6           0      -33.785592    1.026193   -1.198348
     98          6           0      -32.547321    1.335904   -0.451115
     99          6           0      -34.472181   -0.999535   -2.743364
    100          6           0      -35.048362    1.967740   -1.099251
    101          8           0      -35.115210    2.965139   -0.367983
    102          6           0      -36.189595    1.727900   -2.044662
    103          7           0      -30.046447    2.221723    1.126238
    104          6           0      -31.172836    2.879998    1.054988
    105          6           0      -31.220629    4.157600    1.845279
    106          6           0      -29.810172    4.169742    2.532861
    107          6           0      -29.245565    2.789511    2.068818
    108          6           0      -31.627855    5.350452    0.975348
    109          6           0      -29.842610    4.268622    4.052833
    110          6           0      -28.757070    5.184761    4.723280
    111          7           0      -27.786597    0.402562    1.021696
    112          6           0      -27.216136    1.313386    1.932371
    113          6           0      -25.915174    0.855356    2.280598
    114          6           0      -25.617739   -0.164918    1.321760
    115          6           0      -26.774639   -0.429744    0.633627
    116          6           0      -25.096603    1.341444    3.442107
    117          6           0      -24.682803   -1.204186    0.827536
    118          8           0      -23.537930   -1.441582    1.152139
    119          6           0      -25.385352   -1.946776   -0.406471
    120          6           0      -24.926851   -3.365284   -0.499770
    121          8           0      -25.071839   -4.218918    0.324824
    122          8           0      -24.184047   -3.586659   -1.674541
    123          6           0      -23.124147   -4.614724   -1.602840
    124          1           0      -31.810355   -1.977764   -3.127811
    125          1           0      -33.082011    3.123209    0.509788
    126          1           0      -27.457489    3.013583    3.112232
    127          1           0      -27.009325   -3.473232   -2.147316
    128          1           0      -29.899148   -4.035731   -2.727810
    129          1           0      -27.702240   -2.879004   -4.265918
    130          1           0      -29.082805   -1.858901   -4.383787
    131          1           0      -29.131207   -3.634901   -4.931297
    132          1           0      -29.382832   -4.492357   -0.644744
    133          1           0      -27.793737   -4.301963    0.140332
    134          1           0      -28.829014   -6.553019   -1.242986
    135          1           0      -27.221989   -6.366396   -0.595385
    136          1           0      -34.185321   -2.001538   -3.060393
    137          1           0      -34.678073   -0.509820   -3.694734
    138          1           0      -35.360433   -1.104670   -2.119923
    139          1           0      -36.921467    1.005399   -1.683788
    140          1           0      -35.625101    1.396120   -2.916948
    141          1           0      -36.629510    2.706392   -2.235383
    142          1           0      -32.001090    3.937469    2.573535
    143          1           0      -29.155598    4.968294    2.185817
    144          1           0      -31.398911    5.223986   -0.083255
    145          1           0      -31.019495    6.181174    1.330791
    146          1           0      -32.688645    5.588482    1.056924
    147          1           0      -29.730959    3.286859    4.512711
    148          1           0      -30.883547    4.501715    4.276425
    149          1           0      -28.020863    5.528501    3.996883
    150          1           0      -28.259972    4.531833    5.440389
    151          1           0      -29.081620    6.065947    5.277682
    152          1           0      -25.126405    2.428578    3.367371
    153          1           0      -24.053767    1.024093    3.427388
    154          1           0      -25.585035    1.071599    4.378981
    155          1           0      -24.974543   -1.542153   -1.330913
    156          1           0      -23.397677   -5.421944   -2.282471
    157          1           0      -22.976099   -4.987613   -0.588765
    158          1           0      -22.219737   -4.114883   -1.949592
 ---------------------------------------------------------------------

 SCF Done:  E(RwB97XD) =  -4070.59654445     A.U. after   19 cycles

 Excitation energies and oscillator strengths:

 Excited State   1:      Singlet-A      1.6249 eV  763.03 nm  f=0.3609  <S**2>=0.000
     309 -> 316       -0.17976
     311 -> 313        0.68480
     309 <- 316       -0.11750
 This state for optimization and/or second-order correction.
 Total Energy, E(TD-HF/TD-DFT) =  -4070.53683080
 Copying the excited state density for this state as the 1-particle RhoCI density.

 Excited State   2:      Singlet-A      1.7664 eV  701.91 nm  f=0.3734  <S**2>=0.000
     310 -> 315       -0.19124
     312 -> 314        0.67833
     310 <- 315       -0.11017

 Excited State   3:      Singlet-A      2.1196 eV  584.94 nm  f=0.0966  <S**2>=0.000
     310 -> 314        0.63986
     312 -> 315        0.27492

 Excited State   4:      Singlet-A      2.1634 eV  573.09 nm  f=0.1554  <S**2>=0.000
     309 -> 313        0.64646
     311 -> 316        0.27023

 Excited State   5:      Singlet-A      3.2311 eV  383.73 nm  f=0.0021  <S**2>=0.000
     305 -> 313       -0.24940
     305 -> 318       -0.10017
     307 -> 313        0.63535

 The electronic state is 1-A.
 Alpha  occ. eigenvalues --  -46.95363 -46.94855 -19.30854 -19.28454 -19.25961
 Alpha  occ. eigenvalues --  -19.25412 -19.24878 -19.24435 -19.23365 -19.23310
 Alpha  occ. eigenvalues --  -14.46988 -14.46819 -14.46509 -14.46305 -14.44698
 Alpha  occ. eigenvalues --  -14.44427 -14.43612 -14.42552 -10.44244 -10.42349
 Alpha  occ. eigenvalues --  -10.40848 -10.39677 -10.39488 -10.38747 -10.36326
 Alpha  occ. eigenvalues --  -10.36059 -10.35715 -10.35398 -10.35120 -10.34944
 Alpha  occ. eigenvalues --  -10.34889 -10.34884 -10.34735 -10.34711 -10.34638
 Alpha  occ. eigenvalues --  -10.34568 -10.34551 -10.34047 -10.33651 -10.33421
 Alpha  occ. eigenvalues --  -10.33062 -10.32866 -10.32708 -10.32586 -10.32575
 Alpha  occ. eigenvalues --  -10.32442 -10.32427 -10.32363 -10.32267 -10.32244
 Alpha  occ. eigenvalues --  -10.32162 -10.32034 -10.31973 -10.31969 -10.31938
 Alpha  occ. eigenvalues --  -10.31859 -10.31797 -10.31725 -10.31645 -10.31640
 Alpha  occ. eigenvalues --  -10.31601 -10.31563 -10.31393 -10.31379 -10.31257
 Alpha  occ. eigenvalues --  -10.31086 -10.30925 -10.30811 -10.30811 -10.30732
 Alpha  occ. eigenvalues --  -10.30458 -10.30374 -10.30176 -10.30126 -10.30113
 Alpha  occ. eigenvalues --  -10.29944 -10.29905 -10.29872 -10.29705 -10.29680
 Alpha  occ. eigenvalues --  -10.29527 -10.29394 -10.29316 -10.29131 -10.29004
 Alpha  occ. eigenvalues --  -10.28358  -3.21368  -3.20767  -1.94937  -1.94495
 Alpha  occ. eigenvalues --   -1.94369  -1.94344  -1.93889  -1.93727  -1.17750
 Alpha  occ. eigenvalues --   -1.17293  -1.14278  -1.12769  -1.11687  -1.10167
 Alpha  occ. eigenvalues --   -1.09855  -1.09154  -1.07258  -1.07092  -1.06499
 Alpha  occ. eigenvalues --   -1.06295  -1.05395  -1.04807  -1.03644  -1.03065
 Alpha  occ. eigenvalues --   -0.95288  -0.93718  -0.91780  -0.91260  -0.91144
 Alpha  occ. eigenvalues --   -0.90950  -0.90838  -0.89797  -0.89657  -0.89526
 Alpha  occ. eigenvalues --   -0.89167  -0.88968  -0.87910  -0.87302  -0.86776
 Alpha  occ. eigenvalues --   -0.86204  -0.85896  -0.85566  -0.84832  -0.84566
 Alpha  occ. eigenvalues --   -0.83868  -0.83587  -0.82663  -0.82560  -0.82452
 Alpha  occ. eigenvalues --   -0.81787  -0.80607  -0.79774  -0.79378  -0.79069
 Alpha  occ. eigenvalues --   -0.78826  -0.78424  -0.78269  -0.77465  -0.77278
 Alpha  occ. eigenvalues --   -0.77075  -0.75524  -0.74443  -0.74213  -0.73672
 Alpha  occ. eigenvalues --   -0.71733  -0.71378  -0.70922  -0.70592  -0.69664
 Alpha  occ. eigenvalues --   -0.69256  -0.69217  -0.68624  -0.68245  -0.67935
 Alpha  occ. eigenvalues --   -0.67675  -0.67381  -0.67094  -0.66947  -0.66536
 Alpha  occ. eigenvalues --   -0.65427  -0.65112  -0.63002  -0.62530  -0.62255
 Alpha  occ. eigenvalues --   -0.62068  -0.61608  -0.61073  -0.60970  -0.60560
 Alpha  occ. eigenvalues --   -0.60088  -0.60002  -0.59521  -0.58824  -0.58758
 Alpha  occ. eigenvalues --   -0.58452  -0.58232  -0.57788  -0.57632  -0.57387
 Alpha  occ. eigenvalues --   -0.57001  -0.56856  -0.56318  -0.56136  -0.55836
 Alpha  occ. eigenvalues --   -0.55664  -0.55524  -0.55169  -0.55121  -0.55043
 Alpha  occ. eigenvalues --   -0.54741  -0.54635  -0.54243  -0.54123  -0.54010
 Alpha  occ. eigenvalues --   -0.53910  -0.53677  -0.53656  -0.53260  -0.53149
 Alpha  occ. eigenvalues --   -0.53049  -0.52846  -0.52820  -0.52473  -0.52434
 Alpha  occ. eigenvalues --   -0.52250  -0.52054  -0.51999  -0.51923  -0.51830
 Alpha  occ. eigenvalues --   -0.51605  -0.51164  -0.50857  -0.50821  -0.50625
 Alpha  occ. eigenvalues --   -0.50565  -0.50269  -0.50230  -0.49935  -0.49927
 Alpha  occ. eigenvalues --   -0.49738  -0.49675  -0.49460  -0.49212  -0.49164
 Alpha  occ. eigenvalues --   -0.48917  -0.48846  -0.48555  -0.48538  -0.48427
 Alpha  occ. eigenvalues --   -0.48424  -0.48068  -0.47957  -0.47836  -0.47691
 Alpha  occ. eigenvalues --   -0.47480  -0.47439  -0.47329  -0.47255  -0.47132
 Alpha  occ. eigenvalues --   -0.46938  -0.46818  -0.46744  -0.46146  -0.45989
 Alpha  occ. eigenvalues --   -0.45892  -0.45872  -0.45654  -0.45628  -0.45308
 Alpha  occ. eigenvalues --   -0.45204  -0.44999  -0.44697  -0.44630  -0.44518
 Alpha  occ. eigenvalues --   -0.44422  -0.44375  -0.44324  -0.44196  -0.43985
 Alpha  occ. eigenvalues --   -0.43921  -0.43657  -0.43597  -0.43476  -0.43444
 Alpha  occ. eigenvalues --   -0.43414  -0.43249  -0.43045  -0.43037  -0.42886
 Alpha  occ. eigenvalues --   -0.42041  -0.42007  -0.41876  -0.40966  -0.40955
 Alpha  occ. eigenvalues --   -0.40682  -0.40675  -0.40157  -0.39749  -0.39699
 Alpha  occ. eigenvalues --   -0.39584  -0.39500  -0.39269  -0.38375  -0.38361
 Alpha  occ. eigenvalues --   -0.37658  -0.37379  -0.37332  -0.36684  -0.36201
 Alpha  occ. eigenvalues --   -0.35767  -0.35480  -0.35195  -0.33983  -0.33907
 Alpha  occ. eigenvalues --   -0.33395  -0.33118  -0.32554  -0.32495  -0.32168
 Alpha  occ. eigenvalues --   -0.32013  -0.31958  -0.30375  -0.26325  -0.25651
 Alpha  occ. eigenvalues --   -0.23464  -0.23139
 Alpha virt. eigenvalues --   -0.07695  -0.06801  -0.00080   0.00078   0.01902
 Alpha virt. eigenvalues --    0.02315   0.04435   0.04899   0.04998   0.06052
 Alpha virt. eigenvalues --    0.06278   0.07004   0.07442   0.08126   0.08158

 Mulliken charges:
               1
     1  Mg   0.972020
     2  C    0.037710
     3  C   -0.077577
     4  C   -0.047368
     5  C   -0.092944
     6  N   -0.359370
     7  C   -0.051813
     8  C   -0.053844
     9  C   -0.081894
    10  C    0.068471
    11  C    0.030597
    12  C    0.005107
    13  C   -0.116292
    14  H    0.047985
    15  N   -0.473448
    16  C    0.150699
    17  C   -0.148684
    18  C   -0.063202
    19  C    0.180030
    20  C    0.070444
    21  C    0.021610
    22  O   -0.276293
    23  C    0.023559
    24  N   -0.303408
    25  C    0.005367
    26  C   -0.045754
    27  C   -0.064899
    28  C    0.055256
    29  C    0.009314
    30  C   -0.002965
    31  C   -0.061503
    32  N   -0.466425
    33  C    0.108677
    34  C   -0.190709
    35  C   -0.079699
    36  C    0.147690
    37  C    0.086735
    38  C    0.122393
    39  O   -0.159433
    40  C   -0.057616
    41  C    0.245617
    42  O   -0.241423
    43  O   -0.390728
    44  C    0.140091
    45  H    0.005741
    46  H   -0.060445
    47  H    0.006917
    48  H    0.035253
    49  H    0.038503
    50  H    0.038029
    51  H    0.024501
    52  H    0.047551
    53  H    0.031352
    54  H    0.047662
    55  H    0.050637
    56  H    0.054823
    57  H    0.034291
    58  H    0.046806
    59  H    0.065067
    60  H    0.062900
    61  H    0.064258
    62  H    0.063540
    63  H    0.043466
    64  H    0.043085
    65  H    0.033497
    66  H    0.024394
    67  H    0.040181
    68  H    0.030985
    69  H    0.026661
    70  H    0.031339
    71  H    0.020866
    72  H    0.039962
    73  H    0.062314
    74  H    0.052054
    75  H    0.046467
    76  H    0.069876
    77  H    0.047261
    78  H    0.043978
    79  H    0.064151
    80  Mg   0.949383
    81  C    0.045858
    82  C   -0.095064
    83  C   -0.065623
    84  C   -0.086066
    85  N   -0.314194
    86  C    0.001130
    87  C   -0.120434
    88  C   -0.103154
    89  C    0.089387
    90  C    0.034997
    91  C   -0.006477
    92  C   -0.094861
    93  H    0.041431
    94  N   -0.554580
    95  C    0.175977
    96  C   -0.151002
    97  C   -0.082878
    98  C    0.208092
    99  C    0.035074
   100  C    0.082042
   101  O   -0.237306
   102  C   -0.013182
   103  N   -0.304452
   104  C   -0.029750
   105  C   -0.047694
   106  C   -0.103722
   107  C    0.058356
   108  C    0.030142
   109  C   -0.003882
   110  C   -0.057121
   111  N   -0.438115
   112  C    0.134233
   113  C   -0.193300
   114  C   -0.035297
   115  C    0.077273
   116  C    0.080565
   117  C    0.135342
   118  O   -0.202609
   119  C   -0.093329
   120  C    0.221088
   121  O   -0.208235
   122  O   -0.410357
   123  C    0.136785
   124  H    0.001483
   125  H    0.012948
   126  H   -0.022018
   127  H    0.031979
   128  H    0.036172
   129  H    0.038427
   130  H    0.032947
   131  H    0.048359
   132  H    0.023406
   133  H    0.054540
   134  H    0.041793
   135  H    0.065410
   136  H    0.043003
   137  H    0.065257
   138  H    0.060757
   139  H    0.079999
   140  H    0.041589
   141  H    0.065168
   142  H    0.042241
   143  H    0.040191
   144  H    0.046672
   145  H    0.033122
   146  H    0.056288
   147  H    0.030812
   148  H    0.022361
   149  H    0.035974
   150  H    0.038529
   151  H    0.045678
   152  H    0.035932
   153  H    0.058423
   154  H    0.050938
   155  H    0.080256
   156  H    0.051947
   157  H    0.069232
   158  H    0.055715
 Sum of Mulliken charges =  -0.00000

 Dipole moment (field-independent basis, Debye):
    X=             -1.7972    Y=              0.0817    Z=             -3.9249  Tot=              4.3175
 Quadrupole moment (field-independent basis, Debye-Ang):
   XX=              9.8635   YY=           -511.0654   ZZ=           -503.7460
   XY=            -65.9961   XZ=             71.4161   YZ=             34.6274

 Normal termination of Gaussian 16 at Sun Sep 19 18:34:02 2021.
