 Gaussian 16, Revision A.03,
 Gaussian 16:  ES64L-G16RevA.03 25-Dec-2016

 --------------------------------
 #p wB97XD/Def2SVP td=(nstates=5)
 --------------------------------

 --------------------------------
 TDDFT excited states in gaussian
 --------------------------------
 Symbolic Z-matrix:
 Charge =  0 Multiplicity = 1

                         Standard orientation:
 ---------------------------------------------------------------------
 Center     Atomic      Atomic             Coordinates (Angstroms)
 Number     Number       Type             X           Y           Z
 ---------------------------------------------------------------------
      1         12           0        5.521661   -0.552436   -0.226105
      2          6           0        3.464769    1.996590   -1.485759
      3          6           0        8.218071    1.390181   -0.503809
      4          6           0        7.265159   -3.046862    0.874656
      5          6           0        2.767506   -2.781945   -0.955894
      6          7           0        5.768634    1.433071   -1.025513
      7          6           0        4.839256    2.350908   -1.319862
      8          6           0        5.453600    3.651354   -1.769591
      9          6           0        6.992250    3.293049   -1.839838
     10          6           0        7.014801    1.984152   -1.074413
     11          6           0        7.669178    3.186918   -3.244850
     12          6           0        5.209680    4.803471   -0.666614
     13          6           0        4.684979    6.145512   -1.274367
     14          1           0        4.161386    7.159544   -0.119388
     15          7           0        7.370105   -0.708563    0.355332
     16          6           0        8.378995    0.227813    0.206669
     17          6           0        9.514857   -0.200851    0.975515
     18          6           0        9.292842   -1.551503    1.468538
     19          6           0        7.875146   -1.817146    1.011460
     20          6           0       10.784239    0.698078    1.006095
     21          6           0       10.095890   -2.567501    2.272763
     22          8           0        9.691021   -3.669771    2.684279
     23          6           0       11.444729   -2.062527    2.645527
     24          7           0        5.063412   -2.607164   -0.242938
     25          6           0        6.039740   -3.408007    0.296207
     26          6           0        5.655715   -4.884413    0.191699
     27          6           0        4.132598   -4.783781   -0.084685
     28          6           0        3.960676   -3.326183   -0.516605
     29          6           0        6.573927   -5.607760   -0.871693
     30          6           0        3.177172   -5.167651    1.123774
     31          6           0        1.756050   -5.628901    0.762857
     32          7           0        3.496920   -0.460098   -1.014866
     33          6           0        2.563571   -1.429028   -1.227083
     34          6           0        1.302825   -0.858048   -1.645175
     35          6           0        1.624370    0.511110   -1.683048
     36          6           0        2.974825    0.702580   -1.357749
     37          6           0       -0.065456   -1.496462   -1.977479
     38          6           0        1.054414    1.804525   -1.938390
     39          8           0       -0.072600    2.195785   -2.094416
     40          6           0        2.314348    2.815836   -1.976678
     41          6           0        1.780091    3.945088   -1.210886
     42          8           0        1.723947    4.100878    0.035158
     43          8           0        1.329845    4.809257   -2.136816
     44          6           0        0.691241    6.044241   -1.679592
     45          1           0        9.089464    2.048527   -0.505593
     46          1           0        7.824049   -3.875456    1.315026
     47          1           0        1.941172   -3.487168   -1.066744
     48          1           0        5.064555    4.048948   -2.707373
     49          1           0        7.660978    3.939895   -1.271639
     50          1           0        7.904392    2.137136   -3.420069
     51          1           0        8.588244    3.766376   -3.159163
     52          1           0        7.109463    3.512888   -4.120827
     53          1           0        6.055752    5.025875   -0.015311
     54          1           0        4.526979    4.377115    0.068481
     55          1           0        3.860274    5.957511   -1.961529
     56          1           0        5.433880    6.745263   -1.791057
     57          1           0       10.690888    1.379231    1.850797
     58          1           0       10.813021    1.442527    0.209491
     59          1           0       11.744836    0.205418    0.857449
     60          1           0       11.439090   -1.169943    3.270118
     61          1           0       11.907568   -1.916282    1.668807
     62          1           0       12.065532   -2.802747    3.151074
     63          1           0        5.871751   -5.305193    1.173813
     64          1           0        3.866473   -5.479601   -0.880317
     65          1           0        6.005172   -5.823104   -1.776174
     66          1           0        7.025724   -6.563927   -0.608911
     67          1           0        7.396908   -5.025059   -1.286058
     68          1           0        3.023858   -4.208247    1.618622
     69          1           0        3.545268   -5.895432    1.847242
     70          1           0        0.996211   -4.925906    1.106704
     71          1           0        1.409178   -6.602835    1.108765
     72          1           0        1.699817   -5.558492   -0.322507
     73          1           0        0.153043   -2.522016   -2.275139
     74          1           0       -0.567075   -0.954744   -2.780456
     75          1           0       -0.636083   -1.494728   -1.048840
     76          1           0        2.483068    3.150400   -3.000404
     77          1           0        1.347630    6.880704   -1.918919
     78          1           0        0.368335    5.981950   -0.640930
     79          1           0       -0.191336    6.217316   -2.295262
     80         12           0       -5.207207   -0.779707    0.283241
     81          6           0       -3.870174    2.506118    1.057634
     82          6           0       -8.160983    0.785624   -0.152462
     83          6           0       -6.375442   -3.687426   -0.335775
     84          6           0       -2.064080   -2.172680    1.130148
     85          7           0       -5.917861    1.517875    0.423372
     86          6           0       -5.185926    2.621735    0.652755
     87          6           0       -6.036140    3.884051    0.413444
     88          6           0       -7.471689    3.183199    0.494301
     89          6           0       -7.184822    1.774605    0.182642
     90          6           0       -8.376476    3.524752    1.666338
     91          6           0       -5.641307    4.496477   -0.941531
     92          6           0       -5.923384    6.025845   -1.019636
     93          1           0       -6.286412    6.914532    0.258393
     94          7           0       -7.050240   -1.409062   -0.240040
     95          6           0       -8.196251   -0.639012   -0.293142
     96          6           0       -9.317568   -1.523512   -0.595033
     97          6           0       -8.795862   -2.833891   -0.728978
     98          6           0       -7.347028   -2.666704   -0.422013
     99          6           0      -10.707671   -1.081587   -0.718578
    100          6           0       -9.535545   -4.210449   -1.146130
    101          8           0       -8.914512   -5.209816   -1.384844
    102          6           0      -11.020605   -4.234913   -1.550168
    103          7           0       -4.388849   -2.682785    0.653341
    104          6           0       -5.048407   -3.723043    0.150015
    105          6           0       -4.282994   -5.018583    0.181514
    106          6           0       -2.845340   -4.449377    0.260475
    107          6           0       -3.145653   -3.037270    0.871153
    108          6           0       -4.619364   -5.951719    1.436199
    109          6           0       -2.028173   -4.421886   -1.098846
    110          6           0       -2.311948   -5.487839   -2.196908
    111          7           0       -3.388087   -0.065007    1.053242
    112          6           0       -2.203509   -0.681399    1.289015
    113          6           0       -1.190742    0.231334    1.572442
    114          6           0       -1.819238    1.443331    1.538888
    115          6           0       -3.146431    1.262738    1.203027
    116          6           0        0.282977   -0.100345    1.790397
    117          6           0       -1.532272    2.877113    1.695900
    118          8           0       -0.570331    3.492418    2.130768
    119          6           0       -2.888746    3.605067    1.294431
    120          6           0       -3.220952    4.528331    2.365319
    121          8           0       -3.726611    4.249254    3.457079
    122          8           0       -2.637591    5.706543    2.061460
    123          6           0       -2.562472    6.601000    3.202682
    124          1           0       -9.140059    1.267680   -0.111950
    125          1           0       -6.818573   -4.668692   -0.514920
    126          1           0       -1.089964   -2.639965    1.287723
    127          1           0       -5.969770    4.577636    1.251771
    128          1           0       -8.033100    3.570131   -0.355015
    129          1           0       -9.258946    4.082510    1.354346
    130          1           0       -7.830928    4.112656    2.404235
    131          1           0       -8.706581    2.658963    2.240438
    132          1           0       -6.298743    4.062663   -1.695309
    133          1           0       -4.622404    4.267187   -1.253021
    134          1           0       -6.634746    6.265134   -1.810735
    135          1           0       -5.033992    6.386514   -1.536170
    136          1           0      -10.774738   -0.024915   -0.976644
    137          1           0      -11.154710   -1.279779    0.255728
    138          1           0      -11.274124   -1.605170   -1.489015
    139          1           0      -11.236039   -3.690078   -2.469291
    140          1           0      -11.551779   -3.926726   -0.649360
    141          1           0      -11.354166   -5.266219   -1.668196
    142          1           0       -4.586893   -5.499032   -0.748188
    143          1           0       -2.211955   -4.984746    0.967376
    144          1           0       -4.732643   -6.924517    0.958278
    145          1           0       -5.544304   -5.695061    1.953835
    146          1           0       -3.833261   -6.040572    2.185061
    147          1           0       -0.964803   -4.416315   -0.863693
    148          1           0       -2.400533   -3.494161   -1.533694
    149          1           0       -3.127890   -5.161246   -2.841182
    150          1           0       -2.477433   -6.399621   -1.621941
    151          1           0       -1.432629   -5.697026   -2.805137
    152          1           0        0.450911   -0.997080    1.193466
    153          1           0        0.514005   -0.377105    2.818637
    154          1           0        0.877200    0.745108    1.444151
    155          1           0       -2.685849    4.139580    0.365553
    156          1           0       -2.073045    7.548339    2.978416
    157          1           0       -2.225256    6.165540    4.143444
    158          1           0       -3.559389    6.944450    3.481049
 ---------------------------------------------------------------------

 SCF Done:  E(RwB97XD) =  -4070.59001917     A.U. after   20 cycles

 Excitation energies and oscillator strengths:

 Excited State   1:      Singlet-A      1.6499 eV  751.47 nm  f=0.6545  <S**2>=0.000
     309 -> 315       -0.19020
     311 -> 313        0.60658
     312 -> 313       -0.24747
     312 -> 314       -0.17578
     309 <- 315       -0.11453
 This state for optimization and/or second-order correction.
 Total Energy, E(TD-HF/TD-DFT) =  -4070.52938715
 Copying the excited state density for this state as the 1-particle RhoCI density.

 Excited State   2:      Singlet-A      1.7869 eV  693.84 nm  f=0.2242  <S**2>=0.000
     310 -> 316       -0.18548
     311 -> 313        0.16022
     311 -> 314        0.24211
     312 -> 314        0.60718
     310 <- 316       -0.10727

 Excited State   3:      Singlet-A      2.1808 eV  568.53 nm  f=0.0173  <S**2>=0.000
     309 -> 313       -0.44741
     310 -> 314        0.45007
     311 -> 315       -0.22161
     312 -> 316        0.16366

 Excited State   4:      Singlet-A      2.2032 eV  562.73 nm  f=0.1586  <S**2>=0.000
     309 -> 313        0.42204
     310 -> 314        0.46765
     311 -> 315        0.21780
     312 -> 316        0.17329

 Excited State   5:      Singlet-A      2.8171 eV  440.11 nm  f=0.0009  <S**2>=0.000
     311 -> 313        0.26668
     312 -> 313        0.64362

 The electronic state is 1-A.
 Alpha  occ. eigenvalues --  -46.95148 -46.93707 -19.29545 -19.29531 -19.25165
 Alpha  occ. eigenvalues --  -19.24543 -19.23841 -19.23064 -19.22758 -19.22717
 Alpha  occ. eigenvalues --  -14.46963 -14.46139 -14.45574 -14.45194 -14.44053
 Alpha  occ. eigenvalues --  -14.43884 -14.42790 -14.42570 -10.41743 -10.41379
 Alpha  occ. eigenvalues --  -10.40604 -10.39801 -10.38399 -10.37693 -10.35526
 Alpha  occ. eigenvalues --  -10.34970 -10.34811 -10.34643 -10.34461 -10.34309
 Alpha  occ. eigenvalues --  -10.34257 -10.34244 -10.34212 -10.34128 -10.34036
 Alpha  occ. eigenvalues --  -10.33926 -10.33776 -10.33241 -10.33128 -10.33092
 Alpha  occ. eigenvalues --  -10.33037 -10.33000 -10.32790 -10.32514 -10.32477
 Alpha  occ. eigenvalues --  -10.32177 -10.32176 -10.31871 -10.31743 -10.31738
 Alpha  occ. eigenvalues --  -10.31662 -10.31644 -10.31569 -10.31519 -10.31515
 Alpha  occ. eigenvalues --  -10.31473 -10.31456 -10.31138 -10.31100 -10.31091
 Alpha  occ. eigenvalues --  -10.31023 -10.30983 -10.30980 -10.30894 -10.30854
 Alpha  occ. eigenvalues --  -10.30693 -10.30420 -10.30403 -10.30278 -10.30156
 Alpha  occ. eigenvalues --  -10.30139 -10.30130 -10.30063 -10.29936 -10.29760
 Alpha  occ. eigenvalues --  -10.29674 -10.29642 -10.29611 -10.29500 -10.29462
 Alpha  occ. eigenvalues --  -10.29315 -10.28916 -10.28780 -10.28211 -10.28120
 Alpha  occ. eigenvalues --  -10.26930  -3.21103  -3.19950  -1.94693  -1.94244
 Alpha  occ. eigenvalues --   -1.94051  -1.93533  -1.93095  -1.92940  -1.18047
 Alpha  occ. eigenvalues --   -1.17563  -1.14468  -1.12740  -1.11442  -1.10468
 Alpha  occ. eigenvalues --   -1.08182  -1.07340  -1.07102  -1.06906  -1.06703
 Alpha  occ. eigenvalues --   -1.06189  -1.06113  -1.05425  -1.04784  -1.04262
 Alpha  occ. eigenvalues --   -0.94413  -0.93577  -0.90868  -0.90672  -0.90090
 Alpha  occ. eigenvalues --   -0.89885  -0.89848  -0.89710  -0.89184  -0.88951
 Alpha  occ. eigenvalues --   -0.88723  -0.88401  -0.87950  -0.86790  -0.86164
 Alpha  occ. eigenvalues --   -0.85801  -0.85539  -0.84493  -0.84278  -0.83943
 Alpha  occ. eigenvalues --   -0.83919  -0.83513  -0.82953  -0.82161  -0.81995
 Alpha  occ. eigenvalues --   -0.81554  -0.80132  -0.79955  -0.79107  -0.78540
 Alpha  occ. eigenvalues --   -0.78239  -0.78093  -0.77537  -0.77127  -0.77066
 Alpha  occ. eigenvalues --   -0.76737  -0.74541  -0.74090  -0.73886  -0.73146
 Alpha  occ. eigenvalues --   -0.71282  -0.71061  -0.70674  -0.70282  -0.69564
 Alpha  occ. eigenvalues --   -0.68973  -0.68940  -0.68307  -0.67717  -0.67369
 Alpha  occ. eigenvalues --   -0.66840  -0.66660  -0.66587  -0.66250  -0.66207
 Alpha  occ. eigenvalues --   -0.65169  -0.63353  -0.63220  -0.62408  -0.62066
 Alpha  occ. eigenvalues --   -0.61538  -0.60926  -0.60915  -0.60641  -0.60387
 Alpha  occ. eigenvalues --   -0.59980  -0.59798  -0.59103  -0.58803  -0.58689
 Alpha  occ. eigenvalues --   -0.58163  -0.58094  -0.57514  -0.57177  -0.56840
 Alpha  occ. eigenvalues --   -0.56593  -0.56348  -0.56016  -0.55655  -0.55460
 Alpha  occ. eigenvalues --   -0.55321  -0.55125  -0.54974  -0.54898  -0.54503
 Alpha  occ. eigenvalues --   -0.54471  -0.54274  -0.54219  -0.53894  -0.53665
 Alpha  occ. eigenvalues --   -0.53517  -0.53240  -0.53119  -0.52990  -0.52777
 Alpha  occ. eigenvalues --   -0.52596  -0.52475  -0.52208  -0.52109  -0.52057
 Alpha  occ. eigenvalues --   -0.51827  -0.51713  -0.51367  -0.51141  -0.51065
 Alpha  occ. eigenvalues --   -0.50798  -0.50657  -0.50521  -0.50503  -0.50173
 Alpha  occ. eigenvalues --   -0.50122  -0.49893  -0.49702  -0.49659  -0.49544
 Alpha  occ. eigenvalues --   -0.49296  -0.49054  -0.48987  -0.48967  -0.48825
 Alpha  occ. eigenvalues --   -0.48513  -0.48361  -0.48326  -0.48142  -0.48007
 Alpha  occ. eigenvalues --   -0.47722  -0.47635  -0.47435  -0.47229  -0.47084
 Alpha  occ. eigenvalues --   -0.46844  -0.46688  -0.46539  -0.46132  -0.46086
 Alpha  occ. eigenvalues --   -0.46027  -0.45822  -0.45697  -0.45532  -0.45433
 Alpha  occ. eigenvalues --   -0.45360  -0.45296  -0.45165  -0.45031  -0.44833
 Alpha  occ. eigenvalues --   -0.44728  -0.44689  -0.44602  -0.44541  -0.44465
 Alpha  occ. eigenvalues --   -0.44312  -0.44166  -0.43864  -0.43855  -0.43811
 Alpha  occ. eigenvalues --   -0.43578  -0.43520  -0.43305  -0.43141  -0.42770
 Alpha  occ. eigenvalues --   -0.42699  -0.42664  -0.42523  -0.42377  -0.42058
 Alpha  occ. eigenvalues --   -0.41946  -0.41371  -0.41279  -0.40764  -0.40718
 Alpha  occ. eigenvalues --   -0.40158  -0.39668  -0.39579  -0.39495  -0.39284
 Alpha  occ. eigenvalues --   -0.39039  -0.38748  -0.38175  -0.37331  -0.37214
 Alpha  occ. eigenvalues --   -0.36944  -0.36834  -0.35899  -0.35734  -0.35618
 Alpha  occ. eigenvalues --   -0.35028  -0.34330  -0.34126  -0.33530  -0.33521
 Alpha  occ. eigenvalues --   -0.33286  -0.33248  -0.32374  -0.32326  -0.32193
 Alpha  occ. eigenvalues --   -0.31506  -0.31222  -0.30752  -0.25913  -0.24791
 Alpha  occ. eigenvalues --   -0.22730  -0.22637
 Alpha virt. eigenvalues --   -0.06575  -0.06050  -0.00211   0.01272   0.01968
 Alpha virt. eigenvalues --    0.03191   0.04779   0.05529   0.06154   0.06460
 Alpha virt. eigenvalues --    0.07176   0.07689   0.07846   0.08531   0.08796

 Mulliken charges:
               1
     1  Mg   0.993857
     2  C    0.048532
     3  C   -0.082664
     4  C   -0.069238
     5  C   -0.105632
     6  N   -0.341782
     7  C    0.047515
     8  C   -0.122220
     9  C   -0.075555
    10  C    0.029567
    11  C    0.027028
    12  C    0.023280
    13  C   -0.140695
    14  H    0.020951
    15  N   -0.559195
    16  C    0.189555
    17  C   -0.126332
    18  C   -0.131028
    19  C    0.181542
    20  C    0.043897
    21  C    0.089122
    22  O   -0.241221
    23  C   -0.020604
    24  N   -0.364186
    25  C    0.073433
    26  C   -0.083845
    27  C   -0.059481
    28  C    0.062787
    29  C    0.017506
    30  C   -0.005862
    31  C   -0.075670
    32  N   -0.358768
    33  C    0.131994
    34  C   -0.214483
    35  C   -0.013944
    36  C    0.093471
    37  C    0.114692
    38  C    0.102240
    39  O   -0.187468
    40  C   -0.131871
    41  C    0.257208
    42  O   -0.265696
    43  O   -0.353224
    44  C    0.133965
    45  H   -0.014555
    46  H    0.026129
    47  H   -0.028628
    48  H    0.036595
    49  H    0.028883
    50  H    0.041659
    51  H    0.037203
    52  H    0.042428
    53  H    0.031390
    54  H    0.062175
    55  H    0.052885
    56  H    0.054973
    57  H    0.054309
    58  H    0.027824
    59  H    0.053582
    60  H    0.074720
    61  H    0.049896
    62  H    0.047025
    63  H    0.043297
    64  H    0.026650
    65  H    0.020539
    66  H    0.043670
    67  H    0.041326
    68  H    0.035890
    69  H    0.043866
    70  H    0.037424
    71  H    0.044948
    72  H    0.029784
    73  H    0.030719
    74  H    0.058024
    75  H    0.060835
    76  H    0.071404
    77  H    0.046336
    78  H    0.087903
    79  H    0.042668
    80  Mg   0.962910
    81  C    0.000576
    82  C   -0.067788
    83  C   -0.088552
    84  C   -0.082537
    85  N   -0.251047
    86  C   -0.062968
    87  C   -0.062506
    88  C   -0.088223
    89  C   -0.002100
    90  C    0.040005
    91  C    0.008584
    92  C   -0.091312
    93  H    0.046305
    94  N   -0.471909
    95  C    0.158981
    96  C   -0.162001
    97  C   -0.089832
    98  C    0.121546
    99  C    0.059849
   100  C    0.075816
   101  O   -0.198909
   102  C   -0.023764
   103  N   -0.323362
   104  C    0.065279
   105  C   -0.102385
   106  C   -0.108279
   107  C    0.060261
   108  C    0.031055
   109  C   -0.030825
   110  C   -0.046891
   111  N   -0.412245
   112  C    0.088307
   113  C   -0.227064
   114  C   -0.041304
   115  C    0.158124
   116  C    0.112132
   117  C    0.152563
   118  O   -0.180023
   119  C   -0.095913
   120  C    0.251398
   121  O   -0.274300
   122  O   -0.331649
   123  C    0.155307
   124  H   -0.011607
   125  H    0.010229
   126  H   -0.003154
   127  H    0.039673
   128  H    0.016513
   129  H    0.038529
   130  H    0.042151
   131  H    0.035869
   132  H    0.031486
   133  H    0.054650
   134  H    0.037370
   135  H    0.035704
   136  H    0.043462
   137  H    0.064783
   138  H    0.039626
   139  H    0.085801
   140  H    0.044678
   141  H    0.049472
   142  H    0.042945
   143  H    0.014086
   144  H    0.040708
   145  H    0.046245
   146  H    0.041142
   147  H    0.032627
   148  H    0.039140
   149  H    0.051824
   150  H    0.034353
   151  H    0.035566
   152  H    0.014388
   153  H    0.047293
   154  H    0.069440
   155  H    0.077727
   156  H    0.047148
   157  H    0.061188
   158  H    0.022378
 Sum of Mulliken charges =  -0.00000

 Dipole moment (field-independent basis, Debye):
    X=             -0.0253    Y=              0.9520    Z=             -5.4474  Tot=              5.5300
 Quadrupole moment (field-independent basis, Debye-Ang):
   XX=           -402.4050   YY=           -485.6107   ZZ=           -522.5222
   XY=             10.6590   XZ=             -3.9360   YZ=            -12.2605

 Normal termination of Gaussian 16 at Sun Sep 19 14:18:07 2021.
