 Gaussian 16, Revision A.03,
 Gaussian 16:  ES64L-G16RevA.03 25-Dec-2016

 --------------------------------
 #p wB97XD/Def2SVP td=(nstates=5)
 --------------------------------

 --------------------------------
 TDDFT excited states in gaussian
 --------------------------------
 Symbolic Z-matrix:
 Charge =  0 Multiplicity = 1

                         Standard orientation:
 ---------------------------------------------------------------------
 Center     Atomic      Atomic             Coordinates (Angstroms)
 Number     Number       Type             X           Y           Z
 ---------------------------------------------------------------------
      1         12           0      -21.466686    0.229854    0.068413
      2          6           0      -18.461236    1.422327   -0.986616
      3          6           0      -22.211769   -0.626210   -3.281288
      4          6           0      -23.823025   -1.837841    1.220147
      5          6           0      -20.399710    0.637108    3.494537
      6          7           0      -20.447660    0.422071   -1.843709
      7          6           0      -19.274148    0.899412   -2.096169
      8          6           0      -19.003927    1.105978   -3.628958
      9          6           0      -20.357518    0.704106   -4.329287
     10          6           0      -21.127139    0.140173   -3.085533
     11          6           0      -21.013627    1.772571   -5.204924
     12          6           0      -17.670123    0.294622   -4.138447
     13          6           0      -17.192757   -0.903158   -3.333335
     14          1           0      -16.264862   -1.942661   -3.962072
     15          7           0      -22.819089   -1.058541   -0.911054
     16          6           0      -23.024177   -1.223347   -2.259819
     17          6           0      -24.023907   -2.178052   -2.470696
     18          6           0      -24.508209   -2.601469   -1.173153
     19          6           0      -23.680872   -1.851908   -0.191359
     20          6           0      -24.544713   -2.464886   -3.867083
     21          6           0      -25.632273   -3.632252   -0.963904
     22          8           0      -26.157344   -4.136441   -1.981986
     23          6           0      -26.136879   -4.074765    0.303771
     24          7           0      -21.953352   -0.647545    2.131599
     25          6           0      -23.079310   -1.291325    2.254144
     26          6           0      -23.490448   -1.521347    3.736314
     27          6           0      -22.424241   -0.683998    4.475928
     28          6           0      -21.483717   -0.136805    3.327346
     29          6           0      -24.866632   -1.072158    4.072552
     30          6           0      -21.648485   -1.518725    5.600603
     31          6           0      -21.937751   -1.103556    7.101624
     32          7           0      -19.862279    0.982185    1.121800
     33          6           0      -19.549925    1.131180    2.478867
     34          6           0      -18.230419    1.827428    2.590763
     35          6           0      -17.789084    1.901463    1.261987
     36          6           0      -18.784767    1.351234    0.401317
     37          6           0      -17.520885    2.263580    3.778387
     38          6           0      -16.679393    2.296443    0.522502
     39          8           0      -15.597457    2.826434    0.815009
     40          6           0      -17.088080    2.097484   -0.964737
     41          6           0      -16.951203    3.458722   -1.687355
     42          8           0      -16.318497    3.700892   -2.701053
     43          8           0      -17.657749    4.457801   -1.053374
     44          6           0      -17.579000    5.810124   -1.618415
     45          1           0      -22.328127   -0.892711   -4.333703
     46          1           0      -24.672589   -2.368122    1.654990
     47          1           0      -20.169174    0.907622    4.526966
     48          1           0      -18.944071    2.183771   -3.782556
     49          1           0      -20.246698   -0.176230   -4.963159
     50          1           0      -21.962562    2.076017   -4.763151
     51          1           0      -21.235862    1.404877   -6.207348
     52          1           0      -20.408389    2.656503   -5.406252
     53          1           0      -16.943693    1.105109   -4.202244
     54          1           0      -17.759014   -0.178419   -5.116657
     55          1           0      -18.125144   -1.383151   -3.037223
     56          1           0      -16.758236   -0.480537   -2.427240
     57          1           0      -25.606556   -2.347782   -4.085154
     58          1           0      -24.203193   -3.455680   -4.167650
     59          1           0      -24.046573   -1.799740   -4.572183
     60          1           0      -26.594525   -3.332088    0.957052
     61          1           0      -25.318258   -4.403666    0.943125
     62          1           0      -26.775949   -4.954729    0.237559
     63          1           0      -23.498077   -2.539787    4.124451
     64          1           0      -22.820983    0.236244    4.904876
     65          1           0      -25.597228   -1.872208    4.190899
     66          1           0      -25.315013   -0.544247    3.230147
     67          1           0      -24.853289   -0.464636    4.977302
     68          1           0      -20.580801   -1.329592    5.481340
     69          1           0      -21.885026   -2.581778    5.616091
     70          1           0      -22.114242   -1.996572    7.699871
     71          1           0      -22.890063   -0.573552    7.123189
     72          1           0      -21.015086   -0.633882    7.443002
     73          1           0      -18.311105    2.508644    4.488417
     74          1           0      -16.931499    3.156776    3.568118
     75          1           0      -16.832927    1.458257    4.034108
     76          1           0      -16.330177    1.580587   -1.552929
     77          1           0      -17.795389    6.525446   -0.824721
     78          1           0      -18.283612    6.081569   -2.404339
     79          1           0      -16.628782    6.028769   -2.106519
     80         12           0       20.622667   -0.924597   -0.251087
     81          6           0       21.457733    2.515127    0.289608
     82          6           0       17.454697   -0.289148    0.912562
     83          6           0       19.884412   -4.220290   -0.285823
     84          6           0       24.084746   -1.563390   -0.468595
     85          7           0       19.606472    0.908848    0.492285
     86          6           0       20.086494    2.225629    0.571286
     87          6           0       18.965506    3.133681    1.007769
     88          6           0       17.940139    2.115354    1.663289
     89          6           0       18.395647    0.772540    1.020169
     90          6           0       18.154855    2.148273    3.218497
     91          6           0       18.417945    4.070197   -0.126451
     92          6           0       18.223945    5.411787    0.375336
     93          1           0       18.010321    6.537301   -0.757054
     94          7           0       18.809788   -1.994908    0.100378
     95          6           0       17.624638   -1.546478    0.531222
     96          6           0       16.678101   -2.619112    0.512890
     97          6           0       17.346803   -3.780902    0.188924
     98          6           0       18.799492   -3.367052   -0.087409
     99          6           0       15.212268   -2.443242    1.022307
    100          6           0       16.785368   -5.205440    0.002140
    101          8           0       17.545518   -6.105370   -0.251355
    102          6           0       15.297268   -5.461519    0.043112
    103          7           0       21.875889   -2.653267   -0.089220
    104          6           0       21.286498   -3.900559   -0.263818
    105          6           0       22.318824   -4.937182   -0.567369
    106          6           0       23.677573   -4.084595   -0.650305
    107          6           0       23.196938   -2.665889   -0.455226
    108          6           0       22.317696   -6.068373    0.404574
    109          6           0       24.588963   -4.253841   -1.986629
    110          6           0       25.963955   -4.771921   -1.830642
    111          7           0       22.441824    0.195382   -0.175334
    112          6           0       23.744072   -0.239122   -0.278251
    113          6           0       24.649438    0.990356   -0.239065
    114          6           0       23.790167    2.102349   -0.132481
    115          6           0       22.459801    1.561162   -0.044111
    116          6           0       26.182875    0.943149   -0.282381
    117          6           0       23.805711    3.519413    0.070394
    118          8           0       24.764269    4.323831    0.100134
    119          6           0       22.321709    3.838823    0.522053
    120          6           0       21.916386    5.118073   -0.270120
    121          8           0       21.197963    5.038065   -1.283388
    122          8           0       22.380455    6.220604    0.367715
    123          6           0       22.156992    7.417125   -0.514613
    124          1           0       16.397261   -0.061051    1.064187
    125          1           0       19.667306   -5.290534   -0.320967
    126          1           0       25.162203   -1.647835   -0.623992
    127          1           0       19.367266    3.721342    1.832894
    128          1           0       16.907456    2.385388    1.445373
    129          1           0       19.064151    1.643655    3.544115
    130          1           0       17.271909    1.732989    3.702484
    131          1           0       18.211550    3.188011    3.541561
    132          1           0       17.401141    3.734865   -0.332196
    133          1           0       19.020692    4.010138   -1.032957
    134          1           0       19.131004    5.790169    0.846993
    135          1           0       17.362191    5.388666    1.042834
    136          1           0       14.619353   -2.782774    0.173077
    137          1           0       14.922208   -1.415783    1.241549
    138          1           0       15.067279   -3.017177    1.937458
    139          1           0       15.090849   -6.529807   -0.023048
    140          1           0       15.053418   -4.903022   -0.860561
    141          1           0       14.904441   -5.026093    0.961865
    142          1           0       22.026236   -5.276274   -1.561280
    143          1           0       24.291925   -4.399943    0.192670
    144          1           0       21.934764   -6.913383   -0.166231
    145          1           0       21.595727   -5.937230    1.210447
    146          1           0       23.280156   -6.295269    0.863722
    147          1           0       24.697681   -3.220275   -2.315182
    148          1           0       23.994330   -4.790012   -2.725043
    149          1           0       26.701676   -4.029655   -2.134346
    150          1           0       25.902632   -5.519184   -2.621067
    151          1           0       26.130980   -5.271169   -0.875227
    152          1           0       26.505091    0.944858    0.758302
    153          1           0       26.613083    1.801504   -0.798286
    154          1           0       26.493785    0.059517   -0.839774
    155          1           0       22.426640    4.027398    1.589603
    156          1           0       22.829975    7.489511   -1.368830
    157          1           0       22.189669    8.376490    0.000746
    158          1           0       21.120407    7.344278   -0.844295
 ---------------------------------------------------------------------

 SCF Done:  E(RwB97XD) =  -4070.54480170     A.U. after   19 cycles

 Excitation energies and oscillator strengths:

 Excited State   1:      Singlet-A      1.6547 eV  749.30 nm  f=0.4515  <S**2>=0.000
     309 -> 316       -0.16627
     311 -> 313        0.68642
     309 <- 316       -0.11149
 This state for optimization and/or second-order correction.
 Total Energy, E(TD-HF/TD-DFT) =  -4070.48399397
 Copying the excited state density for this state as the 1-particle RhoCI density.

 Excited State   2:      Singlet-A      1.6770 eV  739.33 nm  f=0.3359  <S**2>=0.000
     310 -> 315        0.19181
     312 -> 314        0.67996
     310 <- 315        0.11542

 Excited State   3:      Singlet-A      2.1980 eV  564.07 nm  f=0.1158  <S**2>=0.000
     309 -> 313        0.64042
     311 -> 316        0.27523

 Excited State   4:      Singlet-A      2.2164 eV  559.39 nm  f=0.0062  <S**2>=0.000
     310 -> 314        0.55056
     312 -> 315       -0.43362

 Excited State   5:      Singlet-A      3.4821 eV  356.06 nm  f=0.0000  <S**2>=0.000
     312 -> 313        0.70709

 The electronic state is 1-A.
 Alpha  occ. eigenvalues --  -46.96712 -46.95732 -19.31331 -19.30212 -19.25140
 Alpha  occ. eigenvalues --  -19.24670 -19.24501 -19.24164 -19.23742 -19.22429
 Alpha  occ. eigenvalues --  -14.47852 -14.46846 -14.46539 -14.46451 -14.45223
 Alpha  occ. eigenvalues --  -14.44417 -14.43946 -14.43686 -10.43676 -10.43534
 Alpha  occ. eigenvalues --  -10.39631 -10.38862 -10.38845 -10.38199 -10.37117
 Alpha  occ. eigenvalues --  -10.35956 -10.35411 -10.35371 -10.35367 -10.35322
 Alpha  occ. eigenvalues --  -10.35319 -10.35245 -10.34906 -10.34790 -10.34737
 Alpha  occ. eigenvalues --  -10.34656 -10.34523 -10.34406 -10.33907 -10.33564
 Alpha  occ. eigenvalues --  -10.33407 -10.33087 -10.33019 -10.32988 -10.32973
 Alpha  occ. eigenvalues --  -10.32965 -10.32936 -10.32740 -10.32593 -10.32565
 Alpha  occ. eigenvalues --  -10.32439 -10.32383 -10.32192 -10.32141 -10.32010
 Alpha  occ. eigenvalues --  -10.32005 -10.31933 -10.31774 -10.31638 -10.31397
 Alpha  occ. eigenvalues --  -10.31362 -10.31185 -10.31167 -10.31113 -10.31100
 Alpha  occ. eigenvalues --  -10.31007 -10.30886 -10.30839 -10.30799 -10.30781
 Alpha  occ. eigenvalues --  -10.30467 -10.30348 -10.30316 -10.30296 -10.30085
 Alpha  occ. eigenvalues --  -10.30034 -10.29895 -10.29776 -10.29756 -10.29747
 Alpha  occ. eigenvalues --  -10.29499 -10.29186 -10.28973 -10.28887 -10.28809
 Alpha  occ. eigenvalues --  -10.28781  -3.22584  -3.21536  -1.96144  -1.95735
 Alpha  occ. eigenvalues --   -1.95516  -1.95115  -1.94640  -1.94501  -1.18396
 Alpha  occ. eigenvalues --   -1.18176  -1.13950  -1.11410  -1.10012  -1.09799
 Alpha  occ. eigenvalues --   -1.09649  -1.09267  -1.07100  -1.06557  -1.06094
 Alpha  occ. eigenvalues --   -1.05765  -1.05031  -1.04650  -1.04274  -1.03389
 Alpha  occ. eigenvalues --   -0.95096  -0.93129  -0.91655  -0.91327  -0.90953
 Alpha  occ. eigenvalues --   -0.90819  -0.90561  -0.90373  -0.90007  -0.89729
 Alpha  occ. eigenvalues --   -0.89458  -0.89123  -0.87341  -0.87234  -0.86603
 Alpha  occ. eigenvalues --   -0.86246  -0.86106  -0.85630  -0.84870  -0.84515
 Alpha  occ. eigenvalues --   -0.84448  -0.84428  -0.83489  -0.82593  -0.82342
 Alpha  occ. eigenvalues --   -0.82309  -0.80488  -0.80171  -0.79430  -0.79383
 Alpha  occ. eigenvalues --   -0.78914  -0.78405  -0.78339  -0.77347  -0.77259
 Alpha  occ. eigenvalues --   -0.76840  -0.75450  -0.74114  -0.73985  -0.73376
 Alpha  occ. eigenvalues --   -0.71660  -0.70882  -0.70764  -0.70388  -0.69746
 Alpha  occ. eigenvalues --   -0.69374  -0.68865  -0.68277  -0.67987  -0.67676
 Alpha  occ. eigenvalues --   -0.66977  -0.66871  -0.66853  -0.66585  -0.66391
 Alpha  occ. eigenvalues --   -0.66248  -0.65399  -0.64001  -0.62932  -0.62030
 Alpha  occ. eigenvalues --   -0.61918  -0.61032  -0.60964  -0.60568  -0.60396
 Alpha  occ. eigenvalues --   -0.60176  -0.60053  -0.59346  -0.59272  -0.58993
 Alpha  occ. eigenvalues --   -0.58334  -0.57957  -0.57648  -0.57637  -0.57412
 Alpha  occ. eigenvalues --   -0.56998  -0.56784  -0.56527  -0.56217  -0.55918
 Alpha  occ. eigenvalues --   -0.55884  -0.55868  -0.55473  -0.55437  -0.55243
 Alpha  occ. eigenvalues --   -0.54833  -0.54830  -0.54637  -0.54581  -0.54510
 Alpha  occ. eigenvalues --   -0.54355  -0.54206  -0.53814  -0.53451  -0.53296
 Alpha  occ. eigenvalues --   -0.53208  -0.52880  -0.52644  -0.52448  -0.52295
 Alpha  occ. eigenvalues --   -0.52267  -0.52132  -0.52039  -0.51938  -0.51516
 Alpha  occ. eigenvalues --   -0.51430  -0.51201  -0.51007  -0.50963  -0.50834
 Alpha  occ. eigenvalues --   -0.50790  -0.50519  -0.50513  -0.50290  -0.50116
 Alpha  occ. eigenvalues --   -0.49915  -0.49739  -0.49602  -0.49378  -0.49318
 Alpha  occ. eigenvalues --   -0.49163  -0.48843  -0.48777  -0.48491  -0.48425
 Alpha  occ. eigenvalues --   -0.48144  -0.48107  -0.47961  -0.47891  -0.47718
 Alpha  occ. eigenvalues --   -0.47699  -0.47252  -0.47225  -0.47008  -0.46869
 Alpha  occ. eigenvalues --   -0.46577  -0.46486  -0.46426  -0.46413  -0.46249
 Alpha  occ. eigenvalues --   -0.45980  -0.45785  -0.45700  -0.45612  -0.45353
 Alpha  occ. eigenvalues --   -0.45157  -0.44955  -0.44744  -0.44734  -0.44586
 Alpha  occ. eigenvalues --   -0.44236  -0.44213  -0.44104  -0.43930  -0.43918
 Alpha  occ. eigenvalues --   -0.43794  -0.43455  -0.43355  -0.42988  -0.42910
 Alpha  occ. eigenvalues --   -0.42792  -0.42653  -0.42651  -0.42076  -0.42011
 Alpha  occ. eigenvalues --   -0.41797  -0.41669  -0.41015  -0.40724  -0.40710
 Alpha  occ. eigenvalues --   -0.40409  -0.40145  -0.39838  -0.39740  -0.39188
 Alpha  occ. eigenvalues --   -0.39132  -0.38941  -0.38855  -0.38549  -0.38441
 Alpha  occ. eigenvalues --   -0.38039  -0.36852  -0.36737  -0.36355  -0.36283
 Alpha  occ. eigenvalues --   -0.36005  -0.35788  -0.35158  -0.33901  -0.33832
 Alpha  occ. eigenvalues --   -0.33345  -0.33234  -0.33178  -0.32599  -0.32201
 Alpha  occ. eigenvalues --   -0.32054  -0.31428  -0.31170  -0.26906  -0.26168
 Alpha  occ. eigenvalues --   -0.23513  -0.21980
 Alpha virt. eigenvalues --   -0.07919  -0.05857  -0.00572  -0.00006   0.01958
 Alpha virt. eigenvalues --    0.02115   0.03774   0.04322   0.04503   0.05104
 Alpha virt. eigenvalues --    0.07155   0.07303   0.07572   0.07808   0.07987

 Mulliken charges:
               1
     1  Mg   0.956828
     2  C    0.004222
     3  C   -0.071974
     4  C   -0.044037
     5  C   -0.099204
     6  N   -0.349344
     7  C    0.010919
     8  C   -0.050870
     9  C   -0.100604
    10  C    0.039651
    11  C    0.023917
    12  C   -0.030500
    13  C   -0.101670
    14  H    0.062301
    15  N   -0.458693
    16  C    0.154330
    17  C   -0.150889
    18  C   -0.094507
    19  C    0.205557
    20  C    0.091898
    21  C    0.063104
    22  O   -0.267783
    23  C    0.000073
    24  N   -0.297841
    25  C    0.010924
    26  C   -0.080705
    27  C   -0.045992
    28  C    0.048375
    29  C    0.002544
    30  C   -0.042790
    31  C   -0.065009
    32  N   -0.464560
    33  C    0.133623
    34  C   -0.171362
    35  C   -0.013205
    36  C    0.155436
    37  C    0.081434
    38  C    0.117871
    39  O   -0.220342
    40  C   -0.108062
    41  C    0.242751
    42  O   -0.244112
    43  O   -0.368859
    44  C    0.139807
    45  H    0.011749
    46  H   -0.042736
    47  H    0.000692
    48  H    0.052500
    49  H    0.038600
    50  H    0.039504
    51  H    0.034778
    52  H    0.041357
    53  H    0.057251
    54  H    0.041167
    55  H    0.052240
    56  H    0.036573
    57  H    0.060622
    58  H    0.046865
    59  H    0.000148
    60  H    0.063462
    61  H    0.040871
    62  H    0.054694
    63  H    0.045312
    64  H    0.032505
    65  H    0.028532
    66  H    0.031398
    67  H    0.039499
    68  H    0.036105
    69  H    0.041005
    70  H    0.033312
    71  H    0.036210
    72  H    0.047786
    73  H    0.043735
    74  H    0.066844
    75  H    0.074550
    76  H    0.058510
    77  H    0.052718
    78  H    0.037469
    79  H    0.061524
    80  Mg   0.943021
    81  C    0.041753
    82  C   -0.129120
    83  C   -0.076136
    84  C   -0.077240
    85  N   -0.336098
    86  C   -0.017659
    87  C   -0.079465
    88  C   -0.155321
    89  C    0.135850
    90  C    0.022043
    91  C    0.093341
    92  C   -0.136420
    93  H    0.009065
    94  N   -0.446458
    95  C    0.165815
    96  C   -0.153239
    97  C   -0.107879
    98  C    0.165028
    99  C    0.056645
   100  C    0.032463
   101  O   -0.217424
   102  C    0.006298
   103  N   -0.392535
   104  C    0.060491
   105  C   -0.103430
   106  C   -0.058517
   107  C    0.088868
   108  C    0.029690
   109  C   -0.034570
   110  C   -0.028611
   111  N   -0.416625
   112  C    0.095708
   113  C   -0.195840
   114  C   -0.011719
   115  C    0.105064
   116  C    0.075059
   117  C    0.122641
   118  O   -0.234958
   119  C   -0.139179
   120  C    0.281281
   121  O   -0.275130
   122  O   -0.340472
   123  C    0.131687
   124  H   -0.010013
   125  H    0.029179
   126  H   -0.008299
   127  H    0.017176
   128  H    0.025438
   129  H    0.050714
   130  H    0.035153
   131  H    0.035641
   132  H    0.016221
   133  H    0.073640
   134  H    0.051781
   135  H    0.043267
   136  H    0.051758
   137  H    0.037637
   138  H    0.072656
   139  H    0.062095
   140  H    0.066267
   141  H    0.055583
   142  H    0.043055
   143  H    0.031466
   144  H    0.039719
   145  H    0.045865
   146  H    0.038540
   147  H    0.026816
   148  H    0.028192
   149  H    0.044924
   150  H    0.030305
   151  H    0.041826
   152  H    0.063072
   153  H    0.057573
   154  H    0.033396
   155  H    0.090006
   156  H    0.070048
   157  H    0.052414
   158  H    0.059119
 Sum of Mulliken charges =  -0.00000

 Dipole moment (field-independent basis, Debye):
    X=             -7.0502    Y=             -0.2964    Z=              4.7354  Tot=              8.4980
 Quadrupole moment (field-independent basis, Debye-Ang):
   XX=           -572.5170   YY=           -517.0137   ZZ=           -479.1112
   XY=           -131.7320   XZ=            -81.6196   YZ=             -8.4499

 Normal termination of Gaussian 16 at Sat Sep 18 22:07:50 2021.
