 Gaussian 16, Revision A.03,
 Gaussian 16:  ES64L-G16RevA.03 25-Dec-2016

 --------------------------------
 #p wB97XD/Def2SVP td=(nstates=5)
 --------------------------------

 --------------------------------
 TDDFT excited states in gaussian
 --------------------------------
 Symbolic Z-matrix:
 Charge =  0 Multiplicity = 1

                         Standard orientation:
 ---------------------------------------------------------------------
 Center     Atomic      Atomic             Coordinates (Angstroms)
 Number     Number       Type             X           Y           Z
 ---------------------------------------------------------------------
      1         12           0       -9.792078   -0.850882    0.493227
      2          6           0       -9.898916    2.533349   -0.377234
      3          6           0       -7.878027    0.026598    3.226937
      4          6           0       -9.064579   -4.147472    0.997510
      5          6           0      -11.137453   -1.613095   -2.605479
      6          7           0       -9.099982    1.054824    1.315488
      7          6           0       -9.445049    2.285107    0.914680
      8          6           0       -9.110495    3.402690    1.913415
      9          6           0       -8.284554    2.611698    2.999030
     10          6           0       -8.488754    1.056359    2.558179
     11          6           0       -6.793126    2.977924    3.157819
     12          6           0      -10.325338    4.146747    2.468270
     13          6           0      -10.006287    5.585501    2.913546
     14          1           0       -8.567822    6.107888    2.791780
     15          7           0       -8.737646   -1.937949    1.957660
     16          6           0       -8.054354   -1.389727    3.067586
     17          6           0       -7.527028   -2.481330    3.861535
     18          6           0       -7.809537   -3.726101    3.184740
     19          6           0       -8.592100   -3.319948    2.018432
     20          6           0       -6.894511   -2.229033    5.202483
     21          6           0       -7.538609   -5.232354    3.632120
     22          8           0       -7.954199   -6.195400    3.034692
     23          6           0       -6.693607   -5.421128    4.873246
     24          7           0       -9.973768   -2.597554   -0.670556
     25          6           0       -9.646275   -3.852836   -0.248530
     26          6           0      -10.033701   -4.956016   -1.300950
     27          6           0      -10.735098   -4.116038   -2.367088
     28          6           0      -10.598543   -2.697132   -1.847787
     29          6           0       -8.965838   -5.984972   -1.851522
     30          6           0      -12.213004   -4.541122   -2.532650
     31          6           0      -13.264291   -3.986700   -1.545829
     32          7           0      -10.562595    0.185665   -1.155926
     33          6           0      -11.078883   -0.249007   -2.349105
     34          6           0      -11.472082    0.845814   -3.171353
     35          6           0      -11.011389    2.021488   -2.424523
     36          6           0      -10.477858    1.557087   -1.285857
     37          6           0      -12.134606    0.894819   -4.476537
     38          6           0      -10.810599    3.463218   -2.470136
     39          8           0      -11.204386    4.294201   -3.295491
     40          6           0      -10.090633    3.884329   -1.155252
     41          6           0       -8.834486    4.574516   -1.429772
     42          8           0       -7.776206    4.046305   -1.754238
     43          8           0       -9.068293    5.925305   -1.493149
     44          6           0       -8.087134    6.807300   -2.154580
     45          1           0       -7.261038    0.395097    4.049375
     46          1           0       -8.999723   -5.210613    1.238174
     47          1           0      -11.650025   -1.847400   -3.540759
     48          1           0       -8.387889    4.106321    1.500701
     49          1           0       -8.759069    2.599583    3.979598
     50          1           0       -6.754108    3.167868    4.230285
     51          1           0       -6.555159    3.878702    2.592573
     52          1           0       -6.159981    2.157316    2.820212
     53          1           0      -10.791292    3.611265    3.294580
     54          1           0      -11.105016    4.211212    1.708820
     55          1           0      -10.323175    5.544760    3.955875
     56          1           0      -10.690808    6.310003    2.470066
     57          1           0       -6.773796   -1.147608    5.267133
     58          1           0       -5.937470   -2.749247    5.247261
     59          1           0       -7.495943   -2.598104    6.034601
     60          1           0       -5.620927   -5.251329    4.774833
     61          1           0       -6.897756   -6.418296    5.263205
     62          1           0       -7.130109   -4.688121    5.551586
     63          1           0      -10.732177   -5.554370   -0.716412
     64          1           0      -10.181001   -4.271502   -3.292077
     65          1           0       -8.955202   -6.093880   -2.935375
     66          1           0       -9.221058   -6.972242   -1.467788
     67          1           0       -7.995770   -5.705133   -1.439644
     68          1           0      -12.202445   -5.629929   -2.500664
     69          1           0      -12.468087   -4.254145   -3.553210
     70          1           0      -13.906949   -4.839250   -1.327653
     71          1           0      -13.899822   -3.215258   -1.980053
     72          1           0      -12.843497   -3.515879   -0.658068
     73          1           0      -12.870930    1.697007   -4.441863
     74          1           0      -12.622320   -0.027345   -4.792675
     75          1           0      -11.440465    1.265399   -5.231035
     76          1           0      -10.817869    4.520087   -0.650458
     77          1           0       -7.204049    6.262502   -2.490239
     78          1           0       -7.757671    7.543453   -1.420933
     79          1           0       -8.686516    7.199357   -2.975490
     80         12           0        9.747215   -0.616986   -0.289943
     81          6           0        7.958773    2.501041    0.008723
     82          6           0       12.643907    1.174114    0.545800
     83          6           0       11.374266   -3.464851   -0.439143
     84          6           0        6.807267   -2.143963   -1.406264
     85          7           0       10.197513    1.649376    0.197640
     86          6           0        9.310363    2.644321    0.462780
     87          6           0        9.971696    3.829277    1.147590
     88          6           0       11.566309    3.529853    0.996973
     89          6           0       11.481425    2.047478    0.531466
     90          6           0       12.330729    4.506134    0.068140
     91          6           0        9.507747    4.005677    2.632923
     92          6           0        8.901176    5.398833    2.942535
     93          1           0        9.768488    6.269225    4.022667
     94          7           0       11.672837   -1.066325    0.008924
     95          6           0       12.790414   -0.221065    0.323110
     96          6           0       14.067184   -0.960626    0.462496
     97          6           0       13.644555   -2.309689    0.225997
     98          6           0       12.203083   -2.316920   -0.074821
     99          6           0       15.424273   -0.321310    0.763428
    100          6           0       14.472494   -3.536479    0.164906
    101          8           0       14.048225   -4.686701    0.192138
    102          6           0       16.004680   -3.374513    0.208323
    103          7           0        9.125233   -2.516487   -0.670829
    104          6           0        9.999120   -3.548304   -0.705549
    105          6           0        9.409719   -4.797246   -1.299752
    106          6           0        7.931841   -4.428847   -1.579337
    107          6           0        7.901270   -2.945473   -1.147197
    108          6           0       10.178514   -5.364409   -2.474662
    109          6           0        6.925031   -5.333393   -0.652409
    110          6           0        5.765175   -6.140456   -1.453441
    111          7           0        7.828592    0.069935   -0.896738
    112          6           0        6.714513   -0.726270   -1.256085
    113          6           0        5.551570    0.161108   -1.371263
    114          6           0        5.993696    1.361487   -0.755391
    115          6           0        7.379655    1.293481   -0.605498
    116          6           0        4.160396   -0.115157   -1.933533
    117          6           0        5.551299    2.764108   -0.515163
    118          8           0        4.487939    3.416975   -0.706147
    119          6           0        6.809103    3.485289    0.106703
    120          6           0        7.066040    4.743979   -0.668231
    121          8           0        7.039618    4.818441   -1.864119
    122          8           0        7.211471    5.792080    0.197667
    123          6           0        7.128057    7.108399   -0.484168
    124          1           0       13.530623    1.797763    0.675566
    125          1           0       11.857767   -4.441767   -0.509212
    126          1           0        5.868513   -2.607075   -1.716499
    127          1           0        9.735935    4.699109    0.534423
    128          1           0       12.079055    3.504464    1.958881
    129          1           0       12.705630    3.988462   -0.815278
    130          1           0       13.158502    4.972438    0.604001
    131          1           0       11.774812    5.384509   -0.259841
    132          1           0       10.333386    3.871395    3.332254
    133          1           0        8.736240    3.283523    2.901403
    134          1           0        7.959455    5.343718    3.489257
    135          1           0        8.658037    6.004104    2.069813
    136          1           0       15.416591    0.686808    1.179046
    137          1           0       16.136459   -0.321517   -0.061672
    138          1           0       15.868398   -0.960291    1.527348
    139          1           0       16.350131   -2.801000   -0.651777
    140          1           0       16.521368   -4.332410    0.276937
    141          1           0       16.254821   -2.823721    1.115038
    142          1           0        9.500621   -5.594330   -0.560614
    143          1           0        7.699532   -4.503413   -2.641273
    144          1           0       10.720076   -6.280787   -2.238408
    145          1           0       10.975284   -4.726664   -2.857295
    146          1           0        9.471828   -5.527522   -3.288613
    147          1           0        6.402609   -4.766220    0.117285
    148          1           0        7.453892   -6.104414   -0.092732
    149          1           0        6.122252   -6.216365   -2.480681
    150          1           0        4.804704   -5.625721   -1.405056
    151          1           0        5.707434   -7.179033   -1.128719
    152          1           0        3.389104    0.465005   -1.427330
    153          1           0        3.905051   -1.143152   -1.673760
    154          1           0        4.300112   -0.017249   -3.010195
    155          1           0        6.497924    3.810310    1.099168
    156          1           0        7.858891    7.101231   -1.292601
    157          1           0        7.500384    7.804717    0.267081
    158          1           0        6.185171    7.415250   -0.936754
 ---------------------------------------------------------------------

 SCF Done:  E(RwB97XD) =  -4070.61384954     A.U. after   20 cycles

 Excitation energies and oscillator strengths:

 Excited State   1:      Singlet-A      1.6148 eV  767.81 nm  f=0.3986  <S**2>=0.000
     309 -> 315        0.19304
     311 -> 313        0.68143
     309 <- 315        0.12116
 This state for optimization and/or second-order correction.
 Total Energy, E(TD-HF/TD-DFT) =  -4070.55450760
 Copying the excited state density for this state as the 1-particle RhoCI density.

 Excited State   2:      Singlet-A      1.6569 eV  748.29 nm  f=0.3866  <S**2>=0.000
     310 -> 316       -0.18708
     312 -> 314        0.68114
     310 <- 316       -0.11615

 Excited State   3:      Singlet-A      2.0769 eV  596.97 nm  f=0.1382  <S**2>=0.000
     310 -> 314        0.65604
     312 -> 316        0.23939

 Excited State   4:      Singlet-A      2.1192 eV  585.05 nm  f=0.1364  <S**2>=0.000
     309 -> 313        0.64466
     311 -> 315       -0.27997

 Excited State   5:      Singlet-A      3.1027 eV  399.60 nm  f=0.0052  <S**2>=0.000
     306 -> 314       -0.12744
     308 -> 314        0.67555

 The electronic state is 1-A.
 Alpha  occ. eigenvalues --  -46.94824 -46.94464 -19.30831 -19.28929 -19.24858
 Alpha  occ. eigenvalues --  -19.24622 -19.23982 -19.23740 -19.23695 -19.23627
 Alpha  occ. eigenvalues --  -14.47208 -14.46753 -14.46465 -14.46335 -14.45332
 Alpha  occ. eigenvalues --  -14.43933 -14.43790 -14.42644 -10.42613 -10.42328
 Alpha  occ. eigenvalues --  -10.40061 -10.39133 -10.39090 -10.38969 -10.35871
 Alpha  occ. eigenvalues --  -10.35646 -10.35640 -10.35584 -10.35264 -10.34875
 Alpha  occ. eigenvalues --  -10.34863 -10.34789 -10.34780 -10.34737 -10.34687
 Alpha  occ. eigenvalues --  -10.34577 -10.34539 -10.34249 -10.33937 -10.33775
 Alpha  occ. eigenvalues --  -10.33255 -10.33093 -10.32920 -10.32906 -10.32719
 Alpha  occ. eigenvalues --  -10.32684 -10.32681 -10.32592 -10.32499 -10.32466
 Alpha  occ. eigenvalues --  -10.32333 -10.32191 -10.32167 -10.32136 -10.32001
 Alpha  occ. eigenvalues --  -10.31985 -10.31828 -10.31653 -10.31575 -10.31560
 Alpha  occ. eigenvalues --  -10.31558 -10.31353 -10.31265 -10.31150 -10.31122
 Alpha  occ. eigenvalues --  -10.31024 -10.30826 -10.30783 -10.30759 -10.30678
 Alpha  occ. eigenvalues --  -10.30516 -10.30432 -10.30181 -10.30152 -10.30099
 Alpha  occ. eigenvalues --  -10.29924 -10.29853 -10.29847 -10.29740 -10.29679
 Alpha  occ. eigenvalues --  -10.29541 -10.29511 -10.29310 -10.29200 -10.29164
 Alpha  occ. eigenvalues --  -10.28668  -3.20900  -3.20426  -1.94490  -1.94024
 Alpha  occ. eigenvalues --   -1.94016  -1.93891  -1.93546  -1.93405  -1.19081
 Alpha  occ. eigenvalues --   -1.17070  -1.13701  -1.12181  -1.10963  -1.10833
 Alpha  occ. eigenvalues --   -1.09239  -1.08648  -1.06322  -1.05943  -1.05236
 Alpha  occ. eigenvalues --   -1.05193  -1.04590  -1.04344  -1.04027  -1.02931
 Alpha  occ. eigenvalues --   -0.93914  -0.93501  -0.90925  -0.90573  -0.90497
 Alpha  occ. eigenvalues --   -0.90323  -0.89975  -0.89945  -0.89319  -0.88908
 Alpha  occ. eigenvalues --   -0.88888  -0.88270  -0.87902  -0.87496  -0.85980
 Alpha  occ. eigenvalues --   -0.85910  -0.85194  -0.85019  -0.84092  -0.83770
 Alpha  occ. eigenvalues --   -0.83661  -0.83304  -0.82814  -0.82578  -0.81994
 Alpha  occ. eigenvalues --   -0.81676  -0.81048  -0.79971  -0.78971  -0.78925
 Alpha  occ. eigenvalues --   -0.78663  -0.78600  -0.77929  -0.77672  -0.77127
 Alpha  occ. eigenvalues --   -0.76836  -0.74504  -0.74292  -0.73364  -0.72938
 Alpha  occ. eigenvalues --   -0.71621  -0.71122  -0.70616  -0.70272  -0.69512
 Alpha  occ. eigenvalues --   -0.69505  -0.69068  -0.67942  -0.67788  -0.67570
 Alpha  occ. eigenvalues --   -0.66587  -0.66490  -0.66371  -0.66311  -0.65978
 Alpha  occ. eigenvalues --   -0.65590  -0.64303  -0.63235  -0.62803  -0.61656
 Alpha  occ. eigenvalues --   -0.61179  -0.60940  -0.60889  -0.60697  -0.60292
 Alpha  occ. eigenvalues --   -0.60133  -0.59883  -0.59536  -0.59259  -0.59090
 Alpha  occ. eigenvalues --   -0.58111  -0.57696  -0.57245  -0.57219  -0.56974
 Alpha  occ. eigenvalues --   -0.56907  -0.56489  -0.56422  -0.55682  -0.55464
 Alpha  occ. eigenvalues --   -0.55312  -0.55146  -0.54639  -0.54594  -0.54474
 Alpha  occ. eigenvalues --   -0.54471  -0.54128  -0.54103  -0.53918  -0.53774
 Alpha  occ. eigenvalues --   -0.53577  -0.53405  -0.53288  -0.53239  -0.52744
 Alpha  occ. eigenvalues --   -0.52604  -0.52439  -0.52371  -0.52053  -0.51928
 Alpha  occ. eigenvalues --   -0.51853  -0.51664  -0.51505  -0.51394  -0.51374
 Alpha  occ. eigenvalues --   -0.51171  -0.51126  -0.50848  -0.50779  -0.50695
 Alpha  occ. eigenvalues --   -0.50288  -0.50161  -0.50013  -0.49992  -0.49919
 Alpha  occ. eigenvalues --   -0.49900  -0.49500  -0.49409  -0.49376  -0.48938
 Alpha  occ. eigenvalues --   -0.48923  -0.48728  -0.48541  -0.48455  -0.48087
 Alpha  occ. eigenvalues --   -0.48058  -0.47903  -0.47828  -0.47658  -0.47448
 Alpha  occ. eigenvalues --   -0.47429  -0.47061  -0.46867  -0.46802  -0.46709
 Alpha  occ. eigenvalues --   -0.46622  -0.46432  -0.46298  -0.46104  -0.45991
 Alpha  occ. eigenvalues --   -0.45773  -0.45742  -0.45680  -0.45464  -0.45234
 Alpha  occ. eigenvalues --   -0.45195  -0.45019  -0.44844  -0.44726  -0.44621
 Alpha  occ. eigenvalues --   -0.44522  -0.44503  -0.44144  -0.44132  -0.43971
 Alpha  occ. eigenvalues --   -0.43792  -0.43463  -0.43265  -0.43227  -0.42850
 Alpha  occ. eigenvalues --   -0.42669  -0.42651  -0.42560  -0.42405  -0.42340
 Alpha  occ. eigenvalues --   -0.42026  -0.42025  -0.41698  -0.41261  -0.40485
 Alpha  occ. eigenvalues --   -0.40294  -0.40180  -0.40130  -0.39601  -0.39464
 Alpha  occ. eigenvalues --   -0.39406  -0.39294  -0.38645  -0.38482  -0.37921
 Alpha  occ. eigenvalues --   -0.37502  -0.37483  -0.36603  -0.36355  -0.36176
 Alpha  occ. eigenvalues --   -0.35572  -0.35359  -0.35210  -0.33821  -0.33458
 Alpha  occ. eigenvalues --   -0.32973  -0.32932  -0.32654  -0.32549  -0.32435
 Alpha  occ. eigenvalues --   -0.31666  -0.31454  -0.30707  -0.25778  -0.25289
 Alpha  occ. eigenvalues --   -0.23069  -0.22980
 Alpha virt. eigenvalues --   -0.07305  -0.07145   0.00110   0.00746   0.02214
 Alpha virt. eigenvalues --    0.02779   0.04193   0.04719   0.05802   0.06590
 Alpha virt. eigenvalues --    0.06810   0.07615   0.07762   0.07934   0.07942

 Mulliken charges:
               1
     1  Mg   0.959883
     2  C   -0.000528
     3  C   -0.089819
     4  C   -0.074215
     5  C   -0.087174
     6  N   -0.357096
     7  C   -0.011250
     8  C   -0.047775
     9  C   -0.149005
    10  C    0.067650
    11  C    0.032200
    12  C    0.017165
    13  C   -0.110887
    14  H    0.047509
    15  N   -0.477690
    16  C    0.165461
    17  C   -0.178424
    18  C   -0.090082
    19  C    0.129264
    20  C    0.057192
    21  C    0.082119
    22  O   -0.208703
    23  C   -0.022424
    24  N   -0.337909
    25  C    0.039985
    26  C   -0.081552
    27  C   -0.049229
    28  C    0.051111
    29  C    0.022626
    30  C   -0.042478
    31  C   -0.033280
    32  N   -0.449823
    33  C    0.142303
    34  C   -0.165101
    35  C   -0.034616
    36  C    0.132187
    37  C    0.085496
    38  C    0.094194
    39  O   -0.220664
    40  C   -0.058993
    41  C    0.274397
    42  O   -0.254104
    43  O   -0.379675
    44  C    0.128184
    45  H    0.001589
    46  H    0.019793
    47  H   -0.016101
    48  H    0.039351
    49  H    0.030911
    50  H    0.039894
    51  H    0.043816
    52  H    0.055996
    53  H    0.030801
    54  H    0.030874
    55  H    0.040241
    56  H    0.054189
    57  H    0.029335
    58  H    0.047831
    59  H    0.067484
    60  H    0.081936
    61  H    0.053447
    62  H    0.031792
    63  H    0.039548
    64  H    0.036071
    65  H    0.039666
    66  H    0.035381
    67  H    0.050983
    68  H    0.029905
    69  H    0.031030
    70  H    0.040122
    71  H    0.037181
    72  H    0.046698
    73  H    0.052808
    74  H    0.034387
    75  H    0.057997
    76  H    0.073113
    77  H    0.067742
    78  H    0.054549
    79  H    0.073211
    80  Mg   0.990352
    81  C   -0.017371
    82  C   -0.078633
    83  C   -0.086343
    84  C   -0.079737
    85  N   -0.298051
    86  C   -0.020081
    87  C   -0.052971
    88  C   -0.107192
    89  C    0.010768
    90  C    0.015762
    91  C    0.043032
    92  C   -0.138886
    93  H   -0.009913
    94  N   -0.512142
    95  C    0.177266
    96  C   -0.130355
    97  C   -0.071072
    98  C    0.182000
    99  C    0.070283
   100  C    0.029536
   101  O   -0.236772
   102  C   -0.016302
   103  N   -0.420616
   104  C    0.093648
   105  C   -0.078845
   106  C   -0.074133
   107  C    0.101908
   108  C    0.012662
   109  C   -0.031846
   110  C   -0.079627
   111  N   -0.424483
   112  C    0.112358
   113  C   -0.186258
   114  C   -0.110857
   115  C    0.145535
   116  C    0.092843
   117  C    0.193671
   118  O   -0.247196
   119  C   -0.086833
   120  C    0.237170
   121  O   -0.214777
   122  O   -0.372278
   123  C    0.133772
   124  H   -0.004601
   125  H    0.020869
   126  H   -0.002978
   127  H    0.041619
   128  H    0.042787
   129  H    0.048311
   130  H    0.034509
   131  H    0.041276
   132  H    0.048969
   133  H    0.046049
   134  H    0.054534
   135  H    0.060438
   136  H    0.046943
   137  H    0.062890
   138  H    0.044711
   139  H    0.052763
   140  H    0.053569
   141  H    0.038352
   142  H    0.046129
   143  H    0.048593
   144  H    0.040165
   145  H    0.042082
   146  H    0.029225
   147  H    0.042916
   148  H    0.034507
   149  H    0.027612
   150  H    0.052258
   151  H    0.040834
   152  H    0.064449
   153  H    0.026582
   154  H    0.069065
   155  H    0.066871
   156  H    0.050186
   157  H    0.051900
   158  H    0.076621
 Sum of Mulliken charges =  -0.00000

 Dipole moment (field-independent basis, Debye):
    X=              3.9943    Y=             -0.9499    Z=              5.0545  Tot=              6.5119
 Quadrupole moment (field-independent basis, Debye-Ang):
   XX=           -405.4438   YY=           -499.5202   ZZ=           -495.8987
   XY=             47.4284   XZ=            -14.9466   YZ=             34.7413

 Normal termination of Gaussian 16 at Sun Sep 19 15:54:00 2021.
