 Gaussian 16, Revision A.03,
 Gaussian 16:  ES64L-G16RevA.03 25-Dec-2016

 --------------------------------
 #p wB97XD/Def2SVP td=(nstates=5)
 --------------------------------

 --------------------------------
 TDDFT excited states in gaussian
 --------------------------------
 Symbolic Z-matrix:
 Charge =  0 Multiplicity = 1

                         Standard orientation:
 ---------------------------------------------------------------------
 Center     Atomic      Atomic             Coordinates (Angstroms)
 Number     Number       Type             X           Y           Z
 ---------------------------------------------------------------------
      1         12           0        4.771740   -0.704988   -0.409754
      2          6           0        2.935244    2.246426   -1.001875
      3          6           0        7.625907    1.201807   -0.238645
      4          6           0        6.603706   -3.477009    0.080472
      5          6           0        1.953892   -2.638031   -1.162258
      6          7           0        5.109192    1.454419   -0.475856
      7          6           0        4.318585    2.499127   -0.704583
      8          6           0        4.987924    3.889066   -0.679552
      9          6           0        6.506863    3.372014   -0.720715
     10          6           0        6.408529    1.881378   -0.506263
     11          6           0        7.228506    3.708612   -2.003004
     12          6           0        4.657051    4.768770    0.649436
     13          6           0        4.757374    6.278252    0.411009
     14          1           0        3.431374    7.046827    0.645288
     15          7           0        6.840490   -1.105970    0.052216
     16          6           0        7.870347   -0.133400    0.019185
     17          6           0        9.048165   -0.756728    0.579486
     18          6           0        8.778082   -2.116316    0.706653
     19          6           0        7.352013   -2.308985    0.295556
     20          6           0       10.382436   -0.052789    0.739591
     21          6           0        9.621165   -3.263469    1.214602
     22          8           0        9.142516   -4.355819    1.309435
     23          6           0       11.029591   -3.069555    1.680727
     24          7           0        4.416532   -2.756341   -0.711181
     25          6           0        5.313240   -3.725499   -0.367134
     26          6           0        4.576937   -5.082915   -0.540449
     27          6           0        3.098671   -4.786816   -0.361622
     28          6           0        3.096283   -3.300535   -0.790263
     29          6           0        4.818911   -5.612530   -1.953177
     30          6           0        2.576261   -5.034516    1.005031
     31          6           0        3.351781   -4.518303    2.191699
     32          7           0        2.815270   -0.338267   -0.939350
     33          6           0        1.771128   -1.196846   -1.227603
     34          6           0        0.573257   -0.399827   -1.534163
     35          6           0        0.994536    0.937068   -1.427802
     36          6           0        2.316643    0.919521   -1.076085
     37          6           0       -0.744362   -0.919025   -1.919207
     38          6           0        0.564896    2.309482   -1.399724
     39          8           0       -0.582696    2.821621   -1.553718
     40          6           0        1.854595    3.204094   -1.081296
     41          6           0        2.043095    4.114457   -2.267058
     42          8           0        2.015350    3.723981   -3.396420
     43          8           0        2.319578    5.473926   -1.958307
     44          6           0        2.822177    6.295028   -3.101551
     45          1           0        8.549745    1.782992   -0.232395
     46          1           0        7.181489   -4.402543    0.132763
     47          1           0        1.001979   -3.168569   -1.235588
     48          1           0        4.641980    4.485176   -1.524912
     49          1           0        6.977537    3.883386    0.119874
     50          1           0        7.806387    4.609319   -1.796556
     51          1           0        6.558910    3.778100   -2.860537
     52          1           0        7.983621    2.927251   -2.088274
     53          1           0        5.359989    4.516708    1.444046
     54          1           0        3.674870    4.510418    1.045773
     55          1           0        5.119765    6.309982   -0.616703
     56          1           0        5.560531    6.733142    0.990448
     57          1           0       10.129492    1.006468    0.713881
     58          1           0       10.894321   -0.295578   -0.191170
     59          1           0       10.873990   -0.300114    1.680718
     60          1           0       10.835497   -2.537522    2.612212
     61          1           0       11.639409   -2.438591    1.034681
     62          1           0       11.512230   -4.034261    1.840982
     63          1           0        4.912847   -5.881800    0.119741
     64          1           0        2.426101   -5.378719   -0.981542
     65          1           0        4.041089   -5.510795   -2.710045
     66          1           0        5.059036   -6.671994   -1.864462
     67          1           0        5.717873   -5.132171   -2.341145
     68          1           0        2.371541   -6.091511    1.176822
     69          1           0        1.608024   -4.534251    1.007066
     70          1           0        2.737080   -3.727082    2.621861
     71          1           0        4.355941   -4.098988    2.122289
     72          1           0        3.389780   -5.310342    2.939415
     73          1           0       -0.662294   -1.340253   -2.921115
     74          1           0       -1.397053   -0.049774   -1.839395
     75          1           0       -1.053783   -1.742099   -1.273670
     76          1           0        1.620765    3.689748   -0.133717
     77          1           0        1.997266    6.577073   -3.755748
     78          1           0        3.583252    5.785809   -3.694544
     79          1           0        3.237816    7.268618   -2.843386
     80         12           0       -4.904592   -0.582473    0.201929
     81          6           0       -2.947805    2.239690    0.988870
     82          6           0       -7.596826    1.449408   -0.190541
     83          6           0       -6.761840   -3.337379   -0.431374
     84          6           0       -2.215661   -2.605357    1.059910
     85          7           0       -5.258757    1.545254    0.469639
     86          6           0       -4.288242    2.528139    0.682247
     87          6           0       -4.908161    3.883034    0.516313
     88          6           0       -6.419657    3.574737    0.635078
     89          6           0       -6.432382    2.066750    0.274795
     90          6           0       -7.091903    3.786867    2.028231
     91          6           0       -4.538471    4.650817   -0.808373
     92          6           0       -4.141036    6.078387   -0.606144
     93          1           0       -4.753484    7.106891   -1.575202
     94          7           0       -6.830306   -0.860649   -0.337514
     95          6           0       -7.806008    0.128018   -0.547485
     96          6           0       -9.006153   -0.463800   -0.987209
     97          6           0       -8.800822   -1.920172   -1.082833
     98          6           0       -7.448563   -2.089924   -0.633251
     99          6           0      -10.315031    0.244809   -1.179656
    100          6           0       -9.772407   -3.121944   -1.457874
    101          8           0       -9.367790   -4.259902   -1.490081
    102          6           0      -11.209837   -2.863174   -1.886129
    103          7           0       -4.563745   -2.681582    0.409359
    104          6           0       -5.513887   -3.599413    0.094214
    105          6           0       -4.961335   -5.080603    0.360906
    106          6           0       -3.398731   -4.847296    0.550507
    107          6           0       -3.367586   -3.265796    0.690115
    108          6           0       -5.582702   -5.841329    1.564781
    109          6           0       -2.519277   -5.366526   -0.642226
    110          6           0       -1.449563   -6.259499   -0.171055
    111          7           0       -2.991270   -0.280290    0.930264
    112          6           0       -1.965193   -1.202626    1.129863
    113          6           0       -0.761648   -0.517963    1.516350
    114          6           0       -1.109158    0.817461    1.500434
    115          6           0       -2.411346    0.929411    1.127146
    116          6           0        0.577835   -1.259985    1.762815
    117          6           0       -0.627882    2.163614    1.750974
    118          8           0        0.437190    2.499696    2.219959
    119          6           0       -1.845775    3.168368    1.441674
    120          6           0       -2.156005    3.933809    2.663035
    121          8           0       -2.480611    3.418048    3.764725
    122          8           0       -1.989658    5.260473    2.392649
    123          6           0       -1.891370    6.123861    3.599264
    124          1           0       -8.425050    2.157922   -0.257104
    125          1           0       -7.291891   -4.276703   -0.601189
    126          1           0       -1.404715   -3.255351    1.393557
    127          1           0       -4.723540    4.560746    1.350691
    128          1           0       -7.037420    4.155400   -0.050192
    129          1           0       -6.673006    4.616113    2.599797
    130          1           0       -6.994133    2.847120    2.572370
    131          1           0       -8.175144    3.904958    2.018483
    132          1           0       -5.415514    4.546778   -1.446894
    133          1           0       -3.756044    4.135056   -1.365824
    134          1           0       -3.057217    6.006228   -0.698214
    135          1           0       -4.482093    6.417170    0.372036
    136          1           0      -10.623431    0.395084   -2.214495
    137          1           0      -10.227436    1.263093   -0.802958
    138          1           0      -11.201569   -0.165030   -0.696475
    139          1           0      -11.593162   -3.826998   -2.218855
    140          1           0      -11.275256   -2.041257   -2.599662
    141          1           0      -11.755097   -2.384192   -1.072356
    142          1           0       -5.221818   -5.729287   -0.475590
    143          1           0       -3.094779   -5.315845    1.487735
    144          1           0       -6.288828   -5.283082    2.180353
    145          1           0       -4.836226   -6.213049    2.267149
    146          1           0       -6.100071   -6.707597    1.151600
    147          1           0       -2.025188   -4.511731   -1.105575
    148          1           0       -3.064454   -5.937060   -1.393859
    149          1           0       -1.762521   -7.290972   -0.335113
    150          1           0       -1.067332   -6.141445    0.842262
    151          1           0       -0.536079   -6.052401   -0.728621
    152          1           0        0.516132   -2.255241    1.321990
    153          1           0        0.871696   -1.217943    2.812613
    154          1           0        1.300599   -0.704160    1.166673
    155          1           0       -1.605839    3.851903    0.626840
    156          1           0       -1.625362    7.141784    3.314840
    157          1           0       -1.018951    5.753040    4.137734
    158          1           0       -2.826828    6.004968    4.146681
 ---------------------------------------------------------------------

 SCF Done:  E(RwB97XD) =  -4070.65431000     A.U. after   20 cycles

 Excitation energies and oscillator strengths:

 Excited State   1:      Singlet-A      1.5928 eV  778.42 nm  f=0.8965  <S**2>=0.000
     309 -> 315       -0.12761
     311 -> 313        0.50453
     311 -> 314       -0.20498
     312 -> 313       -0.22883
     312 -> 314       -0.35270
 This state for optimization and/or second-order correction.
 Total Energy, E(TD-HF/TD-DFT) =  -4070.59577683
 Copying the excited state density for this state as the 1-particle RhoCI density.

 Excited State   2:      Singlet-A      1.7036 eV  727.78 nm  f=0.0430  <S**2>=0.000
     309 -> 315       -0.11316
     310 -> 316        0.14969
     311 -> 313        0.41183
     312 -> 313        0.11121
     312 -> 314        0.53079

 Excited State   3:      Singlet-A      2.1004 eV  590.29 nm  f=0.0040  <S**2>=0.000
     309 -> 313        0.41179
     309 -> 314       -0.17515
     310 -> 313        0.21854
     310 -> 314        0.42411
     311 -> 315        0.16836
     312 -> 316       -0.16169

 Excited State   4:      Singlet-A      2.1393 eV  579.54 nm  f=0.2202  <S**2>=0.000
     309 -> 313        0.45853
     310 -> 314       -0.44094
     311 -> 315        0.19643
     312 -> 316        0.17458

 Excited State   5:      Singlet-A      2.5782 eV  480.89 nm  f=0.0005  <S**2>=0.000
     311 -> 313        0.12011
     312 -> 313        0.64574
     312 -> 314       -0.22739

 The electronic state is 1-A.
 Alpha  occ. eigenvalues --  -46.94799 -46.92884 -19.30185 -19.29599 -19.24822
 Alpha  occ. eigenvalues --  -19.24446 -19.24053 -19.23749 -19.23703 -19.23676
 Alpha  occ. eigenvalues --  -14.47860 -14.46026 -14.45812 -14.45479 -14.44214
 Alpha  occ. eigenvalues --  -14.43531 -14.43370 -14.42479 -10.43093 -10.42491
 Alpha  occ. eigenvalues --  -10.39872 -10.39087 -10.38985 -10.38526 -10.35816
 Alpha  occ. eigenvalues --  -10.35398 -10.35373 -10.35293 -10.34977 -10.34888
 Alpha  occ. eigenvalues --  -10.34659 -10.34443 -10.34254 -10.34164 -10.34153
 Alpha  occ. eigenvalues --  -10.33979 -10.33950 -10.33574 -10.33374 -10.33150
 Alpha  occ. eigenvalues --  -10.32667 -10.32595 -10.32456 -10.32450 -10.32314
 Alpha  occ. eigenvalues --  -10.32210 -10.32198 -10.32142 -10.31991 -10.31967
 Alpha  occ. eigenvalues --  -10.31611 -10.31486 -10.31450 -10.31425 -10.31399
 Alpha  occ. eigenvalues --  -10.31342 -10.31118 -10.31104 -10.31055 -10.31001
 Alpha  occ. eigenvalues --  -10.30947 -10.30902 -10.30821 -10.30712 -10.30702
 Alpha  occ. eigenvalues --  -10.30675 -10.30526 -10.30468 -10.30398 -10.30205
 Alpha  occ. eigenvalues --  -10.30140 -10.29803 -10.29560 -10.29550 -10.29399
 Alpha  occ. eigenvalues --  -10.29317 -10.29227 -10.29122 -10.29113 -10.28924
 Alpha  occ. eigenvalues --  -10.28874 -10.28552 -10.28452 -10.28260 -10.28226
 Alpha  occ. eigenvalues --  -10.27638  -3.20738  -3.19024  -1.94350  -1.93838
 Alpha  occ. eigenvalues --   -1.93728  -1.92625  -1.92143  -1.92025  -1.17621
 Alpha  occ. eigenvalues --   -1.17233  -1.14285  -1.13475  -1.12145  -1.09569
 Alpha  occ. eigenvalues --   -1.09075  -1.07808  -1.07140  -1.06230  -1.05524
 Alpha  occ. eigenvalues --   -1.04851  -1.04697  -1.03988  -1.03677  -1.02918
 Alpha  occ. eigenvalues --   -0.94739  -0.93681  -0.91898  -0.91212  -0.90650
 Alpha  occ. eigenvalues --   -0.90224  -0.90113  -0.89628  -0.89483  -0.88757
 Alpha  occ. eigenvalues --   -0.88359  -0.88001  -0.87817  -0.87052  -0.86388
 Alpha  occ. eigenvalues --   -0.85437  -0.85373  -0.85316  -0.84477  -0.84279
 Alpha  occ. eigenvalues --   -0.84134  -0.83530  -0.82861  -0.82488  -0.81999
 Alpha  occ. eigenvalues --   -0.81737  -0.80811  -0.79664  -0.79137  -0.78841
 Alpha  occ. eigenvalues --   -0.78532  -0.78117  -0.78034  -0.77066  -0.76836
 Alpha  occ. eigenvalues --   -0.76292  -0.74285  -0.74164  -0.73191  -0.72308
 Alpha  occ. eigenvalues --   -0.71576  -0.70727  -0.69946  -0.69818  -0.69656
 Alpha  occ. eigenvalues --   -0.68835  -0.68662  -0.67836  -0.67550  -0.66836
 Alpha  occ. eigenvalues --   -0.66824  -0.66580  -0.66089  -0.65939  -0.65414
 Alpha  occ. eigenvalues --   -0.65288  -0.63645  -0.63277  -0.62331  -0.61766
 Alpha  occ. eigenvalues --   -0.61711  -0.61383  -0.61035  -0.60861  -0.60582
 Alpha  occ. eigenvalues --   -0.60337  -0.59626  -0.59526  -0.59053  -0.58749
 Alpha  occ. eigenvalues --   -0.58314  -0.57697  -0.57588  -0.56991  -0.56764
 Alpha  occ. eigenvalues --   -0.56550  -0.56418  -0.56292  -0.55900  -0.55844
 Alpha  occ. eigenvalues --   -0.55577  -0.55542  -0.55466  -0.54969  -0.54868
 Alpha  occ. eigenvalues --   -0.54569  -0.54292  -0.54055  -0.53890  -0.53639
 Alpha  occ. eigenvalues --   -0.53608  -0.53470  -0.53315  -0.53234  -0.53164
 Alpha  occ. eigenvalues --   -0.52822  -0.52576  -0.52376  -0.52184  -0.52043
 Alpha  occ. eigenvalues --   -0.51984  -0.51876  -0.51496  -0.51432  -0.51319
 Alpha  occ. eigenvalues --   -0.51194  -0.51119  -0.50998  -0.50915  -0.50595
 Alpha  occ. eigenvalues --   -0.50469  -0.50154  -0.50099  -0.49701  -0.49564
 Alpha  occ. eigenvalues --   -0.49448  -0.49199  -0.49099  -0.48992  -0.48715
 Alpha  occ. eigenvalues --   -0.48558  -0.48450  -0.48245  -0.48142  -0.47861
 Alpha  occ. eigenvalues --   -0.47506  -0.47381  -0.47263  -0.47183  -0.47064
 Alpha  occ. eigenvalues --   -0.47046  -0.46854  -0.46785  -0.46723  -0.46300
 Alpha  occ. eigenvalues --   -0.46193  -0.46025  -0.45978  -0.45945  -0.45781
 Alpha  occ. eigenvalues --   -0.45560  -0.45461  -0.45238  -0.45046  -0.45011
 Alpha  occ. eigenvalues --   -0.44881  -0.44730  -0.44584  -0.44370  -0.44233
 Alpha  occ. eigenvalues --   -0.44141  -0.44000  -0.43997  -0.43777  -0.43601
 Alpha  occ. eigenvalues --   -0.43421  -0.43280  -0.43063  -0.42932  -0.42783
 Alpha  occ. eigenvalues --   -0.42723  -0.42163  -0.42148  -0.41998  -0.41968
 Alpha  occ. eigenvalues --   -0.41579  -0.41226  -0.41217  -0.40603  -0.40195
 Alpha  occ. eigenvalues --   -0.39881  -0.39739  -0.39572  -0.39301  -0.39140
 Alpha  occ. eigenvalues --   -0.39035  -0.38876  -0.38189  -0.38093  -0.38075
 Alpha  occ. eigenvalues --   -0.37736  -0.37226  -0.36496  -0.36400  -0.35627
 Alpha  occ. eigenvalues --   -0.35452  -0.35179  -0.34725  -0.33778  -0.33280
 Alpha  occ. eigenvalues --   -0.33254  -0.32912  -0.32437  -0.32332  -0.32078
 Alpha  occ. eigenvalues --   -0.31884  -0.31329  -0.30712  -0.25938  -0.25194
 Alpha  occ. eigenvalues --   -0.23094  -0.22704
 Alpha virt. eigenvalues --   -0.07245  -0.06741   0.00306   0.01290   0.02315
 Alpha virt. eigenvalues --    0.03377   0.04285   0.05522   0.06649   0.07275
 Alpha virt. eigenvalues --    0.07302   0.07494   0.07837   0.08389   0.08940

 Mulliken charges:
               1
     1  Mg   0.950791
     2  C   -0.030173
     3  C   -0.109414
     4  C   -0.075592
     5  C   -0.064980
     6  N   -0.321456
     7  C   -0.002430
     8  C   -0.078864
     9  C   -0.141753
    10  C    0.118259
    11  C    0.056733
    12  C    0.005184
    13  C   -0.100796
    14  H    0.058760
    15  N   -0.443801
    16  C    0.147391
    17  C   -0.176234
    18  C   -0.058406
    19  C    0.149343
    20  C    0.068081
    21  C    0.023223
    22  O   -0.209934
    23  C   -0.009685
    24  N   -0.405551
    25  C    0.081276
    26  C   -0.093120
    27  C   -0.042564
    28  C    0.107756
    29  C    0.034350
    30  C    0.007069
    31  C   -0.065514
    32  N   -0.438517
    33  C    0.046206
    34  C   -0.216004
    35  C    0.019868
    36  C    0.122655
    37  C    0.114953
    38  C    0.097114
    39  O   -0.265492
    40  C   -0.036520
    41  C    0.259300
    42  O   -0.211411
    43  O   -0.399831
    44  C    0.136217
    45  H    0.006565
    46  H    0.020879
    47  H   -0.008752
    48  H    0.036692
    49  H    0.036540
    50  H    0.031976
    51  H    0.057254
    52  H    0.022102
    53  H    0.027930
    54  H    0.057850
    55  H    0.025328
    56  H    0.043515
    57  H    0.033043
    58  H    0.075856
    59  H    0.059893
    60  H    0.060266
    61  H    0.052472
    62  H    0.061778
    63  H    0.025166
    64  H    0.016196
    65  H    0.044946
    66  H    0.032796
    67  H    0.031570
    68  H    0.031481
    69  H    0.010347
    70  H    0.029990
    71  H    0.058502
    72  H    0.029694
    73  H    0.049113
    74  H    0.063909
    75  H    0.037261
    76  H    0.083619
    77  H    0.055279
    78  H    0.049934
    79  H    0.051682
    80  Mg   0.974963
    81  C   -0.002505
    82  C   -0.097760
    83  C   -0.066632
    84  C   -0.096792
    85  N   -0.321429
    86  C    0.010863
    87  C   -0.084460
    88  C   -0.127269
    89  C    0.030685
    90  C    0.021116
    91  C    0.040216
    92  C   -0.123441
    93  H    0.024266
    94  N   -0.522929
    95  C    0.241366
    96  C   -0.149029
    97  C   -0.082954
    98  C    0.155248
    99  C    0.042563
   100  C    0.075789
   101  O   -0.215012
   102  C   -0.007890
   103  N   -0.359524
   104  C    0.074787
   105  C   -0.109130
   106  C   -0.078835
   107  C    0.064115
   108  C    0.009047
   109  C    0.027482
   110  C   -0.076211
   111  N   -0.438958
   112  C    0.105890
   113  C   -0.218238
   114  C    0.021816
   115  C    0.117219
   116  C    0.128176
   117  C    0.098592
   118  O   -0.204426
   119  C   -0.032739
   120  C    0.272840
   121  O   -0.285206
   122  O   -0.368600
   123  C    0.142783
   124  H   -0.011502
   125  H    0.019596
   126  H   -0.007617
   127  H    0.024451
   128  H    0.024850
   129  H    0.043982
   130  H    0.041755
   131  H    0.031101
   132  H    0.026367
   133  H    0.052926
   134  H    0.074699
   135  H    0.048588
   136  H    0.050402
   137  H    0.022711
   138  H    0.043893
   139  H    0.069576
   140  H    0.046571
   141  H    0.048057
   142  H    0.036812
   143  H    0.037144
   144  H    0.044427
   145  H    0.028078
   146  H    0.036113
   147  H    0.032845
   148  H    0.038345
   149  H    0.039338
   150  H    0.030654
   151  H    0.022707
   152  H    0.007116
   153  H    0.058096
   154  H    0.066526
   155  H    0.066015
   156  H    0.058975
   157  H    0.060543
   158  H    0.066844
 Sum of Mulliken charges =  -0.00000

 Dipole moment (field-independent basis, Debye):
    X=              3.9900    Y=              2.5436    Z=             -0.1179  Tot=              4.7333
 Quadrupole moment (field-independent basis, Debye-Ang):
   XX=           -410.7933   YY=           -475.1683   ZZ=           -528.8344
   XY=              8.4383   XZ=              4.1415   YZ=              2.6405

 Normal termination of Gaussian 16 at Fri Sep 17 17:06:37 2021.
