 Gaussian 16, Revision A.03,
 Gaussian 16:  ES64L-G16RevA.03 25-Dec-2016

 --------------------------------
 #p wB97XD/Def2SVP td=(nstates=5)
 --------------------------------

 --------------------------------
 TDDFT excited states in gaussian
 --------------------------------
 Symbolic Z-matrix:
 Charge =  0 Multiplicity = 1

                         Standard orientation:
 ---------------------------------------------------------------------
 Center     Atomic      Atomic             Coordinates (Angstroms)
 Number     Number       Type             X           Y           Z
 ---------------------------------------------------------------------
      1         12           0       11.020206    0.429833    0.364000
      2          6           0        9.286028   -2.306634   -0.671460
      3          6           0       11.594019    1.249691   -3.028206
      4          6           0       11.730270    3.545447    1.335055
      5          6           0        9.927067   -0.187165    3.750293
      6          7           0       10.509827   -0.461302   -1.553541
      7          6           0        9.819334   -1.525214   -1.798554
      8          6           0        9.894245   -1.982842   -3.298587
      9          6           0       10.893028   -0.968206   -3.974692
     10          6           0       11.077879    0.034720   -2.784217
     11          6           0       12.123043   -1.573953   -4.652165
     12          6           0        8.408367   -2.087318   -3.990079
     13          6           0        7.266506   -1.282277   -3.391061
     14          1           0        6.011025   -0.984926   -4.210950
     15          7           0       11.575401    2.155228   -0.714463
     16          6           0       11.824098    2.283757   -2.059833
     17          6           0       12.169978    3.607173   -2.350222
     18          6           0       12.185902    4.341446   -1.102008
     19          6           0       11.778285    3.352351   -0.069638
     20          6           0       12.622138    4.006250   -3.742953
     21          6           0       12.542693    5.834078   -0.981302
     22          8           0       12.834787    6.450016   -2.030920
     23          6           0       12.568955    6.592688    0.235771
     24          7           0       10.699373    1.611262    2.304284
     25          6           0       11.276681    2.775654    2.394592
     26          6           0       11.312891    3.325642    3.848887
     27          6           0       10.783212    2.110652    4.641488
     28          6           0       10.435113    1.036282    3.533426
     29          6           0       12.660597    3.738718    4.319806
     30          6           0        9.548487    2.478843    5.591935
     31          6           0        9.827924    2.427585    7.150265
     32          7           0        9.957319   -0.982047    1.425419
     33          6           0        9.609649   -1.155626    2.770927
     34          6           0        8.870273   -2.448897    2.909312
     35          6           0        8.706028   -2.872123    1.582735
     36          6           0        9.346332   -1.945262    0.707619
     37          6           0        8.366848   -3.094439    4.106791
     38          6           0        8.084507   -3.876263    0.848110
     39          8           0        7.431478   -4.884692    1.154154
     40          6           0        8.501672   -3.619938   -0.627952
     41          6           0        9.209150   -4.890821   -1.155411
     42          8           0        8.936945   -5.530581   -2.156989
     43          8           0       10.257669   -5.275725   -0.348097
     44          6           0       10.989380   -6.493124   -0.717945
     45          1           0       11.677456    1.440551   -4.100004
     46          1           0       12.099667    4.491735    1.735217
     47          1           0        9.753053   -0.445881    4.796725
     48          1           0       10.443234   -2.924872   -3.299931
     49          1           0       10.405114   -0.354655   -4.732689
     50          1           0       13.023064   -1.265056   -4.120878
     51          1           0       12.234144   -1.236374   -5.683251
     52          1           0       12.118860   -2.658844   -4.757875
     53          1           0        8.246647   -3.165433   -3.976907
     54          1           0        8.348611   -1.733307   -5.019481
     55          1           0        7.749134   -0.344714   -3.116349
     56          1           0        7.019836   -1.790758   -2.458846
     57          1           0       13.597427    4.472755   -3.884243
     58          1           0       11.841313    4.614736   -4.199797
     59          1           0       12.651668    3.116735   -4.371936
     60          1           0       13.269590    6.285776    1.012109
     61          1           0       11.630535    6.473563    0.776387
     62          1           0       12.636485    7.668857    0.079471
     63          1           0       10.723359    4.210725    4.087660
     64          1           0       11.556282    1.602637    5.218142
     65          1           0       12.824678    4.815348    4.362259
     66          1           0       13.422440    3.470889    3.586835
     67          1           0       12.864771    3.307900    5.299879
     68          1           0        8.774722    1.724451    5.443194
     69          1           0        9.171787    3.493300    5.468461
     70          1           0        9.420764    3.320101    7.623724
     71          1           0       10.904503    2.512412    7.298753
     72          1           0        9.269213    1.561152    7.504636
     73          1           0        9.070025   -2.800161    4.886272
     74          1           0        8.381969   -4.179119    3.994425
     75          1           0        7.328339   -2.780429    4.207404
     76          1           0        7.664141   -3.659705   -1.324035
     77          1           0       11.456812   -6.897252    0.180192
     78          1           0       11.819902   -6.402060   -1.417786
     79          1           0       10.374938   -7.240604   -1.220637
     80         12           0      -11.054278    0.408403    0.041564
     81          6           0       -8.002768   -1.180133   -0.873264
     82          6           0      -11.060946   -1.457940    2.929349
     83          6           0      -13.910031    1.937802    0.693099
     84          6           0      -11.180748    1.907837   -3.222640
     85          7           0       -9.684641   -1.246315    0.936469
     86          6           0       -8.467491   -1.600905    0.384087
     87          6           0       -7.807762   -2.602400    1.392964
     88          6           0       -8.836276   -2.734232    2.638664
     89          6           0       -9.921493   -1.776942    2.135484
     90          6           0       -9.289899   -4.164751    2.996887
     91          6           0       -6.298328   -2.333260    1.792917
     92          6           0       -5.337706   -3.447373    1.494243
     93          1           0       -5.732775   -4.899668    1.443634
     94          7           0      -12.302914    0.347610    1.729669
     95          6           0      -12.126420   -0.489463    2.786056
     96          6           0      -13.103296   -0.094979    3.768222
     97          6           0      -13.988208    0.794109    3.120862
     98          6           0      -13.458846    1.080621    1.747899
     99          6           0      -13.127136   -0.776465    5.146797
    100          6           0      -15.311830    1.281450    3.627517
    101          8           0      -16.071477    1.978330    2.913693
    102          6           0      -15.762515    0.884192    4.984171
    103          7           0      -12.373312    1.701936   -1.193378
    104          6           0      -13.413195    2.236053   -0.653937
    105          6           0      -14.234120    3.311198   -1.546862
    106          6           0      -13.351375    3.268725   -2.803488
    107          6           0      -12.271657    2.283879   -2.427101
    108          6           0      -15.712450    2.812617   -1.744592
    109          6           0      -12.751133    4.632884   -3.294467
    110          6           0      -11.610891    5.234915   -2.439404
    111          7           0       -9.951431    0.278078   -1.675335
    112          6           0      -10.160823    0.933042   -2.911779
    113          6           0       -9.015486    0.628897   -3.780355
    114          6           0       -8.145241   -0.186949   -3.018167
    115          6           0       -8.739778   -0.340076   -1.720171
    116          6           0       -8.815677    1.158995   -5.231795
    117          6           0       -6.940731   -0.827758   -3.089246
    118          8           0       -6.141427   -0.966914   -3.992540
    119          6           0       -6.712717   -1.475089   -1.694739
    120          6           0       -6.441998   -2.881730   -1.882348
    121          8           0       -7.305023   -3.764873   -1.940835
    122          8           0       -5.095820   -3.061618   -2.221899
    123          6           0       -4.747081   -4.446963   -2.623501
    124          1           0      -11.311160   -2.150074    3.736544
    125          1           0      -14.926204    2.302252    0.857984
    126          1           0      -11.167983    2.340675   -4.225061
    127          1           0       -7.744238   -3.464328    0.730035
    128          1           0       -8.332662   -2.400782    3.544925
    129          1           0       -9.076770   -4.385740    4.043538
    130          1           0       -8.892143   -4.974018    2.384766
    131          1           0      -10.367672   -4.142734    2.835554
    132          1           0       -6.231997   -2.083826    2.852100
    133          1           0       -5.985713   -1.490418    1.176435
    134          1           0       -4.702273   -3.546480    2.375020
    135          1           0       -4.797183   -3.185261    0.585407
    136          1           0      -12.193523   -1.295693    5.364505
    137          1           0      -13.953478   -1.484720    5.191377
    138          1           0      -13.277938    0.042102    5.849845
    139          1           0      -14.999681    1.227559    5.682971
    140          1           0      -15.819727   -0.200504    5.082835
    141          1           0      -16.762617    1.266628    5.184216
    142          1           0      -14.215401    4.301836   -1.091894
    143          1           0      -13.872919    2.731399   -3.595889
    144          1           0      -15.700820    1.723002   -1.719559
    145          1           0      -16.040575    3.113459   -2.740169
    146          1           0      -16.466621    3.151782   -1.033988
    147          1           0      -13.556844    5.333136   -3.512590
    148          1           0      -12.363431    4.472992   -4.300074
    149          1           0      -11.645882    5.041417   -1.367809
    150          1           0      -11.544132    6.299373   -2.667119
    151          1           0      -10.697358    4.806608   -2.851559
    152          1           0       -7.830205    1.594506   -5.397266
    153          1           0       -9.581708    1.869374   -5.540643
    154          1           0       -8.689262    0.309416   -5.903337
    155          1           0       -5.821583   -0.948459   -1.354796
    156          1           0       -5.199926   -4.693027   -3.583623
    157          1           0       -5.101569   -5.217807   -1.940184
    158          1           0       -3.664247   -4.529069   -2.527969
 ---------------------------------------------------------------------

 SCF Done:  E(RwB97XD) =  -4070.57646051     A.U. after   19 cycles

 Excitation energies and oscillator strengths:

 Excited State   1:      Singlet-A      1.6544 eV  749.42 nm  f=0.4359  <S**2>=0.000
     309 -> 315        0.16620
     311 -> 313        0.68655
     309 <- 315        0.11147
 This state for optimization and/or second-order correction.
 Total Energy, E(TD-HF/TD-DFT) =  -4070.51566234
 Copying the excited state density for this state as the 1-particle RhoCI density.

 Excited State   2:      Singlet-A      1.7164 eV  722.35 nm  f=0.3640  <S**2>=0.000
     310 -> 316       -0.19154
     312 -> 314        0.67986
     310 <- 316       -0.11539

 Excited State   3:      Singlet-A      2.1586 eV  574.36 nm  f=0.1071  <S**2>=0.000
     310 -> 314        0.63946
     312 -> 316        0.28264

 Excited State   4:      Singlet-A      2.1978 eV  564.13 nm  f=0.1151  <S**2>=0.000
     309 -> 313        0.64045
     311 -> 315       -0.27505

 Excited State   5:      Singlet-A      3.4352 eV  360.92 nm  f=0.0000  <S**2>=0.000
     312 -> 313        0.70695

 The electronic state is 1-A.
 Alpha  occ. eigenvalues --  -46.96635 -46.96070 -19.30134 -19.29287 -19.25055
 Alpha  occ. eigenvalues --  -19.24091 -19.24039 -19.23811 -19.22393 -19.22360
 Alpha  occ. eigenvalues --  -14.47773 -14.47184 -14.46468 -14.46370 -14.45152
 Alpha  occ. eigenvalues --  -14.44344 -14.44299 -14.44153 -10.43593 -10.42268
 Alpha  occ. eigenvalues --  -10.39024 -10.38771 -10.38131 -10.37100 -10.37035
 Alpha  occ. eigenvalues --  -10.35907 -10.35887 -10.35721 -10.35506 -10.35305
 Alpha  occ. eigenvalues --  -10.35249 -10.35013 -10.34969 -10.34710 -10.34670
 Alpha  occ. eigenvalues --  -10.34584 -10.34447 -10.34312 -10.34073 -10.33837
 Alpha  occ. eigenvalues --  -10.33718 -10.33527 -10.33489 -10.33308 -10.32913
 Alpha  occ. eigenvalues --  -10.32882 -10.32814 -10.32627 -10.32539 -10.32343
 Alpha  occ. eigenvalues --  -10.32297 -10.32291 -10.32105 -10.32055 -10.32025
 Alpha  occ. eigenvalues --  -10.31974 -10.31902 -10.31761 -10.31717 -10.31569
 Alpha  occ. eigenvalues --  -10.31565 -10.31364 -10.31352 -10.31140 -10.31107
 Alpha  occ. eigenvalues --  -10.31096 -10.31085 -10.31074 -10.31039 -10.31022
 Alpha  occ. eigenvalues --  -10.30830 -10.30717 -10.30708 -10.30393 -10.30208
 Alpha  occ. eigenvalues --  -10.30207 -10.30149 -10.29999 -10.29844 -10.29779
 Alpha  occ. eigenvalues --  -10.29712 -10.29705 -10.29609 -10.29437 -10.28732
 Alpha  occ. eigenvalues --  -10.27742  -3.22508  -3.21874  -1.96068  -1.95659
 Alpha  occ. eigenvalues --   -1.95473  -1.95438  -1.95028  -1.94794  -1.18315
 Alpha  occ. eigenvalues --   -1.16304  -1.11337  -1.11296  -1.10666  -1.09731
 Alpha  occ. eigenvalues --   -1.09567  -1.08307  -1.08047  -1.07026  -1.06482
 Alpha  occ. eigenvalues --   -1.05692  -1.05689  -1.04983  -1.04200  -1.03587
 Alpha  occ. eigenvalues --   -0.95020  -0.94118  -0.91581  -0.91523  -0.91272
 Alpha  occ. eigenvalues --   -0.90876  -0.90305  -0.90194  -0.89638  -0.89559
 Alpha  occ. eigenvalues --   -0.89149  -0.88621  -0.87320  -0.87154  -0.86529
 Alpha  occ. eigenvalues --   -0.86125  -0.86049  -0.85138  -0.84779  -0.84382
 Alpha  occ. eigenvalues --   -0.84333  -0.84121  -0.83416  -0.82499  -0.82234
 Alpha  occ. eigenvalues --   -0.81934  -0.80421  -0.80254  -0.79385  -0.79311
 Alpha  occ. eigenvalues --   -0.78818  -0.78274  -0.78240  -0.77480  -0.77188
 Alpha  occ. eigenvalues --   -0.76852  -0.75378  -0.74407  -0.73912  -0.73448
 Alpha  occ. eigenvalues --   -0.72280  -0.71588  -0.70932  -0.70832  -0.70290
 Alpha  occ. eigenvalues --   -0.69709  -0.68838  -0.68789  -0.67929  -0.67589
 Alpha  occ. eigenvalues --   -0.67169  -0.66794  -0.66785  -0.66508  -0.66479
 Alpha  occ. eigenvalues --   -0.66115  -0.65322  -0.63255  -0.62863  -0.62192
 Alpha  occ. eigenvalues --   -0.61959  -0.61389  -0.60896  -0.60515  -0.60498
 Alpha  occ. eigenvalues --   -0.59999  -0.59971  -0.59763  -0.59419  -0.59198
 Alpha  occ. eigenvalues --   -0.58264  -0.58136  -0.57895  -0.57572  -0.57559
 Alpha  occ. eigenvalues --   -0.57107  -0.56806  -0.56692  -0.56454  -0.55813
 Alpha  occ. eigenvalues --   -0.55416  -0.55361  -0.55183  -0.55147  -0.54830
 Alpha  occ. eigenvalues --   -0.54750  -0.54679  -0.54566  -0.54378  -0.54112
 Alpha  occ. eigenvalues --   -0.53879  -0.53379  -0.53374  -0.53227  -0.53124
 Alpha  occ. eigenvalues --   -0.52814  -0.52625  -0.52585  -0.52373  -0.52221
 Alpha  occ. eigenvalues --   -0.51865  -0.51653  -0.51431  -0.51393  -0.51142
 Alpha  occ. eigenvalues --   -0.51109  -0.51041  -0.50891  -0.50880  -0.50711
 Alpha  occ. eigenvalues --   -0.50679  -0.50441  -0.50410  -0.50214  -0.49880
 Alpha  occ. eigenvalues --   -0.49785  -0.49527  -0.49322  -0.49319  -0.49112
 Alpha  occ. eigenvalues --   -0.49088  -0.48774  -0.48712  -0.48566  -0.48437
 Alpha  occ. eigenvalues --   -0.48350  -0.48070  -0.48013  -0.47822  -0.47650
 Alpha  occ. eigenvalues --   -0.47626  -0.47332  -0.47145  -0.46924  -0.46800
 Alpha  occ. eigenvalues --   -0.46728  -0.46501  -0.46377  -0.46357  -0.46018
 Alpha  occ. eigenvalues --   -0.45695  -0.45646  -0.45566  -0.45529  -0.45309
 Alpha  occ. eigenvalues --   -0.45034  -0.44665  -0.44563  -0.44509  -0.44292
 Alpha  occ. eigenvalues --   -0.44170  -0.44136  -0.44026  -0.43854  -0.43676
 Alpha  occ. eigenvalues --   -0.43597  -0.43471  -0.43379  -0.43302  -0.43067
 Alpha  occ. eigenvalues --   -0.42936  -0.42831  -0.42721  -0.42577  -0.42394
 Alpha  occ. eigenvalues --   -0.41945  -0.41911  -0.41740  -0.41570  -0.40955
 Alpha  occ. eigenvalues --   -0.40921  -0.40613  -0.40064  -0.39762  -0.38798
 Alpha  occ. eigenvalues --   -0.38745  -0.38561  -0.38467  -0.38360  -0.38344
 Alpha  occ. eigenvalues --   -0.37885  -0.37319  -0.36771  -0.36282  -0.36209
 Alpha  occ. eigenvalues --   -0.35811  -0.35424  -0.35216  -0.33757  -0.33453
 Alpha  occ. eigenvalues --   -0.33162  -0.33120  -0.33104  -0.32429  -0.31986
 Alpha  occ. eigenvalues --   -0.31826  -0.31564  -0.31097  -0.26832  -0.25650
 Alpha  occ. eigenvalues --   -0.23439  -0.22976
 Alpha virt. eigenvalues --   -0.07847  -0.06801   0.00067   0.00218   0.02032
 Alpha virt. eigenvalues --    0.02287   0.03842   0.04393   0.04524   0.05772
 Alpha virt. eigenvalues --    0.07240   0.07359   0.07652   0.08131   0.08205

 Mulliken charges:
               1
     1  Mg   0.956908
     2  C    0.004239
     3  C   -0.071857
     4  C   -0.044149
     5  C   -0.099437
     6  N   -0.349353
     7  C    0.011221
     8  C   -0.051188
     9  C   -0.100554
    10  C    0.039612
    11  C    0.023915
    12  C   -0.030401
    13  C   -0.102059
    14  H    0.063755
    15  N   -0.458843
    16  C    0.154272
    17  C   -0.150788
    18  C   -0.094583
    19  C    0.205662
    20  C    0.091893
    21  C    0.063143
    22  O   -0.267798
    23  C    0.000030
    24  N   -0.297746
    25  C    0.010906
    26  C   -0.080677
    27  C   -0.046058
    28  C    0.048508
    29  C    0.002595
    30  C   -0.042667
    31  C   -0.065006
    32  N   -0.464619
    33  C    0.133669
    34  C   -0.171489
    35  C   -0.013170
    36  C    0.155613
    37  C    0.081395
    38  C    0.117953
    39  O   -0.220409
    40  C   -0.108125
    41  C    0.242835
    42  O   -0.243945
    43  O   -0.368938
    44  C    0.139822
    45  H    0.011911
    46  H   -0.042862
    47  H    0.000423
    48  H    0.052399
    49  H    0.038835
    50  H    0.039319
    51  H    0.034849
    52  H    0.041372
    53  H    0.057274
    54  H    0.041426
    55  H    0.052013
    56  H    0.036374
    57  H    0.060511
    58  H    0.046998
    59  H    0.000182
    60  H    0.063358
    61  H    0.040906
    62  H    0.054602
    63  H    0.045213
    64  H    0.032400
    65  H    0.028448
    66  H    0.031414
    67  H    0.039342
    68  H    0.036068
    69  H    0.040945
    70  H    0.033139
    71  H    0.036190
    72  H    0.047642
    73  H    0.043594
    74  H    0.066751
    75  H    0.074383
    76  H    0.058909
    77  H    0.052548
    78  H    0.037451
    79  H    0.061587
    80  Mg   0.949193
    81  C    0.012513
    82  C   -0.090544
    83  C   -0.048432
    84  C   -0.087856
    85  N   -0.314524
    86  C   -0.013161
    87  C   -0.055959
    88  C   -0.105090
    89  C    0.077758
    90  C    0.018462
    91  C    0.000081
    92  C   -0.139823
    93  H    0.031920
    94  N   -0.486456
    95  C    0.140098
    96  C   -0.180454
    97  C   -0.072292
    98  C    0.161219
    99  C    0.072881
   100  C    0.036269
   101  O   -0.262016
   102  C    0.006818
   103  N   -0.272086
   104  C    0.015676
   105  C   -0.109958
   106  C    0.029198
   107  C   -0.040058
   108  C   -0.003603
   109  C   -0.032751
   110  C   -0.036098
   111  N   -0.476802
   112  C    0.148488
   113  C   -0.175970
   114  C    0.006905
   115  C    0.138891
   116  C    0.087082
   117  C    0.031669
   118  O   -0.201046
   119  C   -0.063016
   120  C    0.267048
   121  O   -0.263401
   122  O   -0.378906
   123  C    0.149763
   124  H    0.007793
   125  H    0.028865
   126  H   -0.009135
   127  H    0.057415
   128  H    0.044786
   129  H    0.034941
   130  H    0.052006
   131  H    0.033342
   132  H    0.031368
   133  H    0.036269
   134  H    0.048672
   135  H    0.062737
   136  H    0.047805
   137  H    0.064103
   138  H    0.046123
   139  H    0.050748
   140  H    0.050273
   141  H    0.058341
   142  H    0.052248
   143  H    0.036416
   144  H    0.045581
   145  H    0.036945
   146  H    0.063941
   147  H    0.030771
   148  H    0.025073
   149  H    0.049764
   150  H    0.041106
   151  H    0.038720
   152  H    0.043863
   153  H    0.031438
   154  H    0.051253
   155  H    0.073776
   156  H    0.064480
   157  H    0.041773
   158  H    0.054769
 Sum of Mulliken charges =  -0.00000

 Dipole moment (field-independent basis, Debye):
    X=              1.9531    Y=              1.4837    Z=              8.4189  Tot=              8.7690
 Quadrupole moment (field-independent basis, Debye-Ang):
   XX=           -438.9328   YY=           -534.3923   ZZ=           -465.1174
   XY=            -42.3737   XZ=             18.8972   YZ=             -1.5665

 Normal termination of Gaussian 16 at Sat Sep 18 21:41:04 2021.
