 Gaussian 16, Revision A.03,
 Gaussian 16:  ES64L-G16RevA.03 25-Dec-2016

 --------------------------------
 #p wB97XD/Def2SVP td=(nstates=5)
 --------------------------------

 --------------------------------
 TDDFT excited states in gaussian
 --------------------------------
 Symbolic Z-matrix:
 Charge =  0 Multiplicity = 1

                         Standard orientation:
 ---------------------------------------------------------------------
 Center     Atomic      Atomic             Coordinates (Angstroms)
 Number     Number       Type             X           Y           Z
 ---------------------------------------------------------------------
      1         12           0       11.541345    0.101282    0.537979
      2          6           0        8.144197   -0.670994   -0.320617
      3          6           0       12.371087   -2.898398   -1.215110
      4          6           0       14.755930    1.045626    0.285958
      5          6           0       10.516339    3.222331    1.489148
      6          7           0       10.372019   -1.517067   -0.633388
      7          6           0        9.025963   -1.635233   -0.822204
      8          6           0        8.661441   -2.923712   -1.639198
      9          6           0       10.025751   -3.757308   -1.518501
     10          6           0       10.993142   -2.635604   -1.175666
     11          6           0       10.030112   -4.809661   -0.433516
     12          6           0        8.110307   -2.626201   -3.023889
     13          6           0        6.871234   -3.433742   -3.490363
     14          1           0        7.027427   -4.678379   -4.482503
     15          7           0       13.404181   -0.856814   -0.273096
     16          6           0       13.497458   -2.134509   -0.863300
     17          6           0       14.909083   -2.418502   -1.149250
     18          6           0       15.628728   -1.259222   -0.657379
     19          6           0       14.632206   -0.280965   -0.277797
     20          6           0       15.461078   -3.611940   -1.833669
     21          6           0       17.129985   -1.144546   -0.570487
     22          8           0       17.791316   -2.135941   -0.782631
     23          6           0       17.870831    0.125864   -0.222266
     24          7           0       12.403908    1.878985    0.733048
     25          6           0       13.793448    1.962451    0.732721
     26          6           0       14.164043    3.408444    1.070443
     27          6           0       12.835772    4.016332    1.652773
     28          6           0       11.853868    2.947658    1.308863
     29          6           0       15.446833    3.663248    1.944125
     30          6           0       12.422988    5.450101    1.198701
     31          6           0       12.170346    6.474536    2.256375
     32          7           0        9.745615    1.073939    0.711012
     33          6           0        9.453061    2.338254    1.191965
     34          6           0        7.999454    2.500020    1.388209
     35          6           0        7.468161    1.326149    0.725713
     36          6           0        8.565318    0.546956    0.346033
     37          6           0        7.221092    3.626500    2.015381
     38          6           0        6.188654    0.641897    0.375466
     39          8           0        5.053269    1.007112    0.488475
     40          6           0        6.616942   -0.596839   -0.404586
     41          6           0        5.989639   -1.790320    0.251782
     42          8           0        6.336380   -2.089951    1.374113
     43          8           0        5.088359   -2.547544   -0.555279
     44          6           0        4.617836   -3.848089    0.010826
     45          1           0       12.663743   -3.833616   -1.697288
     46          1           0       15.748702    1.498689    0.291392
     47          1           0       10.233126    4.154754    1.981327
     48          1           0        7.955346   -3.556995   -1.102859
     49          1           0       10.337239   -4.153272   -2.485015
     50          1           0       10.231737   -4.319646    0.518745
     51          1           0       10.774735   -5.554493   -0.714001
     52          1           0        9.113607   -5.367049   -0.237243
     53          1           0        8.907318   -2.877234   -3.723105
     54          1           0        8.014534   -1.544539   -3.118051
     55          1           0        6.252848   -2.674594   -3.969915
     56          1           0        6.283368   -3.837926   -2.666166
     57          1           0       15.807248   -4.279877   -1.045499
     58          1           0       16.367792   -3.328998   -2.368465
     59          1           0       14.846184   -4.178869   -2.533696
     60          1           0       18.955603    0.073030   -0.312782
     61          1           0       17.633057    0.322071    0.823305
     62          1           0       17.596468    1.056850   -0.716957
     63          1           0       14.459412    3.788286    0.091965
     64          1           0       12.872662    3.928495    2.738191
     65          1           0       15.721244    2.763598    2.495624
     66          1           0       15.298888    4.523257    2.597017
     67          1           0       16.280806    3.960067    1.308507
     68          1           0       11.531366    5.376457    0.576142
     69          1           0       13.178604    5.788712    0.489962
     70          1           0       11.098140    6.656441    2.326698
     71          1           0       12.648739    7.413144    1.976961
     72          1           0       12.502476    6.247131    3.269098
     73          1           0        6.234500    3.290691    2.334051
     74          1           0        7.150913    4.409398    1.259715
     75          1           0        7.834392    4.051523    2.810145
     76          1           0        6.358951   -0.427954   -1.450171
     77          1           0        3.827884   -3.655825    0.737051
     78          1           0        5.417272   -4.345232    0.559828
     79          1           0        4.277222   -4.514405   -0.781472
     80         12           0      -10.859161    0.912216    0.171116
     81          6           0      -11.257106   -2.569454    0.507352
     82          6           0       -7.489331    0.279783   -0.410333
     83          6           0      -10.428777    4.121823   -0.606546
     84          6           0      -14.306379    1.164148   -0.139715
     85          7           0       -9.601875   -1.003686   -0.089460
     86          6           0       -9.912254   -2.315893    0.209987
     87          6           0       -8.725344   -3.235500    0.406460
     88          6           0       -7.513566   -2.312590    0.134317
     89          6           0       -8.193391   -0.934567   -0.156579
     90          6           0       -6.467662   -2.241884    1.319914
     91          6           0       -8.670192   -4.533471   -0.516779
     92          6           0       -9.278895   -4.442435   -1.925607
     93          1           0       -8.312914   -4.325815   -3.141690
     94          7           0       -9.221765    2.015018   -0.403740
     95          6           0       -7.927016    1.597857   -0.527554
     96          6           0       -7.055884    2.746391   -0.813866
     97          6           0       -7.904817    3.893816   -0.872539
     98          6           0       -9.275137    3.348081   -0.627672
     99          6           0       -5.544324    2.639554   -0.976787
    100          6           0       -7.285108    5.286601   -1.265260
    101          8           0       -6.094398    5.325961   -1.542232
    102          6           0       -8.211497    6.569112   -1.383632
    103          7           0      -12.158319    2.360002   -0.417517
    104          6           0      -11.768133    3.691792   -0.538068
    105          6           0      -13.069049    4.657245   -0.732872
    106          6           0      -14.258055    3.551679   -0.718256
    107          6           0      -13.518264    2.292543   -0.399164
    108          6           0      -13.190025    5.734249    0.385154
    109          6           0      -15.079937    3.420987   -2.071649
    110          6           0      -16.613854    3.495517   -2.021135
    111          7           0      -12.515896   -0.390969    0.297774
    112          6           0      -13.862770   -0.183236    0.144706
    113          6           0      -14.556375   -1.481251    0.282616
    114          6           0      -13.528813   -2.425801    0.547886
    115          6           0      -12.311878   -1.690577    0.491701
    116          6           0      -16.028761   -1.756087    0.150805
    117          6           0      -13.299958   -3.869368    0.746827
    118          8           0      -14.066968   -4.828304    0.917113
    119          6           0      -11.791969   -3.962099    0.926189
    120          6           0      -11.413824   -4.398392    2.228057
    121          8           0      -11.410453   -3.620871    3.217378
    122          8           0      -11.028399   -5.753676    2.227238
    123          6           0      -10.458333   -6.310729    3.449732
    124          1           0       -6.403803    0.165401   -0.429070
    125          1           0      -10.311202    5.202954   -0.701123
    126          1           0      -15.382837    1.338146   -0.189975
    127          1           0       -8.824257   -3.526586    1.451521
    128          1           0       -7.121632   -2.625378   -0.832816
    129          1           0       -5.542637   -2.732259    1.016789
    130          1           0       -6.932211   -2.760536    2.158970
    131          1           0       -6.228779   -1.209987    1.579395
    132          1           0       -9.285728   -5.225416    0.059448
    133          1           0       -7.646465   -4.907446   -0.544204
    134          1           0       -9.975888   -3.606157   -1.989213
    135          1           0       -9.918490   -5.311621   -2.073229
    136          1           0       -5.191510    2.683850   -2.007180
    137          1           0       -5.141863    1.824387   -0.375302
    138          1           0       -5.042338    3.460214   -0.464615
    139          1           0       -8.828275    6.595257   -0.484978
    140          1           0       -8.815155    6.451298   -2.283138
    141          1           0       -7.674679    7.481328   -1.643994
    142          1           0      -12.883025    5.224929   -1.644105
    143          1           0      -14.901443    3.791402    0.128619
    144          1           0      -13.855935    5.335567    1.150191
    145          1           0      -13.491780    6.709420    0.002767
    146          1           0      -12.242660    5.995603    0.856347
    147          1           0      -14.750348    2.495892   -2.545675
    148          1           0      -14.716152    4.286541   -2.625329
    149          1           0      -17.074700    3.058617   -2.907474
    150          1           0      -16.789911    4.569971   -1.974811
    151          1           0      -16.876160    2.946727   -1.116388
    152          1           0      -16.387144   -0.960827   -0.502262
    153          1           0      -16.390067   -1.563179    1.160910
    154          1           0      -16.289518   -2.777888   -0.126495
    155          1           0      -11.532056   -4.697413    0.165024
    156          1           0      -11.107313   -6.371520    4.323401
    157          1           0       -9.570611   -5.746297    3.736664
    158          1           0      -10.012059   -7.265549    3.171295
 ---------------------------------------------------------------------

 SCF Done:  E(RwB97XD) =  -4070.60185083     A.U. after   18 cycles

 Excitation energies and oscillator strengths:

 Excited State   1:      Singlet-A      1.6106 eV  769.81 nm  f=0.4332  <S**2>=0.000
     309 -> 316        0.17410
     311 -> 313        0.68249
     309 <- 316        0.11526
 This state for optimization and/or second-order correction.
 Total Energy, E(TD-HF/TD-DFT) =  -4070.54266273
 Copying the excited state density for this state as the 1-particle RhoCI density.

 Excited State   2:      Singlet-A      1.6651 eV  744.62 nm  f=0.3539  <S**2>=0.000
     310 -> 315        0.18592
     312 -> 314        0.67909
     310 <- 315        0.11639

 Excited State   3:      Singlet-A      2.1826 eV  568.06 nm  f=0.1246  <S**2>=0.000
     309 -> 313        0.63919
     311 -> 316       -0.28432

 Excited State   4:      Singlet-A      2.2618 eV  548.17 nm  f=0.0695  <S**2>=0.000
     310 -> 314        0.61489
     312 -> 315       -0.33691

 Excited State   5:      Singlet-A      3.4678 eV  357.53 nm  f=0.0000  <S**2>=0.000
     312 -> 313        0.70681

 The electronic state is 1-A.
 Alpha  occ. eigenvalues --  -46.95683 -46.95207 -19.30965 -19.30576 -19.25733
 Alpha  occ. eigenvalues --  -19.25137 -19.24819 -19.24542 -19.24185 -19.22989
 Alpha  occ. eigenvalues --  -14.47426 -14.47208 -14.46577 -14.46288 -14.44474
 Alpha  occ. eigenvalues --  -14.43968 -14.43816 -14.43766 -10.44167 -10.43827
 Alpha  occ. eigenvalues --  -10.40405 -10.39470 -10.39313 -10.38467 -10.36121
 Alpha  occ. eigenvalues --  -10.35903 -10.35795 -10.35441 -10.35359 -10.35343
 Alpha  occ. eigenvalues --  -10.34930 -10.34727 -10.34536 -10.34501 -10.34496
 Alpha  occ. eigenvalues --  -10.34323 -10.34306 -10.34017 -10.33816 -10.33527
 Alpha  occ. eigenvalues --  -10.33298 -10.33264 -10.33141 -10.32936 -10.32909
 Alpha  occ. eigenvalues --  -10.32876 -10.32810 -10.32717 -10.32466 -10.32432
 Alpha  occ. eigenvalues --  -10.32281 -10.32280 -10.32178 -10.32108 -10.32093
 Alpha  occ. eigenvalues --  -10.32045 -10.31858 -10.31806 -10.31734 -10.31645
 Alpha  occ. eigenvalues --  -10.31521 -10.31317 -10.31293 -10.31163 -10.31064
 Alpha  occ. eigenvalues --  -10.30933 -10.30883 -10.30676 -10.30623 -10.30586
 Alpha  occ. eigenvalues --  -10.30579 -10.30504 -10.30425 -10.30408 -10.30379
 Alpha  occ. eigenvalues --  -10.30374 -10.30311 -10.29939 -10.29807 -10.29758
 Alpha  occ. eigenvalues --  -10.29648 -10.29633 -10.29548 -10.29296 -10.29268
 Alpha  occ. eigenvalues --  -10.29146  -3.21718  -3.21272  -1.95250  -1.94839
 Alpha  occ. eigenvalues --   -1.94817  -1.94689  -1.94411  -1.94248  -1.17586
 Alpha  occ. eigenvalues --   -1.17082  -1.14022  -1.12538  -1.12418  -1.11222
 Alpha  occ. eigenvalues --   -1.10160  -1.09155  -1.06600  -1.06070  -1.05615
 Alpha  occ. eigenvalues --   -1.05512  -1.04826  -1.04528  -1.03821  -1.03558
 Alpha  occ. eigenvalues --   -0.95054  -0.94784  -0.91282  -0.90983  -0.90789
 Alpha  occ. eigenvalues --   -0.90636  -0.90367  -0.89879  -0.89556  -0.88646
 Alpha  occ. eigenvalues --   -0.88192  -0.87928  -0.87608  -0.87442  -0.86426
 Alpha  occ. eigenvalues --   -0.86384  -0.85871  -0.85716  -0.84615  -0.84434
 Alpha  occ. eigenvalues --   -0.83760  -0.83490  -0.82869  -0.82529  -0.82204
 Alpha  occ. eigenvalues --   -0.81966  -0.80112  -0.80027  -0.79463  -0.79068
 Alpha  occ. eigenvalues --   -0.78777  -0.78599  -0.78375  -0.78289  -0.77187
 Alpha  occ. eigenvalues --   -0.76771  -0.74667  -0.74240  -0.73776  -0.73647
 Alpha  occ. eigenvalues --   -0.71457  -0.71158  -0.70925  -0.70801  -0.70301
 Alpha  occ. eigenvalues --   -0.69945  -0.68738  -0.68709  -0.67875  -0.67622
 Alpha  occ. eigenvalues --   -0.67104  -0.67092  -0.66581  -0.66504  -0.66344
 Alpha  occ. eigenvalues --   -0.66107  -0.64389  -0.64364  -0.62155  -0.61827
 Alpha  occ. eigenvalues --   -0.61539  -0.61523  -0.61215  -0.61077  -0.60952
 Alpha  occ. eigenvalues --   -0.60565  -0.60350  -0.59652  -0.59641  -0.59113
 Alpha  occ. eigenvalues --   -0.58515  -0.58024  -0.57633  -0.57457  -0.57446
 Alpha  occ. eigenvalues --   -0.56802  -0.56293  -0.56270  -0.56075  -0.55875
 Alpha  occ. eigenvalues --   -0.55647  -0.55345  -0.55089  -0.54915  -0.54864
 Alpha  occ. eigenvalues --   -0.54434  -0.54217  -0.54198  -0.53976  -0.53797
 Alpha  occ. eigenvalues --   -0.53695  -0.53407  -0.53268  -0.53074  -0.53049
 Alpha  occ. eigenvalues --   -0.52866  -0.52801  -0.52571  -0.52361  -0.52156
 Alpha  occ. eigenvalues --   -0.51890  -0.51855  -0.51842  -0.51701  -0.51259
 Alpha  occ. eigenvalues --   -0.51234  -0.51180  -0.51097  -0.51033  -0.50820
 Alpha  occ. eigenvalues --   -0.50665  -0.50552  -0.50408  -0.50167  -0.50122
 Alpha  occ. eigenvalues --   -0.49993  -0.49622  -0.49195  -0.49086  -0.49028
 Alpha  occ. eigenvalues --   -0.48950  -0.48474  -0.48397  -0.48373  -0.48291
 Alpha  occ. eigenvalues --   -0.48151  -0.48088  -0.48004  -0.47995  -0.47927
 Alpha  occ. eigenvalues --   -0.47771  -0.47596  -0.47229  -0.47208  -0.46928
 Alpha  occ. eigenvalues --   -0.46810  -0.46644  -0.46624  -0.46495  -0.46392
 Alpha  occ. eigenvalues --   -0.46027  -0.45788  -0.45741  -0.45594  -0.45424
 Alpha  occ. eigenvalues --   -0.45264  -0.45080  -0.44943  -0.44834  -0.44790
 Alpha  occ. eigenvalues --   -0.44579  -0.44555  -0.44514  -0.44431  -0.44274
 Alpha  occ. eigenvalues --   -0.44098  -0.43966  -0.43852  -0.43570  -0.43470
 Alpha  occ. eigenvalues --   -0.43038  -0.42874  -0.42756  -0.42489  -0.42411
 Alpha  occ. eigenvalues --   -0.42173  -0.42070  -0.41697  -0.41520  -0.41200
 Alpha  occ. eigenvalues --   -0.40768  -0.40446  -0.39677  -0.39524  -0.39378
 Alpha  occ. eigenvalues --   -0.39378  -0.39205  -0.39077  -0.38911  -0.38639
 Alpha  occ. eigenvalues --   -0.38573  -0.37792  -0.37046  -0.36659  -0.36412
 Alpha  occ. eigenvalues --   -0.36246  -0.35477  -0.35390  -0.33658  -0.33447
 Alpha  occ. eigenvalues --   -0.33341  -0.33140  -0.32941  -0.32416  -0.32346
 Alpha  occ. eigenvalues --   -0.31881  -0.31684  -0.30932  -0.26246  -0.25987
 Alpha  occ. eigenvalues --   -0.22938  -0.22553
 Alpha virt. eigenvalues --   -0.07362  -0.06419   0.00197   0.00415   0.02427
 Alpha virt. eigenvalues --    0.02698   0.04196   0.04212   0.04802   0.05008
 Alpha virt. eigenvalues --    0.05648   0.06465   0.06887   0.07574   0.07870

 Mulliken charges:
               1
     1  Mg   0.981220
     2  C   -0.076520
     3  C   -0.054086
     4  C   -0.079953
     5  C   -0.124263
     6  N   -0.312995
     7  C   -0.015907
     8  C   -0.065925
     9  C   -0.119795
    10  C    0.049048
    11  C    0.041551
    12  C    0.037281
    13  C   -0.107621
    14  H    0.023536
    15  N   -0.419580
    16  C    0.112302
    17  C   -0.143751
    18  C   -0.073692
    19  C    0.168763
    20  C    0.081100
    21  C    0.035466
    22  O   -0.234911
    23  C   -0.011999
    24  N   -0.451566
    25  C    0.092001
    26  C   -0.128638
    27  C   -0.033690
    28  C    0.089017
    29  C    0.013817
    30  C    0.000866
    31  C   -0.047271
    32  N   -0.442259
    33  C    0.135461
    34  C   -0.189441
    35  C   -0.106249
    36  C    0.178321
    37  C    0.090802
    38  C    0.132656
    39  O   -0.174080
    40  C   -0.015106
    41  C    0.278100
    42  O   -0.234456
    43  O   -0.404901
    44  C    0.133501
    45  H   -0.006141
    46  H   -0.037468
    47  H   -0.011793
    48  H    0.025366
    49  H    0.028759
    50  H    0.043256
    51  H    0.042662
    52  H    0.036515
    53  H    0.037470
    54  H    0.040767
    55  H    0.055587
    56  H    0.047848
    57  H    0.055516
    58  H    0.053914
    59  H    0.036858
    60  H    0.051265
    61  H    0.050071
    62  H    0.057962
    63  H    0.051568
    64  H    0.033572
    65  H    0.044807
    66  H    0.038376
    67  H    0.031086
    68  H    0.038765
    69  H    0.025435
    70  H    0.036323
    71  H    0.036963
    72  H    0.035812
    73  H    0.071554
    74  H    0.054170
    75  H    0.034420
    76  H    0.072841
    77  H    0.063172
    78  H    0.051623
    79  H    0.064946
    80  Mg   0.986957
    81  C   -0.108909
    82  C   -0.085512
    83  C   -0.110584
    84  C   -0.096067
    85  N   -0.341894
    86  C   -0.038514
    87  C   -0.062301
    88  C   -0.058627
    89  C    0.026663
    90  C    0.027371
    91  C   -0.015144
    92  C   -0.118614
    93  H    0.036753
    94  N   -0.448545
    95  C    0.153358
    96  C   -0.157480
    97  C   -0.113808
    98  C    0.206965
    99  C    0.095086
   100  C    0.069819
   101  O   -0.225989
   102  C   -0.026105
   103  N   -0.421914
   104  C    0.079354
   105  C   -0.103179
   106  C   -0.075593
   107  C    0.085659
   108  C    0.009866
   109  C   -0.024206
   110  C   -0.038145
   111  N   -0.406549
   112  C    0.119380
   113  C   -0.211788
   114  C   -0.096402
   115  C    0.263520
   116  C    0.092499
   117  C    0.145218
   118  O   -0.218201
   119  C   -0.059304
   120  C    0.315885
   121  O   -0.277609
   122  O   -0.382299
   123  C    0.152281
   124  H   -0.008427
   125  H   -0.035133
   126  H   -0.016109
   127  H    0.049377
   128  H    0.045659
   129  H    0.043870
   130  H    0.040229
   131  H    0.046951
   132  H    0.038144
   133  H    0.048163
   134  H    0.063168
   135  H    0.056208
   136  H    0.065762
   137  H    0.023919
   138  H    0.044847
   139  H    0.073521
   140  H    0.060731
   141  H    0.052748
   142  H    0.044369
   143  H    0.036003
   144  H    0.037517
   145  H    0.038378
   146  H    0.031846
   147  H    0.048501
   148  H    0.025013
   149  H    0.051491
   150  H    0.041519
   151  H    0.037695
   152  H    0.034637
   153  H    0.054770
   154  H    0.066479
   155  H    0.059649
   156  H    0.069271
   157  H    0.033866
   158  H    0.052012
 Sum of Mulliken charges =  -0.00000

 Dipole moment (field-independent basis, Debye):
    X=              1.7396    Y=              3.9195    Z=              0.8949  Tot=              4.3806
 Quadrupole moment (field-independent basis, Debye-Ang):
   XX=           -541.4613   YY=           -465.9543   ZZ=           -513.6993
   XY=            -22.4847   XZ=             29.8132   YZ=              7.6144

 Normal termination of Gaussian 16 at Sun Sep 19 15:02:06 2021.
