 Gaussian 16, Revision A.03,
 Gaussian 16:  ES64L-G16RevA.03 25-Dec-2016

 --------------------------------
 #p wB97XD/Def2SVP td=(nstates=5)
 --------------------------------

 --------------------------------
 TDDFT excited states in gaussian
 --------------------------------
 Symbolic Z-matrix:
 Charge =  0 Multiplicity = 1

                         Standard orientation:
 ---------------------------------------------------------------------
 Center     Atomic      Atomic             Coordinates (Angstroms)
 Number     Number       Type             X           Y           Z
 ---------------------------------------------------------------------
      1         12           0       -8.896404   -1.088403    0.576916
      2          6           0      -10.014590    2.174030   -0.218528
      3          6           0       -6.969998    0.265230    2.994745
      4          6           0       -7.794152   -4.112260    1.176612
      5          6           0      -10.420940   -2.178419   -2.481760
      6          7           0       -8.429552    1.033244    1.273020
      7          6           0       -9.216368    2.124186    0.943563
      8          6           0       -8.904536    3.195590    1.931827
      9          6           0       -7.574618    2.773951    2.557411
     10          6           0       -7.626529    1.246334    2.304836
     11          6           0       -6.361498    3.422029    1.790572
     12          6           0      -10.028227    3.495571    3.063162
     13          6           0      -10.378496    4.962317    3.460433
     14          1           0       -9.183658    5.903434    3.789251
     15          7           0       -7.529693   -1.795148    1.929565
     16          6           0       -6.887477   -1.092452    2.815485
     17          6           0       -5.992080   -1.995102    3.559647
     18          6           0       -6.353462   -3.331603    3.210487
     19          6           0       -7.250492   -3.130035    2.037305
     20          6           0       -4.869075   -1.629519    4.597248
     21          6           0       -5.954572   -4.681564    3.805764
     22          8           0       -6.262820   -5.783661    3.313298
     23          6           0       -4.989181   -4.698157    4.893976
     24          7           0       -8.965880   -2.888367   -0.652286
     25          6           0       -8.504503   -4.071029   -0.080254
     26          6           0       -8.989234   -5.286717   -0.960815
     27          6           0       -9.919930   -4.620713   -2.004758
     28          6           0       -9.805333   -3.129251   -1.681789
     29          6           0       -7.835361   -6.138179   -1.491062
     30          6           0      -11.362054   -5.180707   -2.091393
     31          6           0      -11.997742   -5.320191   -3.494318
     32          7           0       -9.978736   -0.235057   -1.047488
     33          6           0      -10.483619   -0.773528   -2.226827
     34          6           0      -11.268757    0.235177   -2.891683
     35          6           0      -11.063827    1.412740   -2.171062
     36          6           0      -10.275996    1.102501   -1.028391
     37          6           0      -12.087365    0.064355   -4.019057
     38          6           0      -11.413206    2.836791   -2.061473
     39          8           0      -12.129172    3.568584   -2.726495
     40          6           0      -10.750914    3.379064   -0.752775
     41          6           0       -9.873825    4.554713   -1.144954
     42          8           0       -8.743935    4.645065   -1.568970
     43          8           0      -10.657565    5.615356   -0.792888
     44          6           0      -10.015519    6.948674   -0.706140
     45          1           0       -6.409471    0.677104    3.836998
     46          1           0       -7.570390   -5.119480    1.534053
     47          1           0      -11.071566   -2.530533   -3.284403
     48          1           0       -8.758958    4.195749    1.522913
     49          1           0       -7.566451    2.881922    3.641746
     50          1           0       -5.503675    3.640945    2.425534
     51          1           0       -6.585016    4.410770    1.389159
     52          1           0       -6.057252    2.669575    1.063812
     53          1           0       -9.816797    2.895455    3.947568
     54          1           0      -10.978438    3.056523    2.756868
     55          1           0      -10.902478    4.822714    4.406674
     56          1           0      -10.979234    5.281442    2.608711
     57          1           0       -5.077363   -1.910643    5.629320
     58          1           0       -4.727469   -0.549827    4.541549
     59          1           0       -3.921819   -2.151007    4.459669
     60          1           0       -5.318044   -4.062382    5.716433
     61          1           0       -4.009433   -4.368886    4.547658
     62          1           0       -5.026700   -5.695268    5.331591
     63          1           0       -9.660826   -5.864936   -0.326030
     64          1           0       -9.457151   -4.630272   -2.991405
     65          1           0       -7.510865   -5.738722   -2.452479
     66          1           0       -8.100170   -7.170569   -1.717184
     67          1           0       -6.952520   -5.958516   -0.878422
     68          1           0      -12.074591   -4.675404   -1.439609
     69          1           0      -11.420169   -6.175804   -1.648324
     70          1           0      -12.609272   -4.423703   -3.597540
     71          1           0      -12.667007   -6.176968   -3.409757
     72          1           0      -11.220168   -5.391352   -4.254360
     73          1           0      -12.337324    0.919558   -4.646546
     74          1           0      -12.990302   -0.440850   -3.674725
     75          1           0      -11.527123   -0.594060   -4.681938
     76          1           0      -11.520549    3.680141   -0.042299
     77          1           0      -10.412620    7.384199    0.210324
     78          1           0      -10.234018    7.642575   -1.517446
     79          1           0       -8.936982    6.835835   -0.599198
     80         12           0        9.118364   -0.348720   -0.102871
     81          6           0        7.386367    2.663025   -0.109888
     82          6           0       11.953389    1.415097    0.687528
     83          6           0       10.906515   -3.291035   -0.348228
     84          6           0        6.355489   -1.994635   -1.447516
     85          7           0        9.565603    1.779899    0.337781
     86          6           0        8.709639    2.814786    0.388408
     87          6           0        9.312932    4.130791    0.932281
     88          6           0       10.858844    3.765567    0.957482
     89          6           0       10.837411    2.203606    0.595407
     90          6           0       11.618119    4.680886   -0.068023
     91          6           0        8.658373    4.385778    2.385822
     92          6           0        7.984026    5.770971    2.611866
     93          1           0        8.467266    6.888126    1.617791
     94          7           0       11.139891   -0.901207    0.054721
     95          6           0       12.147291   -0.011065    0.480741
     96          6           0       13.349269   -0.768606    0.756976
     97          6           0       13.092388   -2.103888    0.421188
     98          6           0       11.622190   -2.180410    0.086176
     99          6           0       14.689320   -0.066895    1.019733
    100          6           0       14.081842   -3.299216    0.429309
    101          8           0       13.792346   -4.471394    0.124681
    102          6           0       15.517798   -3.049107    0.921356
    103          7           0        8.663898   -2.323071   -0.884138
    104          6           0        9.616954   -3.383021   -0.795725
    105          6           0        9.083857   -4.644306   -1.506910
    106          6           0        7.525892   -4.292175   -1.594811
    107          6           0        7.498203   -2.781200   -1.244672
    108          6           0        9.840780   -4.850644   -2.808534
    109          6           0        6.681104   -5.124106   -0.540167
    110          6           0        6.978599   -5.204586    0.995934
    111          7           0        7.291103    0.182008   -0.742036
    112          6           0        6.250997   -0.575411   -1.289418
    113          6           0        5.131274    0.276047   -1.528955
    114          6           0        5.497210    1.522473   -1.053792
    115          6           0        6.860660    1.464346   -0.673046
    116          6           0        3.829903   -0.085293   -2.215418
    117          6           0        5.037539    2.840682   -0.862336
    118          8           0        3.997889    3.298656   -1.215709
    119          6           0        6.294015    3.658721   -0.348983
    120          6           0        6.635173    4.627150   -1.447592
    121          8           0        7.585636    4.502284   -2.191314
    122          8           0        5.693812    5.578389   -1.449685
    123          6           0        5.630964    6.303857   -2.694824
    124          1           0       12.843608    1.953893    1.017955
    125          1           0       11.528946   -4.136685   -0.645851
    126          1           0        5.484627   -2.493198   -1.879410
    127          1           0        9.106519    5.017445    0.333139
    128          1           0       11.334860    3.854341    1.934292
    129          1           0       12.360207    4.170506   -0.682418
    130          1           0       12.074214    5.373617    0.638660
    131          1           0       10.856450    5.233461   -0.617619
    132          1           0        9.418472    4.138389    3.126572
    133          1           0        7.895356    3.618761    2.520700
    134          1           0        8.286264    5.980683    3.637340
    135          1           0        6.895200    5.765370    2.571218
    136          1           0       15.393736   -0.436834    0.274292
    137          1           0       15.079251   -0.385522    1.987379
    138          1           0       14.556681    1.013710    0.976819
    139          1           0       16.023838   -2.482932    0.138296
    140          1           0       15.997429   -4.027730    0.929891
    141          1           0       15.494405   -2.710724    1.956948
    142          1           0        9.195151   -5.441254   -0.771085
    143          1           0        7.131043   -4.603200   -2.561328
    144          1           0       10.857091   -4.457371   -2.779966
    145          1           0        9.317824   -4.371871   -3.636105
    146          1           0        9.972005   -5.912649   -3.014941
    147          1           0        6.595594   -6.142995   -0.917995
    148          1           0        5.717026   -4.615866   -0.560448
    149          1           0        7.678227   -6.023309    1.164801
    150          1           0        6.017124   -5.419579    1.463712
    151          1           0        7.285805   -4.274710    1.475598
    152          1           0        3.295607   -0.880455   -1.695157
    153          1           0        4.145798   -0.443518   -3.194996
    154          1           0        3.061369    0.688913   -2.209814
    155          1           0        6.174523    4.262453    0.550825
    156          1           0        4.634441    6.666877   -2.945242
    157          1           0        6.109105    5.930161   -3.600160
    158          1           0        6.196235    7.235992   -2.682114
 ---------------------------------------------------------------------

 SCF Done:  E(RwB97XD) =  -4070.60651730     A.U. after   19 cycles

 Excitation energies and oscillator strengths:

 Excited State   1:      Singlet-A      1.6513 eV  750.85 nm  f=0.4894  <S**2>=0.000
     310 -> 316       -0.17871
     311 -> 313        0.67699
     310 <- 316       -0.11427
 This state for optimization and/or second-order correction.
 Total Energy, E(TD-HF/TD-DFT) =  -4070.54583475
 Copying the excited state density for this state as the 1-particle RhoCI density.

 Excited State   2:      Singlet-A      1.6743 eV  740.50 nm  f=0.2887  <S**2>=0.000
     309 -> 315       -0.19482
     312 -> 314        0.67196
     309 <- 315       -0.11625

 Excited State   3:      Singlet-A      2.1710 eV  571.10 nm  f=0.1149  <S**2>=0.000
     310 -> 313        0.64427
     311 -> 316        0.27781

 Excited State   4:      Singlet-A      2.2063 eV  561.96 nm  f=0.0708  <S**2>=0.000
     309 -> 314        0.62009
     312 -> 315        0.32347

 Excited State   5:      Singlet-A      3.4878 eV  355.48 nm  f=0.0000  <S**2>=0.000
     312 -> 313        0.70668

 The electronic state is 1-A.
 Alpha  occ. eigenvalues --  -46.95682 -46.94409 -19.31365 -19.29559 -19.24994
 Alpha  occ. eigenvalues --  -19.24924 -19.24424 -19.24294 -19.23697 -19.23569
 Alpha  occ. eigenvalues --  -14.46829 -14.46343 -14.46010 -14.45971 -14.44400
 Alpha  occ. eigenvalues --  -14.44107 -14.43688 -14.43524 -10.43143 -10.43040
 Alpha  occ. eigenvalues --  -10.39486 -10.39039 -10.38844 -10.38800 -10.35751
 Alpha  occ. eigenvalues --  -10.35663 -10.35152 -10.35061 -10.34800 -10.34794
 Alpha  occ. eigenvalues --  -10.34682 -10.34319 -10.34305 -10.34266 -10.34006
 Alpha  occ. eigenvalues --  -10.33960 -10.33904 -10.33807 -10.33799 -10.33626
 Alpha  occ. eigenvalues --  -10.33599 -10.33589 -10.33536 -10.32953 -10.32616
 Alpha  occ. eigenvalues --  -10.32439 -10.32330 -10.32190 -10.32170 -10.31927
 Alpha  occ. eigenvalues --  -10.31914 -10.31896 -10.31809 -10.31743 -10.31695
 Alpha  occ. eigenvalues --  -10.31643 -10.31620 -10.31566 -10.31550 -10.31538
 Alpha  occ. eigenvalues --  -10.31332 -10.31263 -10.31225 -10.31061 -10.31026
 Alpha  occ. eigenvalues --  -10.30767 -10.30742 -10.30736 -10.30564 -10.30542
 Alpha  occ. eigenvalues --  -10.30474 -10.30289 -10.30195 -10.30148 -10.29922
 Alpha  occ. eigenvalues --  -10.29651 -10.29618 -10.29610 -10.29482 -10.29464
 Alpha  occ. eigenvalues --  -10.29428 -10.29167 -10.29066 -10.29061 -10.28809
 Alpha  occ. eigenvalues --  -10.28764  -3.21526  -3.20442  -1.95109  -1.94647
 Alpha  occ. eigenvalues --   -1.94486  -1.94034  -1.93544  -1.93434  -1.20335
 Alpha  occ. eigenvalues --   -1.18241  -1.14282  -1.11793  -1.11574  -1.11255
 Alpha  occ. eigenvalues --   -1.10472  -1.09918  -1.07157  -1.06174  -1.05911
 Alpha  occ. eigenvalues --   -1.05319  -1.05023  -1.04731  -1.04064  -1.03125
 Alpha  occ. eigenvalues --   -0.94810  -0.94712  -0.90741  -0.90418  -0.90337
 Alpha  occ. eigenvalues --   -0.89988  -0.89843  -0.89613  -0.89460  -0.89051
 Alpha  occ. eigenvalues --   -0.89007  -0.88778  -0.88415  -0.87908  -0.86103
 Alpha  occ. eigenvalues --   -0.85866  -0.85459  -0.85255  -0.84573  -0.84397
 Alpha  occ. eigenvalues --   -0.84146  -0.83413  -0.83139  -0.82793  -0.82535
 Alpha  occ. eigenvalues --   -0.81856  -0.80322  -0.79624  -0.79350  -0.79002
 Alpha  occ. eigenvalues --   -0.78911  -0.78648  -0.77769  -0.77748  -0.77011
 Alpha  occ. eigenvalues --   -0.76872  -0.74946  -0.74464  -0.73756  -0.73127
 Alpha  occ. eigenvalues --   -0.70833  -0.70810  -0.70647  -0.70622  -0.69936
 Alpha  occ. eigenvalues --   -0.69667  -0.69293  -0.68315  -0.67797  -0.67401
 Alpha  occ. eigenvalues --   -0.67259  -0.66928  -0.66529  -0.66447  -0.66292
 Alpha  occ. eigenvalues --   -0.65854  -0.64351  -0.63900  -0.62464  -0.61970
 Alpha  occ. eigenvalues --   -0.61521  -0.61399  -0.61199  -0.60892  -0.60368
 Alpha  occ. eigenvalues --   -0.60263  -0.59985  -0.59856  -0.59468  -0.59225
 Alpha  occ. eigenvalues --   -0.58187  -0.58137  -0.57829  -0.57646  -0.57101
 Alpha  occ. eigenvalues --   -0.56883  -0.56364  -0.56352  -0.55880  -0.55609
 Alpha  occ. eigenvalues --   -0.55478  -0.55300  -0.55168  -0.55105  -0.55051
 Alpha  occ. eigenvalues --   -0.54845  -0.54430  -0.54297  -0.54093  -0.54003
 Alpha  occ. eigenvalues --   -0.53885  -0.53806  -0.53672  -0.53580  -0.53480
 Alpha  occ. eigenvalues --   -0.53123  -0.52862  -0.52701  -0.52558  -0.52315
 Alpha  occ. eigenvalues --   -0.51867  -0.51822  -0.51746  -0.51572  -0.51437
 Alpha  occ. eigenvalues --   -0.51306  -0.51051  -0.50905  -0.50726  -0.50677
 Alpha  occ. eigenvalues --   -0.50471  -0.50209  -0.50071  -0.49840  -0.49651
 Alpha  occ. eigenvalues --   -0.49551  -0.49380  -0.49268  -0.49067  -0.49008
 Alpha  occ. eigenvalues --   -0.48831  -0.48574  -0.48543  -0.48173  -0.48158
 Alpha  occ. eigenvalues --   -0.48080  -0.47821  -0.47731  -0.47477  -0.47433
 Alpha  occ. eigenvalues --   -0.47109  -0.46931  -0.46888  -0.46777  -0.46577
 Alpha  occ. eigenvalues --   -0.46510  -0.46421  -0.46277  -0.46228  -0.45971
 Alpha  occ. eigenvalues --   -0.45748  -0.45649  -0.45599  -0.45560  -0.45345
 Alpha  occ. eigenvalues --   -0.44973  -0.44917  -0.44902  -0.44859  -0.44656
 Alpha  occ. eigenvalues --   -0.44560  -0.44279  -0.44185  -0.44064  -0.43906
 Alpha  occ. eigenvalues --   -0.43788  -0.43697  -0.43458  -0.43257  -0.43159
 Alpha  occ. eigenvalues --   -0.42774  -0.42684  -0.42602  -0.42394  -0.42175
 Alpha  occ. eigenvalues --   -0.42096  -0.41724  -0.41463  -0.41438  -0.41039
 Alpha  occ. eigenvalues --   -0.40651  -0.39660  -0.39659  -0.39387  -0.39297
 Alpha  occ. eigenvalues --   -0.39070  -0.38971  -0.38537  -0.38429  -0.38424
 Alpha  occ. eigenvalues --   -0.38143  -0.37806  -0.36731  -0.36603  -0.36070
 Alpha  occ. eigenvalues --   -0.35885  -0.35282  -0.34918  -0.33792  -0.33671
 Alpha  occ. eigenvalues --   -0.33337  -0.33035  -0.32706  -0.32465  -0.32401
 Alpha  occ. eigenvalues --   -0.32297  -0.31681  -0.31392  -0.25860  -0.25674
 Alpha  occ. eigenvalues --   -0.22768  -0.22745
 Alpha virt. eigenvalues --   -0.06884  -0.06594  -0.00117   0.00619   0.01951
 Alpha virt. eigenvalues --    0.02630   0.04313   0.04616   0.05045   0.05612
 Alpha virt. eigenvalues --    0.07101   0.07892   0.08086   0.08342   0.08345

 Mulliken charges:
               1
     1  Mg   0.942253
     2  C   -0.051902
     3  C   -0.100989
     4  C   -0.067865
     5  C   -0.090827
     6  N   -0.320479
     7  C    0.052666
     8  C   -0.094622
     9  C   -0.080753
    10  C   -0.005997
    11  C    0.041887
    12  C   -0.020835
    13  C   -0.113960
    14  H    0.029762
    15  N   -0.427983
    16  C    0.195023
    17  C   -0.167157
    18  C   -0.071292
    19  C    0.113734
    20  C    0.058530
    21  C    0.066893
    22  O   -0.250945
    23  C   -0.004133
    24  N   -0.356338
    25  C    0.033266
    26  C   -0.062069
    27  C   -0.056431
    28  C    0.068530
    29  C    0.048429
    30  C   -0.039012
    31  C   -0.040906
    32  N   -0.439445
    33  C    0.135347
    34  C   -0.196809
    35  C   -0.015702
    36  C    0.167631
    37  C    0.061236
    38  C    0.109589
    39  O   -0.199653
    40  C   -0.077145
    41  C    0.279426
    42  O   -0.226083
    43  O   -0.373938
    44  C    0.131547
    45  H   -0.012366
    46  H    0.026012
    47  H   -0.012937
    48  H    0.024658
    49  H    0.019941
    50  H    0.029845
    51  H    0.046114
    52  H    0.057781
    53  H    0.021476
    54  H    0.024405
    55  H    0.065070
    56  H    0.071814
    57  H    0.043527
    58  H    0.041365
    59  H    0.041352
    60  H    0.037723
    61  H    0.074919
    62  H    0.054427
    63  H    0.039135
    64  H    0.033335
    65  H    0.015909
    66  H    0.046579
    67  H    0.047766
    68  H    0.025312
    69  H    0.022883
    70  H    0.043289
    71  H    0.039795
    72  H    0.045415
    73  H    0.060032
    74  H    0.054101
    75  H    0.037949
    76  H    0.081320
    77  H    0.047424
    78  H    0.063780
    79  H    0.058373
    80  Mg   0.964184
    81  C   -0.022583
    82  C   -0.067223
    83  C   -0.064510
    84  C   -0.108321
    85  N   -0.333697
    86  C    0.014144
    87  C   -0.076003
    88  C   -0.120565
    89  C    0.067009
    90  C    0.027429
    91  C   -0.000133
    92  C   -0.127159
    93  H    0.035270
    94  N   -0.460933
    95  C    0.133445
    96  C   -0.174275
    97  C   -0.090146
    98  C    0.138235
    99  C    0.086396
   100  C    0.051188
   101  O   -0.252443
   102  C   -0.016296
   103  N   -0.338781
   104  C    0.021863
   105  C   -0.061353
   106  C   -0.072314
   107  C    0.096953
   108  C    0.041987
   109  C   -0.059358
   110  C   -0.054422
   111  N   -0.488620
   112  C    0.148315
   113  C   -0.184083
   114  C   -0.008191
   115  C    0.148310
   116  C    0.079519
   117  C    0.094925
   118  O   -0.162328
   119  C   -0.097332
   120  C    0.245693
   121  O   -0.236961
   122  O   -0.309850
   123  C    0.140761
   124  H   -0.013056
   125  H    0.030869
   126  H    0.003610
   127  H    0.039955
   128  H    0.038683
   129  H    0.052238
   130  H    0.032775
   131  H    0.049550
   132  H    0.033096
   133  H    0.042054
   134  H    0.056778
   135  H    0.069846
   136  H    0.044625
   137  H    0.039246
   138  H    0.041524
   139  H    0.061847
   140  H    0.044430
   141  H    0.063870
   142  H    0.035010
   143  H    0.030533
   144  H    0.046252
   145  H    0.035202
   146  H    0.037281
   147  H    0.039070
   148  H    0.021531
   149  H    0.047739
   150  H    0.037015
   151  H    0.043417
   152  H    0.037564
   153  H    0.057190
   154  H    0.058006
   155  H    0.056102
   156  H    0.058446
   157  H    0.054890
   158  H    0.025067
 Sum of Mulliken charges =  -0.00000

 Dipole moment (field-independent basis, Debye):
    X=              0.4760    Y=              0.5133    Z=              6.1956  Tot=              6.2350
 Quadrupole moment (field-independent basis, Debye-Ang):
   XX=           -505.5246   YY=           -502.1309   ZZ=           -489.3503
   XY=             61.4093   XZ=             -8.5244   YZ=             36.8107

 Normal termination of Gaussian 16 at Sun Sep 19 13:09:50 2021.
