 Gaussian 16, Revision A.03,
 Gaussian 16:  ES64L-G16RevA.03 25-Dec-2016

 --------------------------------
 #p wB97XD/Def2SVP td=(nstates=5)
 --------------------------------

 --------------------------------
 TDDFT excited states in gaussian
 --------------------------------
 Symbolic Z-matrix:
 Charge =  0 Multiplicity = 1

                         Standard orientation:
 ---------------------------------------------------------------------
 Center     Atomic      Atomic             Coordinates (Angstroms)
 Number     Number       Type             X           Y           Z
 ---------------------------------------------------------------------
      1         12           0       20.586704   -0.952356   -0.219028
      2          6           0       21.387361    2.484068    0.087484
      3          6           0       17.558828   -0.137480    1.325817
      4          6           0       19.636552   -4.080385   -0.522635
      5          6           0       23.913544   -1.633924   -0.965703
      6          7           0       19.623113    0.967446    0.559995
      7          6           0       20.061081    2.252290    0.448230
      8          6           0       19.131843    3.333476    1.026117
      9          6           0       17.946892    2.360992    1.525051
     10          6           0       18.435111    1.002352    1.117709
     11          6           0       17.691714    2.392681    3.083910
     12          6           0       18.659030    4.369985   -0.044734
     13          6           0       19.065590    5.838348   -0.064848
     14          1           0       18.095961    6.920926   -0.520199
     15          7           0       18.812124   -1.987654    0.247952
     16          6           0       17.700408   -1.496272    0.947382
     17          6           0       16.810272   -2.611532    1.180655
     18          6           0       17.308008   -3.730591    0.517639
     19          6           0       18.612323   -3.279304   -0.005278
     20          6           0       15.494125   -2.346278    1.828238
     21          6           0       16.780994   -5.161093    0.409916
     22          8           0       17.351060   -6.075998   -0.192280
     23          6           0       15.428711   -5.420226    0.947172
     24          7           0       21.620504   -2.661764   -0.576086
     25          6           0       20.996136   -3.841363   -0.873511
     26          6           0       21.965796   -4.820186   -1.618544
     27          6           0       23.280852   -4.051802   -1.635044
     28          6           0       22.953870   -2.697732   -0.946202
     29          6           0       22.015911   -6.250695   -0.988999
     30          6           0       23.773713   -3.902487   -3.082433
     31          6           0       25.212044   -4.140560   -3.367302
     32          7           0       22.354131    0.127568   -0.316199
     33          6           0       23.623573   -0.264979   -0.657853
     34          6           0       24.527450    0.846059   -0.674912
     35          6           0       23.691792    2.052347   -0.479479
     36          6           0       22.359915    1.516556   -0.272569
     37          6           0       26.044665    0.769078   -0.916725
     38          6           0       23.640998    3.533181   -0.385804
     39          8           0       24.515479    4.382588   -0.626960
     40          6           0       22.132007    3.846880   -0.019641
     41          6           0       22.326451    4.573885    1.274198
     42          8           0       22.424646    4.108793    2.403276
     43          8           0       22.259457    5.864724    1.095001
     44          6           0       22.587206    6.780939    2.214253
     45          1           0       16.611183    0.282532    1.668393
     46          1           0       19.468487   -5.152868   -0.638125
     47          1           0       24.937160   -1.858465   -1.271508
     48          1           0       19.639806    3.782257    1.880657
     49          1           0       16.967457    2.457013    1.055426
     50          1           0       18.469596    2.834811    3.705821
     51          1           0       17.562878    1.377551    3.457792
     52          1           0       16.765944    2.938239    3.267622
     53          1           0       17.570627    4.391866    0.012403
     54          1           0       18.949423    4.040483   -1.041521
     55          1           0       19.814613    5.821268   -0.856673
     56          1           0       19.434423    5.976685    0.951532
     57          1           0       14.660781   -2.588522    1.170169
     58          1           0       15.398497   -1.296951    2.108433
     59          1           0       15.332963   -2.932383    2.732501
     60          1           0       14.735951   -4.670844    0.564061
     61          1           0       15.363824   -5.235375    2.019517
     62          1           0       15.009415   -6.385521    0.665250
     63          1           0       21.493069   -4.888477   -2.598186
     64          1           0       24.070295   -4.611819   -1.134059
     65          1           0       21.259854   -6.430541   -0.224854
     66          1           0       22.966192   -6.488484   -0.512395
     67          1           0       22.000588   -7.000703   -1.779656
     68          1           0       23.526505   -2.865473   -3.305964
     69          1           0       23.289892   -4.565792   -3.798977
     70          1           0       25.547153   -3.227239   -3.858318
     71          1           0       25.337153   -5.065974   -3.929407
     72          1           0       25.851751   -4.197359   -2.486327
     73          1           0       26.550185    0.653031    0.041254
     74          1           0       26.353127    1.676656   -1.435400
     75          1           0       26.323806   -0.103301   -1.508007
     76          1           0       21.757676    4.519044   -0.791548
     77          1           0       21.940025    6.668666    3.083422
     78          1           0       22.600504    7.835141    1.938216
     79          1           0       23.590536    6.706467    2.632520
     80         12           0      -21.474482    0.154391    0.309036
     81          6           0      -18.336402    1.270485   -0.831242
     82          6           0      -22.372232   -0.144196   -3.037410
     83          6           0      -24.308433   -1.326978    1.239535
     84          6           0      -20.042846   -0.329601    3.433066
     85          7           0      -20.345074    0.388219   -1.688241
     86          6           0      -19.120906    0.971058   -1.952064
     87          6           0      -18.908806    1.416870   -3.383601
     88          6           0      -20.216811    0.982737   -4.087081
     89          6           0      -21.042526    0.357515   -2.915322
     90          6           0      -20.984619    2.156745   -4.819704
     91          6           0      -17.635027    0.820654   -4.133371
     92          6           0      -17.167121   -0.592056   -3.747471
     93          1           0      -17.484689   -1.766784   -4.719450
     94          7           0      -23.077777   -0.600332   -0.733813
     95          6           0      -23.290534   -0.578028   -2.082875
     96          6           0      -24.634176   -1.090218   -2.386625
     97          6           0      -25.225764   -1.442490   -1.134970
     98          6           0      -24.166350   -1.127602   -0.127970
     99          6           0      -25.208622   -1.169775   -3.796041
    100          6           0      -26.644974   -2.123526   -1.122531
    101          8           0      -27.176505   -2.359222   -2.198623
    102          6           0      -27.306631   -2.567796    0.249285
    103          7           0      -22.018584   -0.798643    2.019608
    104          6           0      -23.330321   -1.209191    2.245971
    105          6           0      -23.529845   -1.668048    3.799055
    106          6           0      -22.025442   -1.441356    4.366160
    107          6           0      -21.335777   -0.814001    3.197690
    108          6           0      -24.618461   -0.833801    4.536281
    109          6           0      -21.277397   -2.756642    4.850612
    110          6           0      -20.643419   -2.779732    6.250092
    111          7           0      -19.604008    0.518856    1.218759
    112          6           0      -19.133420    0.273784    2.483330
    113          6           0      -17.714165    0.682535    2.543221
    114          6           0      -17.419865    1.195283    1.251361
    115          6           0      -18.608315    1.014633    0.490052
    116          6           0      -16.771371    0.564989    3.708619
    117          6           0      -16.311804    1.730046    0.437686
    118          8           0      -15.158675    2.089401    0.717004
    119          6           0      -16.961410    1.979925   -0.915228
    120          6           0      -17.003441    3.360035   -1.264133
    121          8           0      -17.865593    4.142702   -0.787234
    122          8           0      -16.006490    3.685805   -2.205042
    123          6           0      -16.017471    5.023484   -2.788366
    124          1           0      -22.770672   -0.097092   -4.052709
    125          1           0      -25.281960   -1.664204    1.600282
    126          1           0      -19.687249   -0.457226    4.457188
    127          1           0      -18.808019    2.496658   -3.280810
    128          1           0      -19.944149    0.128580   -4.705841
    129          1           0      -20.929406    2.008332   -5.898105
    130          1           0      -20.478924    3.075624   -4.521790
    131          1           0      -22.038273    2.179498   -4.539523
    132          1           0      -16.859836    1.518547   -3.814412
    133          1           0      -17.778290    0.916997   -5.209856
    134          1           0      -17.558227   -0.871876   -2.768725
    135          1           0      -16.090623   -0.557960   -3.585154
    136          1           0      -25.215476   -2.169246   -4.230964
    137          1           0      -24.801335   -0.382381   -4.430380
    138          1           0      -26.248317   -0.843136   -3.807676
    139          1           0      -27.214121   -1.722142    0.931184
    140          1           0      -26.756127   -3.436892    0.608467
    141          1           0      -28.296003   -3.012211    0.140945
    142          1           0      -23.935844   -2.678411    3.759755
    143          1           0      -22.096003   -0.696287    5.158945
    144          1           0      -24.109832   -0.021799    5.055525
    145          1           0      -25.252264   -1.441465    5.182248
    146          1           0      -25.371236   -0.401972    3.876976
    147          1           0      -20.538263   -2.992268    4.084262
    148          1           0      -22.091104   -3.481701    4.834647
    149          1           0      -19.884752   -3.557271    6.343437
    150          1           0      -21.502192   -2.988941    6.887535
    151          1           0      -20.217359   -1.782770    6.364464
    152          1           0      -17.172018   -0.266386    4.287989
    153          1           0      -16.962369    1.489692    4.253146
    154          1           0      -15.713007    0.521794    3.449837
    155          1           0      -16.300431    1.418807   -1.575429
    156          1           0      -15.830029    5.863751   -2.119796
    157          1           0      -16.970646    5.204070   -3.286171
    158          1           0      -15.343341    4.989083   -3.644365
 ---------------------------------------------------------------------

 SCF Done:  E(RwB97XD) =  -4070.59688509     A.U. after   19 cycles

 Excitation energies and oscillator strengths:

 Excited State   1:      Singlet-A      1.6637 eV  745.22 nm  f=0.3820  <S**2>=0.000
     309 -> 315        0.18688
     312 -> 314        0.68284
     309 <- 315        0.11706
 This state for optimization and/or second-order correction.
 Total Energy, E(TD-HF/TD-DFT) =  -4070.53574439
 Copying the excited state density for this state as the 1-particle RhoCI density.

 Excited State   2:      Singlet-A      1.7239 eV  719.22 nm  f=0.3748  <S**2>=0.000
     310 -> 316        0.18634
     311 -> 313        0.68173
     310 <- 316        0.11194

 Excited State   3:      Singlet-A      2.1686 eV  571.74 nm  f=0.1029  <S**2>=0.000
     310 -> 313        0.63395
     311 -> 316       -0.29499

 Excited State   4:      Singlet-A      2.2612 eV  548.31 nm  f=0.0696  <S**2>=0.000
     309 -> 314        0.61505
     312 -> 315       -0.33673

 Excited State   5:      Singlet-A      3.4480 eV  359.58 nm  f=0.0948  <S**2>=0.000
     299 -> 313       -0.10616
     304 -> 313        0.24560
     306 -> 313       -0.18620
     308 -> 313        0.57156
     310 -> 313       -0.10088
     311 -> 316       -0.18690

 The electronic state is 1-A.
 Alpha  occ. eigenvalues --  -46.95330 -46.94856 -19.31074 -19.30447 -19.25250
 Alpha  occ. eigenvalues --  -19.24685 -19.24665 -19.24307 -19.23862 -19.23089
 Alpha  occ. eigenvalues --  -14.47336 -14.47156 -14.46701 -14.46473 -14.44607
 Alpha  occ. eigenvalues --  -14.44446 -14.43942 -14.43532 -10.43940 -10.42435
 Alpha  occ. eigenvalues --  -10.40549 -10.39991 -10.39434 -10.39418 -10.36019
 Alpha  occ. eigenvalues --  -10.35896 -10.35737 -10.35661 -10.35468 -10.35453
 Alpha  occ. eigenvalues --  -10.35267 -10.35052 -10.34879 -10.34854 -10.34663
 Alpha  occ. eigenvalues --  -10.34628 -10.34477 -10.34149 -10.33944 -10.33648
 Alpha  occ. eigenvalues --  -10.33408 -10.33096 -10.33018 -10.32797 -10.32761
 Alpha  occ. eigenvalues --  -10.32696 -10.32635 -10.32606 -10.32564 -10.32405
 Alpha  occ. eigenvalues --  -10.32392 -10.32345 -10.32308 -10.32202 -10.32176
 Alpha  occ. eigenvalues --  -10.32128 -10.32007 -10.31995 -10.31932 -10.31853
 Alpha  occ. eigenvalues --  -10.31735 -10.31659 -10.31510 -10.31406 -10.31297
 Alpha  occ. eigenvalues --  -10.31064 -10.31047 -10.30983 -10.30800 -10.30724
 Alpha  occ. eigenvalues --  -10.30710 -10.30530 -10.30484 -10.30408 -10.30407
 Alpha  occ. eigenvalues --  -10.30299 -10.29905 -10.29885 -10.29749 -10.29717
 Alpha  occ. eigenvalues --  -10.29686 -10.29462 -10.29435 -10.29273 -10.29104
 Alpha  occ. eigenvalues --  -10.28633  -3.21395  -3.20884  -1.94941  -1.94535
 Alpha  occ. eigenvalues --   -1.94476  -1.94369  -1.94009  -1.93862  -1.19932
 Alpha  occ. eigenvalues --   -1.17192  -1.12685  -1.12345  -1.11342  -1.10557
 Alpha  occ. eigenvalues --   -1.09267  -1.08618  -1.07475  -1.06197  -1.06099
 Alpha  occ. eigenvalues --   -1.05641  -1.04763  -1.04651  -1.03948  -1.03315
 Alpha  occ. eigenvalues --   -0.95177  -0.93755  -0.91469  -0.91102  -0.90942
 Alpha  occ. eigenvalues --   -0.90760  -0.90672  -0.89998  -0.89687  -0.88770
 Alpha  occ. eigenvalues --   -0.88663  -0.88059  -0.87582  -0.87025  -0.86506
 Alpha  occ. eigenvalues --   -0.86190  -0.85829  -0.85341  -0.84753  -0.84733
 Alpha  occ. eigenvalues --   -0.84648  -0.83617  -0.82996  -0.82743  -0.82479
 Alpha  occ. eigenvalues --   -0.82091  -0.80773  -0.80140  -0.79392  -0.79202
 Alpha  occ. eigenvalues --   -0.78754  -0.78742  -0.78491  -0.78069  -0.77108
 Alpha  occ. eigenvalues --   -0.76905  -0.74367  -0.74173  -0.73786  -0.73773
 Alpha  occ. eigenvalues --   -0.71281  -0.71207  -0.70917  -0.70412  -0.70097
 Alpha  occ. eigenvalues --   -0.69574  -0.68949  -0.68869  -0.67751  -0.67735
 Alpha  occ. eigenvalues --   -0.67233  -0.67176  -0.66856  -0.66628  -0.66231
 Alpha  occ. eigenvalues --   -0.66175  -0.64481  -0.64347  -0.62996  -0.62285
 Alpha  occ. eigenvalues --   -0.61646  -0.61466  -0.61073  -0.60920  -0.60691
 Alpha  occ. eigenvalues --   -0.60444  -0.59765  -0.59756  -0.59624  -0.59244
 Alpha  occ. eigenvalues --   -0.58727  -0.58155  -0.57578  -0.57524  -0.56925
 Alpha  occ. eigenvalues --   -0.56911  -0.56411  -0.56196  -0.56195  -0.56103
 Alpha  occ. eigenvalues --   -0.55760  -0.55746  -0.55531  -0.55032  -0.54885
 Alpha  occ. eigenvalues --   -0.54568  -0.54541  -0.54471  -0.54344  -0.54100
 Alpha  occ. eigenvalues --   -0.54033  -0.53529  -0.53332  -0.53200  -0.52928
 Alpha  occ. eigenvalues --   -0.52699  -0.52535  -0.52392  -0.52280  -0.51988
 Alpha  occ. eigenvalues --   -0.51953  -0.51842  -0.51651  -0.51369  -0.51364
 Alpha  occ. eigenvalues --   -0.51299  -0.51227  -0.51023  -0.50947  -0.50578
 Alpha  occ. eigenvalues --   -0.50523  -0.50438  -0.50307  -0.50117  -0.50102
 Alpha  occ. eigenvalues --   -0.49993  -0.49713  -0.49314  -0.49313  -0.49234
 Alpha  occ. eigenvalues --   -0.48595  -0.48544  -0.48420  -0.48243  -0.48210
 Alpha  occ. eigenvalues --   -0.48126  -0.47991  -0.47749  -0.47724  -0.47507
 Alpha  occ. eigenvalues --   -0.47374  -0.47338  -0.47044  -0.46952  -0.46940
 Alpha  occ. eigenvalues --   -0.46768  -0.46614  -0.46533  -0.46509  -0.46281
 Alpha  occ. eigenvalues --   -0.46183  -0.46163  -0.45915  -0.45914  -0.45201
 Alpha  occ. eigenvalues --   -0.45152  -0.45061  -0.44985  -0.44925  -0.44729
 Alpha  occ. eigenvalues --   -0.44689  -0.44399  -0.44261  -0.44220  -0.44092
 Alpha  occ. eigenvalues --   -0.43951  -0.43608  -0.43591  -0.43284  -0.43130
 Alpha  occ. eigenvalues --   -0.43001  -0.42680  -0.42531  -0.42304  -0.42188
 Alpha  occ. eigenvalues --   -0.41951  -0.41804  -0.41712  -0.41640  -0.41387
 Alpha  occ. eigenvalues --   -0.40887  -0.40332  -0.39854  -0.39644  -0.39505
 Alpha  occ. eigenvalues --   -0.39259  -0.39200  -0.39030  -0.38686  -0.38686
 Alpha  occ. eigenvalues --   -0.38348  -0.37755  -0.36783  -0.36399  -0.36359
 Alpha  occ. eigenvalues --   -0.35517  -0.35505  -0.35128  -0.34110  -0.33803
 Alpha  occ. eigenvalues --   -0.33579  -0.33277  -0.33063  -0.32589  -0.32486
 Alpha  occ. eigenvalues --   -0.32470  -0.31809  -0.30808  -0.26112  -0.25844
 Alpha  occ. eigenvalues --   -0.22993  -0.22680
 Alpha virt. eigenvalues --   -0.06842  -0.06549   0.00071   0.00075   0.01872
 Alpha virt. eigenvalues --    0.02298   0.04063   0.04186   0.04882   0.05533
 Alpha virt. eigenvalues --    0.05796   0.07449   0.07719   0.07760   0.08357

 Mulliken charges:
               1
     1  Mg   0.972857
     2  C    0.039541
     3  C   -0.094823
     4  C   -0.084808
     5  C   -0.089050
     6  N   -0.280177
     7  C   -0.033705
     8  C   -0.039361
     9  C   -0.125405
    10  C    0.009698
    11  C    0.001827
    12  C   -0.006388
    13  C   -0.125646
    14  H    0.045875
    15  N   -0.445383
    16  C    0.189055
    17  C   -0.135174
    18  C   -0.078118
    19  C    0.174099
    20  C    0.050358
    21  C    0.084181
    22  O   -0.232497
    23  C   -0.006750
    24  N   -0.424781
    25  C    0.030668
    26  C   -0.065451
    27  C   -0.064774
    28  C    0.113689
    29  C    0.012655
    30  C   -0.040713
    31  C   -0.047829
    32  N   -0.454723
    33  C    0.145602
    34  C   -0.198967
    35  C   -0.045541
    36  C    0.123387
    37  C    0.077733
    38  C    0.112832
    39  O   -0.226575
    40  C   -0.113138
    41  C    0.233218
    42  O   -0.268670
    43  O   -0.310185
    44  C    0.148255
    45  H    0.001926
    46  H    0.016032
    47  H   -0.006167
    48  H    0.060621
    49  H    0.045655
    50  H    0.052685
    51  H    0.037795
    52  H    0.037544
    53  H    0.038529
    54  H    0.032698
    55  H    0.062051
    56  H    0.051832
    57  H    0.054755
    58  H    0.035527
    59  H    0.048447
    60  H    0.039653
    61  H    0.049806
    62  H    0.061302
    63  H    0.053983
    64  H    0.031651
    65  H    0.057300
    66  H    0.025253
    67  H    0.035157
    68  H    0.036545
    69  H    0.031235
    70  H    0.037252
    71  H    0.043594
    72  H    0.025464
    73  H    0.056328
    74  H    0.061378
    75  H    0.025303
    76  H    0.075649
    77  H    0.050781
    78  H    0.052452
    79  H    0.053083
    80  Mg   0.986935
    81  C   -0.108943
    82  C   -0.085652
    83  C   -0.110637
    84  C   -0.096003
    85  N   -0.341934
    86  C   -0.038590
    87  C   -0.062170
    88  C   -0.058567
    89  C    0.026642
    90  C    0.027363
    91  C   -0.015300
    92  C   -0.118632
    93  H    0.036877
    94  N   -0.448571
    95  C    0.153446
    96  C   -0.157676
    97  C   -0.113637
    98  C    0.206985
    99  C    0.095311
   100  C    0.069658
   101  O   -0.226485
   102  C   -0.026093
   103  N   -0.421827
   104  C    0.079356
   105  C   -0.103155
   106  C   -0.075637
   107  C    0.085755
   108  C    0.009845
   109  C   -0.024325
   110  C   -0.038127
   111  N   -0.406560
   112  C    0.119692
   113  C   -0.211671
   114  C   -0.096366
   115  C    0.263536
   116  C    0.092512
   117  C    0.145435
   118  O   -0.217976
   119  C   -0.059209
   120  C    0.315780
   121  O   -0.277610
   122  O   -0.382255
   123  C    0.152230
   124  H   -0.009092
   125  H   -0.035033
   126  H   -0.015889
   127  H    0.049470
   128  H    0.045649
   129  H    0.043713
   130  H    0.040419
   131  H    0.046418
   132  H    0.038346
   133  H    0.048335
   134  H    0.063110
   135  H    0.056342
   136  H    0.065417
   137  H    0.023063
   138  H    0.044164
   139  H    0.073632
   140  H    0.060918
   141  H    0.052817
   142  H    0.044456
   143  H    0.036130
   144  H    0.037593
   145  H    0.038544
   146  H    0.031804
   147  H    0.048495
   148  H    0.025142
   149  H    0.051589
   150  H    0.041649
   151  H    0.037696
   152  H    0.034745
   153  H    0.054928
   154  H    0.066597
   155  H    0.059719
   156  H    0.069358
   157  H    0.033824
   158  H    0.052180
 Sum of Mulliken charges =  -0.00000

 Dipole moment (field-independent basis, Debye):
    X=             -7.5760    Y=             -1.3410    Z=              0.9296  Tot=              7.7497
 Quadrupole moment (field-independent basis, Debye-Ang):
   XX=           -628.9375   YY=           -511.5986   ZZ=           -474.9355
   XY=            -46.2025   XZ=            -46.2075   YZ=            -16.8140

 Normal termination of Gaussian 16 at Mon Sep 20 14:31:35 2021.
