 Gaussian 16, Revision A.03,
 Gaussian 16:  ES64L-G16RevA.03 25-Dec-2016

 --------------------------------
 #p wB97XD/Def2SVP td=(nstates=5)
 --------------------------------

 --------------------------------
 TDDFT excited states in gaussian
 --------------------------------
 Symbolic Z-matrix:
 Charge =  0 Multiplicity = 1

                         Standard orientation:
 ---------------------------------------------------------------------
 Center     Atomic      Atomic             Coordinates (Angstroms)
 Number     Number       Type             X           Y           Z
 ---------------------------------------------------------------------
      1         12           0       -0.734409    0.102792    0.108535
      2          6           0        2.703564    0.068530    0.238042
      3          6           0       -0.663842   -3.396207    0.005532
      4          6           0       -4.102072    0.047408   -0.115443
      5          6           0       -0.712200    3.485323   -0.165771
      6          7           0        0.898025   -1.470247   -0.145749
      7          6           0        2.235876   -1.217117    0.181882
      8          6           0        3.018657   -2.514863    0.463516
      9          6           0        1.885824   -3.587078    0.259325
     10          6           0        0.595242   -2.819064    0.070807
     11          6           0        2.165789   -4.539764   -0.896078
     12          6           0        3.760444   -2.689969    1.835796
     13          6           0        5.383536   -2.733943    1.799465
     14          1           0        5.915784   -4.051735    2.370984
     15          7           0       -2.158575   -1.407581   -0.135312
     16          6           0       -1.931234   -2.788545   -0.020422
     17          6           0       -3.191662   -3.529278    0.096272
     18          6           0       -4.299605   -2.527340   -0.017864
     19          6           0       -3.566109   -1.199100   -0.032182
     20          6           0       -3.256505   -5.032877    0.249725
     21          6           0       -5.745945   -2.688236   -0.054034
     22          8           0       -6.469730   -1.701797   -0.254904
     23          6           0       -6.433398   -4.036151    0.075760
     24          7           0       -2.113017    1.529291   -0.185787
     25          6           0       -3.502345    1.316805   -0.116439
     26          6           0       -4.379977    2.632985   -0.094472
     27          6           0       -3.194297    3.728476   -0.145364
     28          6           0       -1.922426    2.850530   -0.147927
     29          6           0       -5.423682    2.760624   -1.310874
     30          6           0       -3.263879    4.715362    1.070399
     31          6           0       -2.923346    6.152479    0.828135
     32          7           0        0.746739    1.505392   -0.056568
     33          6           0        0.599488    2.894428   -0.109720
     34          6           0        1.858384    3.544825    0.021342
     35          6           0        2.742210    2.429124    0.264358
     36          6           0        2.001479    1.248879    0.122576
     37          6           0        2.216239    4.971276    0.055874
     38          6           0        4.119074    2.078851    0.421992
     39          8           0        5.172478    2.710975    0.557496
     40          6           0        4.153369    0.491428    0.261097
     41          6           0        4.943986    0.150931   -0.951301
     42          8           0        4.558757   -0.129080   -2.017743
     43          8           0        6.298978    0.078256   -0.636735
     44          6           0        7.084950   -0.774012   -1.504507
     45          1           0       -0.637150   -4.486368    0.063426
     46          1           0       -5.187309    0.168056   -0.120842
     47          1           0       -0.709688    4.575425   -0.102140
     48          1           0        3.755345   -2.653180   -0.327117
     49          1           0        1.815726   -4.267082    1.108767
     50          1           0        1.420397   -4.374492   -1.673550
     51          1           0        2.019629   -5.517224   -0.437982
     52          1           0        3.181685   -4.523262   -1.290203
     53          1           0        3.402667   -3.613443    2.291776
     54          1           0        3.541747   -1.863250    2.511817
     55          1           0        5.646903   -1.940101    2.498655
     56          1           0        5.745663   -2.580564    0.783127
     57          1           0       -2.997881   -5.455368   -0.722000
     58          1           0       -4.279802   -5.299533    0.509526
     59          1           0       -2.501947   -5.433623    0.926933
     60          1           0       -7.442265   -3.885065   -0.308792
     61          1           0       -6.445243   -4.428669    1.093101
     62          1           0       -6.106782   -4.830890   -0.594629
     63          1           0       -4.854779    2.743209    0.879931
     64          1           0       -3.221787    4.395862   -1.007026
     65          1           0       -5.445283    3.800931   -1.636192
     66          1           0       -6.473942    2.593291   -1.075132
     67          1           0       -5.178279    2.113390   -2.153111
     68          1           0       -2.692819    4.387883    1.939008
     69          1           0       -4.276329    4.828845    1.457439
     70          1           0       -1.996377    6.309406    1.379450
     71          1           0       -3.522652    6.946037    1.274464
     72          1           0       -2.768226    6.319699   -0.238235
     73          1           0        1.358509    5.530679    0.430340
     74          1           0        2.376794    5.227229   -0.991344
     75          1           0        3.178569    5.076563    0.557169
     76          1           0        4.632637    0.038700    1.128745
     77          1           0        7.215394   -0.176627   -2.406203
     78          1           0        6.455940   -1.639721   -1.711240
     79          1           0        8.058457   -1.001649   -1.069321
 ---------------------------------------------------------------------

 SCF Done:  E(RwB97XD) =  -2035.29113780     A.U. after   20 cycles

 Excitation energies and oscillator strengths:

 Excited State   1:      Singlet-A      1.6222 eV  764.32 nm  f=0.4080  <S**2>=0.000
     155 ->158         0.16239
     156 ->157         0.68612
     155 <-158         0.10570
 This state for optimization and/or second-order correction.
 Total Energy, E(TD-HF/TD-DFT) =  -2035.23152486
 Copying the excited state density for this state as the 1-particle RhoCI density.

 Excited State   2:      Singlet-A      2.1350 eV  580.72 nm  f=0.1231  <S**2>=0.000
     155 ->157         0.64277
     156 ->158        -0.25990

 Excited State   3:      Singlet-A      3.2508 eV  381.39 nm  f=0.0040  <S**2>=0.000
     152 ->157         0.47423
     153 ->157         0.38423
     154 ->157        -0.30181
     156 ->158         0.12174

 Excited State   4:      Singlet-A      3.3646 eV  368.49 nm  f=0.0037  <S**2>=0.000
     152 ->157         0.14854
     153 ->157         0.22011
     153 ->159        -0.11244
     153 ->160         0.14176
     154 ->157         0.55726
     154 ->159        -0.14638
     156 ->158         0.15393

 Excited State   5:      Singlet-A      3.4348 eV  360.97 nm  f=0.0544  <S**2>=0.000
     151 ->157         0.32929
     151 ->158        -0.16916
     151 ->159         0.19214
     152 ->157         0.23502
     153 ->157        -0.31212
     153 ->159         0.13855
     153 ->160        -0.11153
     156 ->158         0.29978

 The electronic state is 1-A.
 Alpha  occ. eigenvalues --  -46.94321 -19.27388 -19.24454 -19.23960 -19.22976
 Alpha  occ. eigenvalues --  -14.47204 -14.46627 -14.44965 -14.43152 -10.41905
 Alpha  occ. eigenvalues --  -10.39360 -10.38199 -10.35941 -10.35370 -10.35186
 Alpha  occ. eigenvalues --  -10.35173 -10.34762 -10.34753 -10.34347 -10.34237
 Alpha  occ. eigenvalues --  -10.33532 -10.33336 -10.33260 -10.32763 -10.32325
 Alpha  occ. eigenvalues --  -10.32321 -10.31870 -10.31820 -10.31665 -10.31628
 Alpha  occ. eigenvalues --  -10.31441 -10.31387 -10.31187 -10.30604 -10.30515
 Alpha  occ. eigenvalues --  -10.30380 -10.30378 -10.30118 -10.29891 -10.29816
 Alpha  occ. eigenvalues --  -10.29757 -10.29153 -10.28494  -3.20489  -1.94053
 Alpha  occ. eigenvalues --   -1.93628  -1.93482  -1.18891  -1.11837  -1.10312
 Alpha  occ. eigenvalues --   -1.09913  -1.06637  -1.05462  -1.04080  -1.02721
 Alpha  occ. eigenvalues --   -0.94550  -0.91124  -0.90510  -0.90402  -0.89291
 Alpha  occ. eigenvalues --   -0.89147  -0.88674  -0.86162  -0.85369  -0.84353
 Alpha  occ. eigenvalues --   -0.83852  -0.82806  -0.82199  -0.80785  -0.79338
 Alpha  occ. eigenvalues --   -0.78614  -0.77224  -0.77166  -0.75072  -0.73689
 Alpha  occ. eigenvalues --   -0.71363  -0.70612  -0.69903  -0.69560  -0.67608
 Alpha  occ. eigenvalues --   -0.67257  -0.67019  -0.65909  -0.62850  -0.62232
 Alpha  occ. eigenvalues --   -0.61356  -0.61015  -0.60443  -0.60262  -0.59665
 Alpha  occ. eigenvalues --   -0.58526  -0.57507  -0.57260  -0.55864  -0.55584
 Alpha  occ. eigenvalues --   -0.55261  -0.54939  -0.54604  -0.54264  -0.54094
 Alpha  occ. eigenvalues --   -0.53523  -0.53280  -0.53103  -0.52682  -0.52511
 Alpha  occ. eigenvalues --   -0.52145  -0.51969  -0.51697  -0.51586  -0.50944
 Alpha  occ. eigenvalues --   -0.50577  -0.50472  -0.50014  -0.49948  -0.49236
 Alpha  occ. eigenvalues --   -0.48964  -0.48776  -0.48410  -0.48071  -0.47925
 Alpha  occ. eigenvalues --   -0.47342  -0.47221  -0.46897  -0.46633  -0.46092
 Alpha  occ. eigenvalues --   -0.45630  -0.45485  -0.45294  -0.45011  -0.44869
 Alpha  occ. eigenvalues --   -0.44555  -0.43988  -0.43632  -0.43324  -0.43081
 Alpha  occ. eigenvalues --   -0.42921  -0.42596  -0.42062  -0.41838  -0.41024
 Alpha  occ. eigenvalues --   -0.40632  -0.39804  -0.39623  -0.39255  -0.38039
 Alpha  occ. eigenvalues --   -0.36881  -0.36449  -0.36065  -0.35407  -0.33682
 Alpha  occ. eigenvalues --   -0.33521  -0.32215  -0.31848  -0.31387  -0.26321
 Alpha  occ. eigenvalues --   -0.23285
 Alpha virt. eigenvalues --   -0.07653  -0.00246   0.01778   0.04296   0.05237
 Alpha virt. eigenvalues --    0.07536   0.07895   0.08554   0.10213   0.11046
 Alpha virt. eigenvalues --    0.11318   0.11916   0.12569   0.12809   0.13707

 Mulliken charges:
               1
     1  Mg   0.967316
     2  C    0.011592
     3  C   -0.103272
     4  C   -0.069765
     5  C   -0.098376
     6  N   -0.364229
     7  C   -0.034086
     8  C   -0.002675
     9  C   -0.138061
    10  C    0.093082
    11  C    0.019365
    12  C   -0.009204
    13  C   -0.148538
    14  H    0.036401
    15  N   -0.481805
    16  C    0.200847
    17  C   -0.180150
    18  C   -0.027753
    19  C    0.193634
    20  C    0.079834
    21  C    0.021629
    22  O   -0.252846
    23  C   -0.034185
    24  N   -0.410955
    25  C    0.038792
    26  C   -0.045323
    27  C   -0.088398
    28  C    0.134114
    29  C   -0.000901
    30  C   -0.040868
    31  C   -0.058075
    32  N   -0.418782
    33  C    0.119546
    34  C   -0.179240
    35  C   -0.042468
    36  C    0.138854
    37  C    0.103200
    38  C    0.092990
    39  O   -0.217674
    40  C   -0.114363
    41  C    0.257072
    42  O   -0.187466
    43  O   -0.389616
    44  C    0.148300
    45  H   -0.010823
    46  H    0.025942
    47  H   -0.021871
    48  H    0.032291
    49  H    0.032477
    50  H    0.050119
    51  H    0.027195
    52  H    0.046209
    53  H    0.042856
    54  H    0.040657
    55  H    0.074250
    56  H    0.060441
    57  H    0.058517
    58  H    0.036769
    59  H    0.054092
    60  H    0.050777
    61  H    0.073236
    62  H    0.053537
    63  H    0.052007
    64  H    0.039613
    65  H    0.033979
    66  H    0.046060
    67  H    0.057350
    68  H    0.033683
    69  H    0.029691
    70  H    0.026204
    71  H    0.038831
    72  H    0.035113
    73  H    0.041485
    74  H    0.054383
    75  H    0.067145
    76  H    0.052264
    77  H    0.050847
    78  H    0.037018
    79  H    0.060164
 Sum of Mulliken charges =  -0.00000

 Dipole moment (field-independent basis, Debye):
    X=             -3.6056    Y=             -3.7671    Z=              2.3630  Tot=              5.7249
 Quadrupole moment (field-independent basis, Debye-Ang):
   XX=           -276.0744   YY=           -216.3710   ZZ=           -258.2363
   XY=            -22.4689   XZ=             -4.8110   YZ=             -2.6832

 Normal termination of Gaussian 16 at Mon Sep 20 15:07:52 2021.
