 Gaussian 16, Revision A.03,
 Gaussian 16:  ES64L-G16RevA.03 25-Dec-2016

 --------------------------------
 #p wB97XD/Def2SVP td=(nstates=5)
 --------------------------------

 --------------------------------
 TDDFT excited states in gaussian
 --------------------------------
 Symbolic Z-matrix:
 Charge =  0 Multiplicity = 1

                         Standard orientation:
 ---------------------------------------------------------------------
 Center     Atomic      Atomic             Coordinates (Angstroms)
 Number     Number       Type             X           Y           Z
 ---------------------------------------------------------------------
      1         12           0      -21.718266    0.122014   -0.656912
      2          6           0      -18.225290   -0.352767    0.362561
      3          6           0      -22.043367   -3.272920   -0.066642
      4          6           0      -24.860858    0.636676   -0.486314
      5          6           0      -20.944910    3.630905   -0.693952
      6          7           0      -20.222710   -1.615431    0.237166
      7          6           0      -18.883223   -1.577250    0.557441
      8          6           0      -18.446350   -2.972753    1.135785
      9          6           0      -19.578998   -3.930990    0.728236
     10          6           0      -20.677471   -2.895730    0.274951
     11          6           0      -19.311825   -4.966380   -0.442009
     12          6           0      -18.130368   -2.948051    2.670527
     13          6           0      -16.950881   -3.778935    3.127969
     14          1           0      -17.276568   -5.148945    3.801440
     15          7           0      -23.239993   -1.126803   -0.451712
     16          6           0      -23.216492   -2.489446   -0.328509
     17          6           0      -24.607660   -3.013031   -0.249114
     18          6           0      -25.424780   -1.856804   -0.347675
     19          6           0      -24.512051   -0.717051   -0.390429
     20          6           0      -25.039570   -4.470927   -0.021720
     21          6           0      -26.942021   -1.743988   -0.173366
     22          8           0      -27.570015   -2.789754   -0.031573
     23          6           0      -27.669931   -0.536999   -0.196094
     24          7           0      -22.741775    1.950655   -0.329172
     25          6           0      -24.096312    1.833007   -0.569794
     26          6           0      -24.697720    3.286134   -0.696442
     27          6           0      -23.460347    4.220695   -0.445578
     28          6           0      -22.302504    3.205278   -0.598002
     29          6           0      -25.443905    3.593029   -2.023864
     30          6           0      -23.391672    5.054398    0.897013
     31          6           0      -24.212957    6.352454    0.985324
     32          7           0      -19.984466    1.458520   -0.313964
     33          6           0      -19.827360    2.817599   -0.498887
     34          6           0      -18.444622    3.217734   -0.400198
     35          6           0      -17.767337    1.983579   -0.073812
     36          6           0      -18.716009    0.907729    0.036651
     37          6           0      -17.966365    4.631336   -0.526597
     38          6           0      -16.520599    1.457452    0.262555
     39          8           0      -15.456569    2.007467    0.512527
     40          6           0      -16.753840   -0.022108    0.684708
     41          6           0      -15.830087   -0.819991   -0.205705
     42          8           0      -15.062155   -1.688264    0.216162
     43          8           0      -16.013918   -0.622520   -1.633370
     44          6           0      -15.364409   -1.663314   -2.428612
     45          1           0      -22.158621   -4.353018    0.040926
     46          1           0      -25.898097    0.949004   -0.624272
     47          1           0      -20.855008    4.711690   -0.820853
     48          1           0      -17.609145   -3.343995    0.542989
     49          1           0      -20.006988   -4.442557    1.590333
     50          1           0      -19.213446   -5.928105    0.061043
     51          1           0      -18.360444   -4.767348   -0.934474
     52          1           0      -20.052916   -4.975739   -1.241190
     53          1           0      -18.907572   -3.379330    3.301961
     54          1           0      -17.907589   -1.931309    2.994823
     55          1           0      -16.331672   -3.133055    3.750506
     56          1           0      -16.360270   -4.022839    2.244338
     57          1           0      -25.904542   -4.700656   -0.644502
     58          1           0      -25.228721   -4.521338    1.050496
     59          1           0      -24.259648   -5.163361   -0.335582
     60          1           0      -27.607872   -0.125619   -1.204079
     61          1           0      -27.390694    0.181535    0.574576
     62          1           0      -28.653984   -0.888256    0.116209
     63          1           0      -25.425149    3.528348    0.077611
     64          1           0      -23.311644    4.912910   -1.273974
     65          1           0      -24.930825    4.458069   -2.444276
     66          1           0      -26.475074    3.850220   -1.783710
     67          1           0      -25.340432    2.667709   -2.591909
     68          1           0      -22.332068    5.295762    0.987282
     69          1           0      -23.773923    4.473516    1.736653
     70          1           0      -24.612293    6.405392   -0.027915
     71          1           0      -23.564451    7.224880    1.077269
     72          1           0      -25.015470    6.383831    1.721871
     73          1           0      -18.515872    5.188019    0.231376
     74          1           0      -18.257501    5.106955   -1.462976
     75          1           0      -16.926122    4.756267   -0.225714
     76          1           0      -16.403916   -0.114885    1.712655
     77          1           0      -16.022246   -1.562142   -3.292644
     78          1           0      -15.287863   -2.606981   -1.888530
     79          1           0      -14.396960   -1.259175   -2.726886
     80         12           0       20.904497    0.786289   -0.494826
     81          6           0       20.514523   -2.823810   -0.211897
     82          6           0       17.796251    1.084140    0.933344
     83          6           0       21.787061    3.816789    0.609512
     84          6           0       23.900567    0.298095   -2.021774
     85          7           0       19.420704   -0.745791    0.452855
     86          6           0       19.450262   -2.184853    0.374389
     87          6           0       18.102029   -2.746369    0.834545
     88          6           0       17.148364   -1.515368    0.832190
     89          6           0       18.131886   -0.268540    0.722649
     90          6           0       16.105847   -1.513024   -0.383886
     91          6           0       18.099777   -3.607724    2.063540
     92          6           0       19.336237   -3.533327    2.990212
     93          1           0       19.529038   -4.264897    4.331139
     94          7           0       19.861886    2.327142    0.515184
     95          6           0       18.590613    2.233912    1.037060
     96          6           0       18.210389    3.577138    1.575472
     97          6           0       19.406099    4.290883    1.571326
     98          6           0       20.458028    3.499012    0.938110
     99          6           0       16.836428    3.836458    2.083555
    100          6           0       19.582423    5.716094    2.171623
    101          8           0       18.634669    6.206933    2.758925
    102          6           0       20.872492    6.466123    2.211736
    103          7           0       22.693193    1.790492   -0.579466
    104          6           0       22.723712    3.118085   -0.154070
    105          6           0       24.040053    3.789042   -0.546434
    106          6           0       24.611525    2.811193   -1.636157
    107          6           0       23.688917    1.604943   -1.447244
    108          6           0       24.002236    5.255321   -1.048716
    109          6           0       26.131923    2.469191   -1.524401
    110          6           0       27.081253    3.139886   -2.619510
    111          7           0       21.995300   -0.893107   -1.108473
    112          6           0       23.193131   -0.914136   -1.807992
    113          6           0       23.471086   -2.266628   -2.224731
    114          6           0       22.489802   -3.001279   -1.545364
    115          6           0       21.610599   -2.093787   -0.904475
    116          6           0       24.704153   -2.669219   -3.052068
    117          6           0       21.958226   -4.309465   -1.314530
    118          8           0       22.407741   -5.364517   -1.805663
    119          6           0       20.559580   -4.280815   -0.552872
    120          6           0       20.731489   -5.231723    0.563530
    121          8           0       21.675519   -5.273541    1.359498
    122          8           0       19.593527   -5.965920    0.622447
    123          6           0       19.604572   -7.132386    1.559955
    124          1           0       16.815419    1.176941    1.403307
    125          1           0       22.055754    4.813998    0.964978
    126          1           0       24.805955    0.185248   -2.621152
    127          1           0       17.898769   -3.353508   -0.047628
    128          1           0       16.667317   -1.347738    1.795989
    129          1           0       15.146606   -1.651875    0.113212
    130          1           0       16.370730   -2.300460   -1.089902
    131          1           0       16.161520   -0.512074   -0.813266
    132          1           0       17.877426   -4.618257    1.721264
    133          1           0       17.206973   -3.236869    2.568111
    134          1           0       19.461601   -2.469648    3.195076
    135          1           0       20.217023   -3.882056    2.450669
    136          1           0       16.935598    3.954262    3.162229
    137          1           0       16.209620    2.986534    1.815355
    138          1           0       16.423245    4.709661    1.577465
    139          1           0       21.685874    6.060075    2.811893
    140          1           0       20.775922    7.443048    2.684527
    141          1           0       21.067886    6.577589    1.145293
    142          1           0       24.522649    3.713310    0.428660
    143          1           0       24.359659    3.285758   -2.584811
    144          1           0       24.280765    5.983771   -0.286540
    145          1           0       22.982236    5.518168   -1.327103
    146          1           0       24.629975    5.310805   -1.938749
    147          1           0       26.352742    1.401447   -1.530974
    148          1           0       26.397018    2.788721   -0.516492
    149          1           0       27.923176    3.470799   -2.011946
    150          1           0       26.641484    3.979212   -3.158457
    151          1           0       27.270026    2.379931   -3.376917
    152          1           0       24.573135   -3.545611   -3.687174
    153          1           0       25.408691   -2.912855   -2.257591
    154          1           0       24.937661   -1.893678   -3.781198
    155          1           0       19.767676   -4.568192   -1.246101
    156          1           0       18.636670   -7.633334    1.520995
    157          1           0       19.767005   -6.810221    2.588685
    158          1           0       20.415969   -7.736453    1.156389
 ---------------------------------------------------------------------

 SCF Done:  E(RwB97XD) =  -4070.52525936     A.U. after   20 cycles

 Excitation energies and oscillator strengths:

 Excited State   1:      Singlet-A      1.6107 eV  769.76 nm  f=0.3591  <S**2>=0.000
     310 -> 316       -0.16146
     312 -> 314        0.68852
     310 <- 316       -0.10996
 This state for optimization and/or second-order correction.
 Total Energy, E(TD-HF/TD-DFT) =  -4070.46606779
 Copying the excited state density for this state as the 1-particle RhoCI density.

 Excited State   2:      Singlet-A      1.6686 eV  743.03 nm  f=0.3527  <S**2>=0.000
     309 -> 315        0.20211
     311 -> 313        0.67710
     309 <- 315        0.11956

 Excited State   3:      Singlet-A      2.1895 eV  566.27 nm  f=0.0672  <S**2>=0.000
     309 -> 313        0.61432
     311 -> 315       -0.33153

 Excited State   4:      Singlet-A      2.2277 eV  556.55 nm  f=0.0764  <S**2>=0.000
     310 -> 314        0.61811
     312 -> 316        0.32523

 Excited State   5:      Singlet-A      3.2144 eV  385.71 nm  f=0.0157  <S**2>=0.000
     308 -> 313        0.61822
     308 -> 317        0.12003
     311 -> 315        0.24311

 The electronic state is 1-A.
 Alpha  occ. eigenvalues --  -46.97111 -46.95611 -19.30522 -19.28954 -19.25046
 Alpha  occ. eigenvalues --  -19.24308 -19.24103 -19.23844 -19.22914 -19.22054
 Alpha  occ. eigenvalues --  -14.47362 -14.47027 -14.46580 -14.46153 -14.45429
 Alpha  occ. eigenvalues --  -14.44327 -14.43754 -14.43227 -10.43287 -10.42921
 Alpha  occ. eigenvalues --  -10.39484 -10.38906 -10.37501 -10.37485 -10.36425
 Alpha  occ. eigenvalues --  -10.36020 -10.35979 -10.35822 -10.35707 -10.35660
 Alpha  occ. eigenvalues --  -10.35619 -10.35470 -10.35017 -10.34971 -10.34925
 Alpha  occ. eigenvalues --  -10.34909 -10.34510 -10.34484 -10.33886 -10.33379
 Alpha  occ. eigenvalues --  -10.33247 -10.33079 -10.33023 -10.32994 -10.32915
 Alpha  occ. eigenvalues --  -10.32911 -10.32760 -10.32692 -10.32520 -10.32458
 Alpha  occ. eigenvalues --  -10.32412 -10.32387 -10.32356 -10.32313 -10.32288
 Alpha  occ. eigenvalues --  -10.32125 -10.31923 -10.31839 -10.31813 -10.31639
 Alpha  occ. eigenvalues --  -10.31629 -10.31605 -10.31508 -10.31411 -10.31351
 Alpha  occ. eigenvalues --  -10.31236 -10.31183 -10.31076 -10.30885 -10.30862
 Alpha  occ. eigenvalues --  -10.30787 -10.30787 -10.30747 -10.30744 -10.30664
 Alpha  occ. eigenvalues --  -10.30629 -10.30525 -10.30191 -10.30186 -10.30131
 Alpha  occ. eigenvalues --  -10.30050 -10.29844 -10.29831 -10.29663 -10.29268
 Alpha  occ. eigenvalues --  -10.27903  -3.23014  -3.21552  -1.96538  -1.96181
 Alpha  occ. eigenvalues --   -1.95933  -1.95110  -1.94696  -1.94500  -1.18187
 Alpha  occ. eigenvalues --   -1.16098  -1.12912  -1.12698  -1.11209  -1.09596
 Alpha  occ. eigenvalues --   -1.08814  -1.08568  -1.07122  -1.06788  -1.05991
 Alpha  occ. eigenvalues --   -1.05377  -1.05368  -1.04885  -1.03103  -1.02310
 Alpha  occ. eigenvalues --   -0.94889  -0.93838  -0.91222  -0.90911  -0.90844
 Alpha  occ. eigenvalues --   -0.90837  -0.90457  -0.90420  -0.88999  -0.88899
 Alpha  occ. eigenvalues --   -0.88760  -0.88604  -0.87958  -0.87870  -0.86939
 Alpha  occ. eigenvalues --   -0.86251  -0.85783  -0.85615  -0.85559  -0.84625
 Alpha  occ. eigenvalues --   -0.84497  -0.84219  -0.83129  -0.82874  -0.82073
 Alpha  occ. eigenvalues --   -0.81864  -0.80255  -0.79983  -0.79620  -0.79294
 Alpha  occ. eigenvalues --   -0.78974  -0.78379  -0.77880  -0.77783  -0.77246
 Alpha  occ. eigenvalues --   -0.77147  -0.74961  -0.74843  -0.73936  -0.73645
 Alpha  occ. eigenvalues --   -0.71524  -0.71116  -0.70924  -0.70567  -0.69728
 Alpha  occ. eigenvalues --   -0.69523  -0.69017  -0.68880  -0.68102  -0.67528
 Alpha  occ. eigenvalues --   -0.67344  -0.67333  -0.67016  -0.66641  -0.66048
 Alpha  occ. eigenvalues --   -0.65473  -0.64070  -0.63905  -0.62431  -0.61828
 Alpha  occ. eigenvalues --   -0.61626  -0.61280  -0.61076  -0.60988  -0.60924
 Alpha  occ. eigenvalues --   -0.59893  -0.59484  -0.59203  -0.59149  -0.59014
 Alpha  occ. eigenvalues --   -0.58722  -0.58686  -0.58119  -0.57607  -0.57059
 Alpha  occ. eigenvalues --   -0.56767  -0.56488  -0.56313  -0.56137  -0.55854
 Alpha  occ. eigenvalues --   -0.55699  -0.55588  -0.55492  -0.55401  -0.55245
 Alpha  occ. eigenvalues --   -0.54866  -0.54709  -0.54479  -0.54457  -0.54205
 Alpha  occ. eigenvalues --   -0.53925  -0.53697  -0.53695  -0.53436  -0.53335
 Alpha  occ. eigenvalues --   -0.53104  -0.52987  -0.52945  -0.52538  -0.52538
 Alpha  occ. eigenvalues --   -0.51858  -0.51833  -0.51815  -0.51524  -0.51506
 Alpha  occ. eigenvalues --   -0.51494  -0.51120  -0.50917  -0.50801  -0.50670
 Alpha  occ. eigenvalues --   -0.50580  -0.50351  -0.50219  -0.50105  -0.50030
 Alpha  occ. eigenvalues --   -0.49914  -0.49682  -0.49658  -0.49522  -0.49256
 Alpha  occ. eigenvalues --   -0.49079  -0.48816  -0.48742  -0.48674  -0.48486
 Alpha  occ. eigenvalues --   -0.48438  -0.48107  -0.48061  -0.47869  -0.47622
 Alpha  occ. eigenvalues --   -0.47373  -0.47333  -0.47074  -0.46922  -0.46847
 Alpha  occ. eigenvalues --   -0.46625  -0.46458  -0.46335  -0.46293  -0.46041
 Alpha  occ. eigenvalues --   -0.45891  -0.45804  -0.45741  -0.45581  -0.45362
 Alpha  occ. eigenvalues --   -0.45270  -0.45172  -0.44828  -0.44612  -0.44574
 Alpha  occ. eigenvalues --   -0.44448  -0.44402  -0.44277  -0.44194  -0.44059
 Alpha  occ. eigenvalues --   -0.44023  -0.43926  -0.43869  -0.43640  -0.43442
 Alpha  occ. eigenvalues --   -0.43274  -0.42920  -0.42740  -0.42185  -0.42138
 Alpha  occ. eigenvalues --   -0.41847  -0.41785  -0.41233  -0.41205  -0.40958
 Alpha  occ. eigenvalues --   -0.40794  -0.40404  -0.39828  -0.39633  -0.39316
 Alpha  occ. eigenvalues --   -0.39197  -0.39181  -0.38522  -0.38304  -0.38245
 Alpha  occ. eigenvalues --   -0.37756  -0.37363  -0.36564  -0.36274  -0.35954
 Alpha  occ. eigenvalues --   -0.35773  -0.35286  -0.34882  -0.33856  -0.33705
 Alpha  occ. eigenvalues --   -0.33544  -0.33222  -0.33127  -0.32282  -0.32136
 Alpha  occ. eigenvalues --   -0.31505  -0.31109  -0.30884  -0.26418  -0.26357
 Alpha  occ. eigenvalues --   -0.23286  -0.22539
 Alpha virt. eigenvalues --   -0.07154  -0.06881  -0.00820   0.00170   0.01861
 Alpha virt. eigenvalues --    0.03187   0.03624   0.04301   0.04513   0.04679
 Alpha virt. eigenvalues --    0.06799   0.06962   0.07120   0.07814   0.08133

 Mulliken charges:
               1
     1  Mg   0.966335
     2  C   -0.023768
     3  C   -0.063208
     4  C   -0.092032
     5  C   -0.101012
     6  N   -0.282705
     7  C   -0.034115
     8  C    0.018334
     9  C   -0.119665
    10  C   -0.008099
    11  C    0.015359
    12  C    0.017536
    13  C   -0.125799
    14  H    0.022220
    15  N   -0.499455
    16  C    0.163088
    17  C   -0.190164
    18  C   -0.055617
    19  C    0.215182
    20  C    0.097023
    21  C    0.017735
    22  O   -0.245732
    23  C    0.020164
    24  N   -0.384864
    25  C    0.048445
    26  C   -0.125753
    27  C   -0.090032
    28  C    0.045115
    29  C    0.037752
    30  C   -0.003820
    31  C   -0.042748
    32  N   -0.423396
    33  C    0.155266
    34  C   -0.159548
    35  C   -0.021067
    36  C    0.159051
    37  C    0.093622
    38  C    0.074435
    39  O   -0.216391
    40  C   -0.098776
    41  C    0.286757
    42  O   -0.256863
    43  O   -0.417814
    44  C    0.139104
    45  H   -0.001263
    46  H   -0.023760
    47  H   -0.001930
    48  H    0.034627
    49  H    0.044288
    50  H    0.048580
    51  H    0.036633
    52  H    0.049378
    53  H    0.048478
    54  H    0.043918
    55  H    0.057345
    56  H    0.052611
    57  H    0.068255
    58  H    0.069359
    59  H    0.030874
    60  H    0.075429
    61  H    0.064011
    62  H    0.054840
    63  H    0.035907
    64  H    0.019934
    65  H    0.037845
    66  H    0.042239
    67  H    0.042233
    68  H    0.028939
    69  H    0.036399
    70  H    0.015405
    71  H    0.040186
    72  H    0.050267
    73  H    0.034113
    74  H    0.047806
    75  H    0.062803
    76  H    0.072070
    77  H    0.050745
    78  H    0.068807
    79  H    0.052544
    80  Mg   0.954504
    81  C   -0.033162
    82  C   -0.082992
    83  C   -0.079809
    84  C   -0.083048
    85  N   -0.368406
    86  C   -0.053309
    87  C   -0.004917
    88  C   -0.142351
    89  C    0.044523
    90  C    0.037057
    91  C    0.030563
    92  C   -0.102121
    93  H    0.037258
    94  N   -0.470946
    95  C    0.145067
    96  C   -0.159873
    97  C   -0.079488
    98  C    0.169644
    99  C    0.104768
   100  C    0.036117
   101  O   -0.227516
   102  C    0.002027
   103  N   -0.386493
   104  C    0.091711
   105  C   -0.126911
   106  C   -0.015465
   107  C    0.025759
   108  C    0.031677
   109  C   -0.022226
   110  C   -0.061824
   111  N   -0.378420
   112  C    0.092476
   113  C   -0.180565
   114  C   -0.010773
   115  C    0.118881
   116  C    0.073222
   117  C    0.083808
   118  O   -0.250608
   119  C   -0.041253
   120  C    0.265101
   121  O   -0.260797
   122  O   -0.368541
   123  C    0.138610
   124  H    0.004192
   125  H   -0.041824
   126  H   -0.009040
   127  H    0.025765
   128  H    0.040043
   129  H    0.048785
   130  H    0.050475
   131  H    0.040828
   132  H    0.031534
   133  H    0.017716
   134  H    0.047094
   135  H    0.071997
   136  H    0.073583
   137  H    0.022284
   138  H    0.060997
   139  H    0.076656
   140  H    0.048877
   141  H    0.056603
   142  H    0.052185
   143  H    0.031492
   144  H    0.041481
   145  H    0.036536
   146  H    0.042355
   147  H    0.044442
   148  H    0.024522
   149  H    0.051131
   150  H    0.034940
   151  H    0.047416
   152  H    0.051597
   153  H    0.071720
   154  H    0.038734
   155  H    0.074340
   156  H    0.059741
   157  H    0.067155
   158  H    0.072687
 Sum of Mulliken charges =  -0.00000

 Dipole moment (field-independent basis, Debye):
    X=             -6.2650    Y=              4.8976    Z=             -4.2905  Tot=              9.0358
 Quadrupole moment (field-independent basis, Debye-Ang):
   XX=           -380.8613   YY=           -500.3094   ZZ=           -508.1544
   XY=             77.8542   XZ=              0.0868   YZ=            -17.7826

 Normal termination of Gaussian 16 at Mon Sep 20 05:05:44 2021.
