 Gaussian 16, Revision A.03,
 Gaussian 16:  ES64L-G16RevA.03 25-Dec-2016

 --------------------------------
 #p wB97XD/Def2SVP td=(nstates=5)
 --------------------------------

 --------------------------------
 TDDFT excited states in gaussian
 --------------------------------
 Symbolic Z-matrix:
 Charge =  0 Multiplicity = 1

                         Standard orientation:
 ---------------------------------------------------------------------
 Center     Atomic      Atomic             Coordinates (Angstroms)
 Number     Number       Type             X           Y           Z
 ---------------------------------------------------------------------
      1         12           0       -0.794987    0.127734    0.032658
      2          6           0        2.834220    0.082357    0.136498
      3          6           0       -0.601590   -3.237839    0.052946
      4          6           0       -3.984922    0.190464   -0.119533
      5          6           0       -0.663618    3.649269   -0.311441
      6          7           0        1.031091   -1.440955    0.123216
      7          6           0        2.348394   -1.205822    0.250798
      8          6           0        3.103310   -2.525201    0.501627
      9          6           0        1.959492   -3.517502   -0.013688
     10          6           0        0.729654   -2.720842    0.114350
     11          6           0        2.211904   -4.311865   -1.284217
     12          6           0        3.470402   -2.608844    1.993325
     13          6           0        4.715627   -3.504663    2.260833
     14          1           0        5.685905   -4.022386    1.100904
     15          7           0       -2.173438   -1.344119    0.018457
     16          6           0       -1.924563   -2.701094   -0.057828
     17          6           0       -3.208378   -3.387336   -0.166088
     18          6           0       -4.219500   -2.395290   -0.139861
     19          6           0       -3.454514   -1.117448   -0.083168
     20          6           0       -3.361522   -4.838398   -0.284052
     21          6           0       -5.829429   -2.550714   -0.134411
     22          8           0       -6.550396   -1.611982    0.066566
     23          6           0       -6.503685   -3.933426   -0.082130
     24          7           0       -2.103835    1.700830   -0.457930
     25          6           0       -3.403622    1.466925   -0.295649
     26          6           0       -4.270353    2.695058   -0.371399
     27          6           0       -3.204862    3.765570   -0.031084
     28          6           0       -1.904363    2.996500   -0.448692
     29          6           0       -4.927128    2.949882   -1.807308
     30          6           0       -3.204954    4.302982    1.461384
     31          6           0       -4.531745    4.336209    2.274430
     32          7           0        0.710807    1.576789   -0.181154
     33          6           0        0.658232    2.930223   -0.246009
     34          6           0        1.922330    3.504533   -0.139544
     35          6           0        2.764863    2.433875   -0.045200
     36          6           0        2.026269    1.267119   -0.049219
     37          6           0        2.228307    4.998385   -0.075153
     38          6           0        4.193941    2.122242    0.107628
     39          8           0        5.209471    2.794356    0.007624
     40          6           0        4.242054    0.545191    0.311855
     41          6           0        5.204552    0.012448   -0.636492
     42          8           0        5.030737   -0.177473   -1.844479
     43          8           0        6.403622    0.009741   -0.017584
     44          6           0        7.509432   -0.134664   -0.947324
     45          1           0       -0.525576   -4.312778   -0.124071
     46          1           0       -5.072459    0.171707   -0.210383
     47          1           0       -0.680206    4.740907   -0.323291
     48          1           0        3.952510   -2.636278   -0.172748
     49          1           0        1.890382   -4.299556    0.741198
     50          1           0        2.306257   -5.379562   -1.088497
     51          1           0        3.120976   -3.961682   -1.772793
     52          1           0        1.452680   -4.172845   -2.053895
     53          1           0        2.653692   -3.125545    2.497907
     54          1           0        3.569860   -1.639633    2.481689
     55          1           0        4.472460   -4.352805    2.901659
     56          1           0        5.245278   -2.923724    3.015741
     57          1           0       -2.502966   -5.370324    0.125324
     58          1           0       -3.469519   -5.025075   -1.352642
     59          1           0       -4.228696   -5.238424    0.241849
     60          1           0       -6.319189   -4.478711    0.843435
     61          1           0       -6.207482   -4.414927   -1.014332
     62          1           0       -7.580305   -3.824462   -0.215563
     63          1           0       -5.039530    2.491733    0.373286
     64          1           0       -3.276350    4.654086   -0.657930
     65          1           0       -5.956431    3.183529   -1.536161
     66          1           0       -4.916999    2.082353   -2.468084
     67          1           0       -4.531601    3.797435   -2.365751
     68          1           0       -2.745990    5.290544    1.473961
     69          1           0       -2.618704    3.525039    1.950809
     70          1           0       -4.700158    3.378080    2.765488
     71          1           0       -5.270494    4.642558    1.532999
     72          1           0       -4.538371    5.130605    3.019947
     73          1           0        1.343216    5.437484    0.385788
     74          1           0        2.316147    5.462108   -1.057239
     75          1           0        3.123183    5.136934    0.531295
     76          1           0        4.571095    0.379505    1.338483
     77          1           0        8.486012   -0.115735   -0.464398
     78          1           0        7.473582    0.478123   -1.848201
     79          1           0        7.512370   -1.135744   -1.379899
 ---------------------------------------------------------------------

 SCF Done:  E(RwB97XD) =  -2035.28003684     A.U. after   17 cycles

 Excitation energies and oscillator strengths:

 Excited State   1:      Singlet-A      1.7990 eV  689.17 nm  f=0.3707  <S**2>=0.000
     155 ->158        -0.19146
     156 ->157         0.67948
     155 <-158        -0.11148
 This state for optimization and/or second-order correction.
 Total Energy, E(TD-HF/TD-DFT) =  -2035.21392327
 Copying the excited state density for this state as the 1-particle RhoCI density.

 Excited State   2:      Singlet-A      2.1926 eV  565.47 nm  f=0.1527  <S**2>=0.000
     155 ->157         0.65246
     156 ->158         0.25643

 Excited State   3:      Singlet-A      3.6150 eV  342.97 nm  f=0.0029  <S**2>=0.000
     151 ->157        -0.10449
     152 ->157        -0.21211
     154 ->157         0.64337

 Excited State   4:      Singlet-A      3.6897 eV  336.02 nm  f=0.4165  <S**2>=0.000
     151 ->157        -0.20262
     152 ->157        -0.26325
     155 ->157        -0.19641
     156 ->158         0.56876

 Excited State   5:      Singlet-A      3.7628 eV  329.50 nm  f=0.0032  <S**2>=0.000
     153 ->157         0.54266
     153 ->159        -0.27796
     153 ->160        -0.29256

 The electronic state is 1-A.
 Alpha  occ. eigenvalues --  -46.95679 -19.30090 -19.25584 -19.23848 -19.23685
 Alpha  occ. eigenvalues --  -14.46068 -14.45655 -14.44554 -14.43192 -10.42017
 Alpha  occ. eigenvalues --  -10.41017 -10.38788 -10.35413 -10.34848 -10.34838
 Alpha  occ. eigenvalues --  -10.34689 -10.34246 -10.33645 -10.33557 -10.33553
 Alpha  occ. eigenvalues --  -10.33194 -10.32702 -10.32346 -10.32038 -10.31975
 Alpha  occ. eigenvalues --  -10.31653 -10.31625 -10.31527 -10.31440 -10.31425
 Alpha  occ. eigenvalues --  -10.31298 -10.31269 -10.31118 -10.31041 -10.30504
 Alpha  occ. eigenvalues --  -10.30123 -10.29940 -10.29864 -10.29448 -10.29415
 Alpha  occ. eigenvalues --  -10.29355 -10.29031 -10.27673  -3.21633  -1.95224
 Alpha  occ. eigenvalues --   -1.94775  -1.94581  -1.18637  -1.14878  -1.11632
 Alpha  occ. eigenvalues --   -1.08788  -1.07791  -1.07216  -1.06717  -1.05409
 Alpha  occ. eigenvalues --   -0.94281  -0.91165  -0.90600  -0.89945  -0.89494
 Alpha  occ. eigenvalues --   -0.88816  -0.87474  -0.86285  -0.84990  -0.84251
 Alpha  occ. eigenvalues --   -0.83877  -0.82653  -0.82054  -0.80617  -0.78722
 Alpha  occ. eigenvalues --   -0.78519  -0.77629  -0.77187  -0.74701  -0.73622
 Alpha  occ. eigenvalues --   -0.71585  -0.70701  -0.69561  -0.68806  -0.67384
 Alpha  occ. eigenvalues --   -0.67035  -0.66601  -0.65650  -0.63765  -0.62864
 Alpha  occ. eigenvalues --   -0.61466  -0.61215  -0.60361  -0.59843  -0.59462
 Alpha  occ. eigenvalues --   -0.58576  -0.57388  -0.57135  -0.56512  -0.55973
 Alpha  occ. eigenvalues --   -0.55755  -0.55535  -0.54939  -0.54844  -0.54170
 Alpha  occ. eigenvalues --   -0.53662  -0.53201  -0.53055  -0.52625  -0.52398
 Alpha  occ. eigenvalues --   -0.51924  -0.51635  -0.51051  -0.50872  -0.50687
 Alpha  occ. eigenvalues --   -0.50512  -0.50265  -0.49785  -0.49410  -0.49305
 Alpha  occ. eigenvalues --   -0.48922  -0.48655  -0.48148  -0.47667  -0.47341
 Alpha  occ. eigenvalues --   -0.46804  -0.46543  -0.46430  -0.46212  -0.45980
 Alpha  occ. eigenvalues --   -0.45840  -0.45736  -0.45245  -0.45173  -0.44887
 Alpha  occ. eigenvalues --   -0.44577  -0.44367  -0.44207  -0.43976  -0.43336
 Alpha  occ. eigenvalues --   -0.43211  -0.42278  -0.41620  -0.41217  -0.40588
 Alpha  occ. eigenvalues --   -0.40155  -0.39997  -0.39402  -0.38647  -0.37896
 Alpha  occ. eigenvalues --   -0.37635  -0.36137  -0.35653  -0.34681  -0.33952
 Alpha  occ. eigenvalues --   -0.33736  -0.32827  -0.32301  -0.31580  -0.25297
 Alpha  occ. eigenvalues --   -0.23205
 Alpha virt. eigenvalues --   -0.06583   0.00844   0.02624   0.04772   0.05578
 Alpha virt. eigenvalues --    0.06769   0.07920   0.08649   0.09298   0.10257
 Alpha virt. eigenvalues --    0.11582   0.12016   0.12860   0.12929   0.14214

 Mulliken charges:
               1
     1  Mg   0.963353
     2  C   -0.002497
     3  C   -0.069633
     4  C   -0.087054
     5  C   -0.078782
     6  N   -0.252432
     7  C   -0.062550
     8  C   -0.062084
     9  C   -0.088812
    10  C    0.000015
    11  C    0.039644
    12  C    0.010110
    13  C   -0.092272
    14  H    0.048519
    15  N   -0.472802
    16  C    0.161586
    17  C   -0.161807
    18  C   -0.088187
    19  C    0.121980
    20  C    0.059418
    21  C    0.076676
    22  O   -0.197399
    23  C   -0.024305
    24  N   -0.321655
    25  C    0.065187
    26  C   -0.102491
    27  C   -0.113638
    28  C    0.058311
    29  C    0.030265
    30  C   -0.010592
    31  C   -0.052964
    32  N   -0.410094
    33  C    0.090516
    34  C   -0.219164
    35  C   -0.051342
    36  C    0.154667
    37  C    0.095845
    38  C    0.138623
    39  O   -0.197796
    40  C   -0.092991
    41  C    0.252642
    42  O   -0.272143
    43  O   -0.331235
    44  C    0.153308
    45  H   -0.010544
    46  H    0.011924
    47  H    0.003399
    48  H    0.040491
    49  H    0.017727
    50  H    0.039846
    51  H    0.042834
    52  H    0.036618
    53  H    0.031784
    54  H    0.048023
    55  H    0.038515
    56  H    0.037340
    57  H    0.044158
    58  H    0.065939
    59  H    0.040948
    60  H    0.086435
    61  H    0.045255
    62  H    0.050825
    63  H    0.043773
    64  H    0.017532
    65  H    0.041937
    66  H    0.045898
    67  H    0.042524
    68  H    0.037406
    69  H    0.027791
    70  H    0.050450
    71  H    0.034825
    72  H    0.039888
    73  H    0.025420
    74  H    0.053053
    75  H    0.055813
    76  H    0.073323
    77  H    0.049842
    78  H    0.060897
    79  H    0.024166
 Sum of Mulliken charges =  -0.00000

 Dipole moment (field-independent basis, Debye):
    X=             -3.4406    Y=             -4.8094    Z=              2.2451  Tot=              6.3252
 Quadrupole moment (field-independent basis, Debye-Ang):
   XX=           -265.0198   YY=           -224.3644   ZZ=           -255.1381
   XY=            -13.7241   XZ=              8.4390   YZ=              1.1474

 Normal termination of Gaussian 16 at Sun Sep 19 15:47:03 2021.
