 Gaussian 16, Revision A.03,
 Gaussian 16:  ES64L-G16RevA.03 25-Dec-2016

 --------------------------------
 #p wB97XD/Def2SVP td=(nstates=5)
 --------------------------------

 --------------------------------
 TDDFT excited states in gaussian
 --------------------------------
 Symbolic Z-matrix:
 Charge =  0 Multiplicity = 1

                         Standard orientation:
 ---------------------------------------------------------------------
 Center     Atomic      Atomic             Coordinates (Angstroms)
 Number     Number       Type             X           Y           Z
 ---------------------------------------------------------------------
      1         12           0       -9.280851    0.341808    0.300121
      2          6           0       -7.747239   -2.385950   -1.440212
      3          6           0      -11.304761   -1.900597    1.933925
      4          6           0      -11.093518    2.859625    1.635281
      5          6           0       -7.852818    2.476148   -2.117868
      6          7           0       -9.468476   -1.873584    0.240026
      7          6           0       -8.711193   -2.814394   -0.475495
      8          6           0       -9.133706   -4.201885   -0.065566
      9          6           0      -10.562963   -3.945732    0.574501
     10          6           0      -10.479356   -2.425622    0.900869
     11          6           0      -11.645422   -4.275123   -0.514372
     12          6           0       -8.080155   -4.960666    0.816260
     13          6           0       -7.938493   -6.328215    0.370132
     14          1           0       -6.650029   -7.102524    0.948952
     15          7           0      -10.853828    0.372187    1.742496
     16          6           0      -11.511122   -0.646824    2.308956
     17          6           0      -12.412574   -0.137579    3.296308
     18          6           0      -12.395476    1.239738    3.228636
     19          6           0      -11.342178    1.595830    2.169533
     20          6           0      -13.380844   -1.066121    4.095910
     21          6           0      -13.155857    2.264720    4.095031
     22          8           0      -13.031998    3.439230    3.855978
     23          6           0      -13.972172    1.817181    5.284584
     24          7           0       -9.633842    2.341321   -0.379886
     25          6           0      -10.335014    3.198376    0.461196
     26          6           0      -10.113160    4.623458    0.070881
     27          6           0       -9.049709    4.511392   -1.127658
     28          6           0       -8.765922    3.028959   -1.188069
     29          6           0      -11.377409    5.348626   -0.245465
     30          6           0       -7.692397    5.399815   -1.011693
     31          6           0       -7.432278    6.413212   -2.055104
     32          7           0       -8.010284    0.162714   -1.409561
     33          6           0       -7.545812    1.137991   -2.262986
     34          6           0       -6.607071    0.470323   -3.265894
     35          6           0       -6.565587   -0.893001   -2.911128
     36          6           0       -7.477978   -1.037661   -1.807869
     37          6           0       -5.907396    1.199388   -4.421079
     38          6           0       -6.065909   -2.156809   -3.361220
     39          8           0       -5.290554   -2.432916   -4.304297
     40          6           0       -6.932310   -3.202154   -2.545816
     41          6           0       -5.920679   -4.280014   -2.052738
     42          8           0       -5.501794   -4.270606   -0.880692
     43          8           0       -5.697584   -5.185832   -3.036348
     44          6           0       -4.573004   -6.089232   -2.612923
     45          1           0      -11.791232   -2.602562    2.614939
     46          1           0      -11.653689    3.693336    2.065312
     47          1           0       -7.288734    3.064342   -2.844525
     48          1           0       -9.317944   -4.739995   -0.995126
     49          1           0      -10.735458   -4.578761    1.444191
     50          1           0      -11.718309   -3.522222   -1.298791
     51          1           0      -12.603149   -4.431150   -0.019689
     52          1           0      -11.392206   -5.226755   -0.982258
     53          1           0       -8.531880   -5.069013    1.802604
     54          1           0       -7.141313   -4.411945    0.894656
     55          1           0       -7.720435   -6.373081   -0.697027
     56          1           0       -8.848133   -6.858957    0.652226
     57          1           0      -13.150328   -0.819775    5.132345
     58          1           0      -13.209132   -2.133946    3.961228
     59          1           0      -14.411047   -0.869428    3.799399
     60          1           0      -14.502844    2.661827    5.724113
     61          1           0      -13.132310    1.459067    5.879892
     62          1           0      -14.654462    1.035169    4.951484
     63          1           0       -9.636625    5.038936    0.958993
     64          1           0       -9.565475    4.839467   -2.029785
     65          1           0      -11.497714    6.051692    0.577774
     66          1           0      -12.259964    4.711705   -0.188042
     67          1           0      -11.401863    5.852108   -1.212178
     68          1           0       -6.918448    4.642364   -1.135371
     69          1           0       -7.637701    5.786350    0.005126
     70          1           0       -6.528481    6.177901   -2.616535
     71          1           0       -7.194965    7.230181   -1.374531
     72          1           0       -8.319219    6.673245   -2.634486
     73          1           0       -6.560926    1.075325   -5.283839
     74          1           0       -4.925554    0.782384   -4.644920
     75          1           0       -5.744357    2.238785   -4.136066
     76          1           0       -7.618448   -3.589799   -3.297602
     77          1           0       -3.582182   -5.636730   -2.649631
     78          1           0       -4.514958   -7.031289   -3.157169
     79          1           0       -4.818352   -6.400568   -1.597355
     80         12           0        8.530935    0.947062    0.463623
     81          6           0       11.170369   -1.457549    0.943234
     82          6           0        6.324355   -1.556177    0.320108
     83          6           0        6.355421    3.139306   -0.837128
     84          6           0       11.044872    3.376066    0.173248
     85          7           0        8.750384   -1.214949    0.560383
     86          6           0        9.860606   -1.983759    0.949262
     87          6           0        9.449955   -3.476218    1.246732
     88          6           0        7.916024   -3.463369    0.970225
     89          6           0        7.621084   -1.974292    0.647652
     90          6           0        7.398407   -4.386515   -0.103495
     91          6           0        9.890489   -3.965064    2.728688
     92          6           0       10.701168   -5.266184    2.773809
     93          1           0       10.041837   -6.400632    3.643101
     94          7           0        6.551905    0.835989   -0.043325
     95          6           0        5.800077   -0.269404   -0.050322
     96          6           0        4.438040    0.008063   -0.509631
     97          6           0        4.495324    1.379627   -0.936799
     98          6           0        5.847685    1.857226   -0.630035
     99          6           0        3.368049   -0.997492   -0.523999
    100          6           0        3.329239    2.106830   -1.677232
    101          8           0        3.386670    3.289897   -1.968084
    102          6           0        2.057580    1.418114   -2.057926
    103          7           0        8.693991    2.903430   -0.201574
    104          6           0        7.588688    3.652728   -0.590217
    105          6           0        7.987936    5.139768   -0.864981
    106          6           0        9.408531    5.247425   -0.195170
    107          6           0        9.735605    3.766600   -0.004006
    108          6           0        7.851257    5.674137   -2.327917
    109          6           0        9.417679    6.009127    1.158493
    110          6           0       10.571872    6.930370    1.463235
    111          7           0       10.674081    0.983301    0.485735
    112          6           0       11.531630    2.038495    0.354825
    113          6           0       12.950634    1.551012    0.643990
    114          6           0       12.844966    0.210598    0.926574
    115          6           0       11.454276   -0.105209    0.749052
    116          6           0       14.139558    2.483160    0.698811
    117          6           0       13.541034   -1.017335    1.267406
    118          8           0       14.772900   -1.093494    1.457690
    119          6           0       12.448308   -2.242741    1.202146
    120          6           0       12.679670   -3.240981    0.087007
    121          8           0       12.787671   -2.863244   -1.096422
    122          8           0       12.928129   -4.528500    0.564476
    123          6           0       13.555380   -5.379469   -0.439997
    124          1           0        5.534700   -2.308561    0.369109
    125          1           0        5.566236    3.800672   -1.199850
    126          1           0       11.754443    4.206518    0.188975
    127          1           0       10.027528   -4.028719    0.505876
    128          1           0        7.474491   -3.913885    1.860212
    129          1           0        8.188069   -4.941088   -0.610608
    130          1           0        7.076187   -3.643578   -0.832310
    131          1           0        6.676342   -5.115629    0.265323
    132          1           0        8.934229   -4.056988    3.242929
    133          1           0       10.396778   -3.144089    3.235703
    134          1           0       11.704532   -4.995256    3.102376
    135          1           0       10.783825   -5.670687    1.764214
    136          1           0        2.837758   -1.219521   -1.449536
    137          1           0        2.545157   -0.521259    0.007844
    138          1           0        3.551767   -1.887421    0.078375
    139          1           0        1.622104    1.089038   -1.113674
    140          1           0        2.343984    0.521258   -2.607933
    141          1           0        1.486749    2.150058   -2.627964
    142          1           0        7.281551    5.709080   -0.260778
    143          1           0       10.170651    5.627356   -0.875150
    144          1           0        7.350155    4.865649   -2.859734
    145          1           0        8.791566    5.987976   -2.780253
    146          1           0        7.111124    6.471439   -2.406313
    147          1           0        9.422322    5.137510    1.812704
    148          1           0        8.505044    6.563553    1.378101
    149          1           0       10.124983    7.819921    1.907336
    150          1           0       11.108378    7.254952    0.571076
    151          1           0       11.120292    6.459379    2.279393
    152          1           0       13.774591    3.481958    0.460121
    153          1           0       14.818896    2.211954   -0.108993
    154          1           0       14.638507    2.382928    1.662500
    155          1           0       12.412176   -2.719936    2.181476
    156          1           0       14.592963   -5.645616   -0.243114
    157          1           0       13.508932   -4.981112   -1.453634
    158          1           0       12.977282   -6.303050   -0.455518
 ---------------------------------------------------------------------

 SCF Done:  E(RwB97XD) =  -4070.56521997     A.U. after   19 cycles

 Excitation energies and oscillator strengths:

 Excited State   1:      Singlet-A      1.6376 eV  757.10 nm  f=0.5344  <S**2>=0.000
     310 -> 316        0.17269
     311 -> 313        0.66494
     312 -> 314       -0.16795
     310 <- 316        0.11315
 This state for optimization and/or second-order correction.
 Total Energy, E(TD-HF/TD-DFT) =  -4070.50503816
 Copying the excited state density for this state as the 1-particle RhoCI density.

 Excited State   2:      Singlet-A      1.6794 eV  738.26 nm  f=0.2567  <S**2>=0.000
     309 -> 315        0.18643
     311 -> 313        0.16804
     312 -> 314        0.65918
     309 <- 315        0.11197

 Excited State   3:      Singlet-A      2.2166 eV  559.34 nm  f=0.0049  <S**2>=0.000
     309 -> 314        0.55051
     312 -> 315       -0.43332

 Excited State   4:      Singlet-A      2.2315 eV  555.60 nm  f=0.0865  <S**2>=0.000
     310 -> 313        0.62784
     311 -> 316       -0.31532

 Excited State   5:      Singlet-A      3.3974 eV  364.94 nm  f=0.0000  <S**2>=0.000
     312 -> 313        0.70647

 The electronic state is 1-A.
 Alpha  occ. eigenvalues --  -46.95857 -46.94597 -19.31821 -19.31531 -19.25699
 Alpha  occ. eigenvalues --  -19.24932 -19.24868 -19.24611 -19.23892 -19.23327
 Alpha  occ. eigenvalues --  -14.47043 -14.46971 -14.46562 -14.46111 -14.44163
 Alpha  occ. eigenvalues --  -14.44065 -14.43817 -14.43781 -10.44599 -10.43726
 Alpha  occ. eigenvalues --  -10.40477 -10.39741 -10.39013 -10.38647 -10.35540
 Alpha  occ. eigenvalues --  -10.35512 -10.35482 -10.35469 -10.35439 -10.35380
 Alpha  occ. eigenvalues --  -10.35037 -10.34822 -10.34580 -10.34514 -10.34210
 Alpha  occ. eigenvalues --  -10.33988 -10.33910 -10.33626 -10.33337 -10.33206
 Alpha  occ. eigenvalues --  -10.33144 -10.33130 -10.33056 -10.33030 -10.32906
 Alpha  occ. eigenvalues --  -10.32905 -10.32874 -10.32695 -10.32508 -10.32314
 Alpha  occ. eigenvalues --  -10.32275 -10.32182 -10.32178 -10.32122 -10.32052
 Alpha  occ. eigenvalues --  -10.32038 -10.31598 -10.31541 -10.31445 -10.31385
 Alpha  occ. eigenvalues --  -10.31297 -10.31140 -10.31122 -10.31099 -10.30906
 Alpha  occ. eigenvalues --  -10.30861 -10.30744 -10.30583 -10.30456 -10.30438
 Alpha  occ. eigenvalues --  -10.30408 -10.30209 -10.29926 -10.29854 -10.29822
 Alpha  occ. eigenvalues --  -10.29733 -10.29711 -10.29674 -10.29268 -10.29249
 Alpha  occ. eigenvalues --  -10.29192 -10.29148 -10.29136 -10.29065 -10.29017
 Alpha  occ. eigenvalues --  -10.28819  -3.21660  -3.20671  -1.95239  -1.94765
 Alpha  occ. eigenvalues --   -1.94626  -1.94244  -1.93781  -1.93671  -1.18415
 Alpha  occ. eigenvalues --   -1.18376  -1.14059  -1.12083  -1.11212  -1.10166
 Alpha  occ. eigenvalues --   -1.10053  -1.09466  -1.06218  -1.05780  -1.05181
 Alpha  occ. eigenvalues --   -1.05157  -1.04762  -1.04496  -1.03768  -1.03513
 Alpha  occ. eigenvalues --   -0.94497  -0.93266  -0.90952  -0.90863  -0.90694
 Alpha  occ. eigenvalues --   -0.90468  -0.90092  -0.89779  -0.89578  -0.89227
 Alpha  occ. eigenvalues --   -0.89139  -0.88964  -0.87934  -0.87465  -0.86360
 Alpha  occ. eigenvalues --   -0.86056  -0.85743  -0.85436  -0.84639  -0.84552
 Alpha  occ. eigenvalues --   -0.84494  -0.83593  -0.83031  -0.82717  -0.82507
 Alpha  occ. eigenvalues --   -0.82047  -0.80290  -0.80198  -0.79537  -0.79412
 Alpha  occ. eigenvalues --   -0.78736  -0.78541  -0.78019  -0.77494  -0.76952
 Alpha  occ. eigenvalues --   -0.76508  -0.74316  -0.74236  -0.73498  -0.72809
 Alpha  occ. eigenvalues --   -0.70885  -0.70882  -0.70209  -0.69830  -0.69711
 Alpha  occ. eigenvalues --   -0.69501  -0.68513  -0.68420  -0.67141  -0.67108
 Alpha  occ. eigenvalues --   -0.66972  -0.66800  -0.66754  -0.66528  -0.66364
 Alpha  occ. eigenvalues --   -0.66227  -0.64464  -0.64165  -0.62083  -0.62036
 Alpha  occ. eigenvalues --   -0.61604  -0.61163  -0.60758  -0.60518  -0.60369
 Alpha  occ. eigenvalues --   -0.60300  -0.60199  -0.59486  -0.59169  -0.59146
 Alpha  occ. eigenvalues --   -0.58088  -0.58068  -0.57570  -0.57280  -0.57123
 Alpha  occ. eigenvalues --   -0.56889  -0.56723  -0.56398  -0.56034  -0.55994
 Alpha  occ. eigenvalues --   -0.55583  -0.55571  -0.55307  -0.54978  -0.54963
 Alpha  occ. eigenvalues --   -0.54656  -0.54643  -0.54492  -0.54380  -0.54130
 Alpha  occ. eigenvalues --   -0.53945  -0.53598  -0.53421  -0.53322  -0.53319
 Alpha  occ. eigenvalues --   -0.53053  -0.52926  -0.52625  -0.52542  -0.52402
 Alpha  occ. eigenvalues --   -0.52251  -0.52137  -0.51994  -0.51548  -0.51429
 Alpha  occ. eigenvalues --   -0.51190  -0.51155  -0.50962  -0.50901  -0.50624
 Alpha  occ. eigenvalues --   -0.50553  -0.50390  -0.50244  -0.50112  -0.50043
 Alpha  occ. eigenvalues --   -0.49946  -0.49871  -0.49740  -0.49456  -0.49046
 Alpha  occ. eigenvalues --   -0.48784  -0.48588  -0.48546  -0.48508  -0.48284
 Alpha  occ. eigenvalues --   -0.48225  -0.48082  -0.47842  -0.47814  -0.47742
 Alpha  occ. eigenvalues --   -0.47454  -0.47350  -0.47188  -0.46622  -0.46572
 Alpha  occ. eigenvalues --   -0.46374  -0.46367  -0.46188  -0.46100  -0.45941
 Alpha  occ. eigenvalues --   -0.45826  -0.45805  -0.45535  -0.45480  -0.45420
 Alpha  occ. eigenvalues --   -0.45280  -0.45076  -0.45030  -0.44881  -0.44810
 Alpha  occ. eigenvalues --   -0.44689  -0.44463  -0.44387  -0.44065  -0.43941
 Alpha  occ. eigenvalues --   -0.43524  -0.43478  -0.43478  -0.43106  -0.42895
 Alpha  occ. eigenvalues --   -0.42752  -0.42573  -0.42343  -0.42214  -0.41951
 Alpha  occ. eigenvalues --   -0.41773  -0.41298  -0.40903  -0.40825  -0.40538
 Alpha  occ. eigenvalues --   -0.40072  -0.39820  -0.39603  -0.39357  -0.39355
 Alpha  occ. eigenvalues --   -0.39315  -0.39256  -0.39087  -0.38371  -0.38159
 Alpha  occ. eigenvalues --   -0.37909  -0.36963  -0.36894  -0.36297  -0.36163
 Alpha  occ. eigenvalues --   -0.35923  -0.35303  -0.35015  -0.34021  -0.33569
 Alpha  occ. eigenvalues --   -0.33455  -0.33375  -0.32745  -0.32451  -0.32383
 Alpha  occ. eigenvalues --   -0.32334  -0.31769  -0.31557  -0.26291  -0.25953
 Alpha  occ. eigenvalues --   -0.22429  -0.22101
 Alpha virt. eigenvalues --   -0.06617  -0.05980  -0.00692   0.00737   0.01981
 Alpha virt. eigenvalues --    0.02117   0.04380   0.04454   0.04965   0.05016
 Alpha virt. eigenvalues --    0.05247   0.07119   0.07122   0.07654   0.08146

 Mulliken charges:
               1
     1  Mg   0.942868
     2  C    0.041314
     3  C   -0.129223
     4  C   -0.076112
     5  C   -0.077145
     6  N   -0.336233
     7  C   -0.017864
     8  C   -0.079494
     9  C   -0.155356
    10  C    0.136102
    11  C    0.022036
    12  C    0.093411
    13  C   -0.136162
    14  H    0.008250
    15  N   -0.446412
    16  C    0.165833
    17  C   -0.153462
    18  C   -0.107745
    19  C    0.165152
    20  C    0.056929
    21  C    0.032550
    22  O   -0.217235
    23  C    0.006294
    24  N   -0.392430
    25  C    0.060632
    26  C   -0.103444
    27  C   -0.058596
    28  C    0.088764
    29  C    0.029594
    30  C   -0.034482
    31  C   -0.028748
    32  N   -0.416738
    33  C    0.095460
    34  C   -0.195976
    35  C   -0.012045
    36  C    0.105186
    37  C    0.075149
    38  C    0.121942
    39  O   -0.235355
    40  C   -0.138833
    41  C    0.280953
    42  O   -0.275772
    43  O   -0.340086
    44  C    0.131928
    45  H   -0.010078
    46  H    0.029412
    47  H   -0.007778
    48  H    0.017257
    49  H    0.025391
    50  H    0.050887
    51  H    0.035307
    52  H    0.035641
    53  H    0.016210
    54  H    0.073124
    55  H    0.051821
    56  H    0.043561
    57  H    0.051665
    58  H    0.037590
    59  H    0.072754
    60  H    0.062271
    61  H    0.066172
    62  H    0.055599
    63  H    0.043150
    64  H    0.031732
    65  H    0.039848
    66  H    0.045850
    67  H    0.038847
    68  H    0.026766
    69  H    0.028253
    70  H    0.045455
    71  H    0.030586
    72  H    0.041855
    73  H    0.063429
    74  H    0.057123
    75  H    0.033972
    76  H    0.090281
    77  H    0.068848
    78  H    0.052760
    79  H    0.059038
    80  Mg   0.975742
    81  C   -0.099683
    82  C   -0.080648
    83  C   -0.088288
    84  C   -0.101490
    85  N   -0.370228
    86  C   -0.011822
    87  C   -0.072239
    88  C   -0.107132
    89  C    0.104597
    90  C    0.024227
    91  C    0.006688
    92  C   -0.108924
    93  H    0.027440
    94  N   -0.454750
    95  C    0.114025
    96  C   -0.148976
    97  C   -0.076286
    98  C    0.118215
    99  C    0.068608
   100  C    0.031271
   101  O   -0.238969
   102  C    0.012577
   103  N   -0.401005
   104  C    0.093590
   105  C   -0.058194
   106  C   -0.103672
   107  C    0.063706
   108  C    0.035206
   109  C   -0.016584
   110  C   -0.026079
   111  N   -0.388434
   112  C    0.148837
   113  C   -0.229193
   114  C    0.015609
   115  C    0.154031
   116  C    0.098542
   117  C    0.146518
   118  O   -0.221714
   119  C   -0.037187
   120  C    0.292781
   121  O   -0.256294
   122  O   -0.367246
   123  C    0.121171
   124  H   -0.013485
   125  H    0.015999
   126  H   -0.004183
   127  H    0.041498
   128  H    0.034193
   129  H    0.028736
   130  H    0.041882
   131  H    0.043131
   132  H    0.031949
   133  H    0.037847
   134  H    0.064239
   135  H    0.054536
   136  H    0.048789
   137  H    0.029471
   138  H    0.042783
   139  H    0.050385
   140  H    0.052966
   141  H    0.067752
   142  H    0.030747
   143  H    0.029009
   144  H    0.038843
   145  H    0.045182
   146  H    0.035252
   147  H    0.029362
   148  H    0.034655
   149  H    0.028618
   150  H    0.041742
   151  H    0.043729
   152  H    0.022794
   153  H    0.058735
   154  H    0.066735
   155  H    0.057940
   156  H    0.063208
   157  H    0.072059
   158  H    0.044554
 Sum of Mulliken charges =  -0.00000

 Dipole moment (field-independent basis, Debye):
    X=             -6.7460    Y=             -1.2849    Z=              4.9980  Tot=              8.4935
 Quadrupole moment (field-independent basis, Debye-Ang):
   XX=           -510.6184   YY=           -462.5397   ZZ=           -517.2602
   XY=             24.4987   XZ=            -19.1821   YZ=             -6.1417

 Normal termination of Gaussian 16 at Sun Sep 19 14:12:51 2021.
