 Gaussian 16, Revision A.03,
 Gaussian 16:  ES64L-G16RevA.03 25-Dec-2016

 --------------------------------
 #p wB97XD/Def2SVP td=(nstates=5)
 --------------------------------

 --------------------------------
 TDDFT excited states in gaussian
 --------------------------------
 Symbolic Z-matrix:
 Charge =  0 Multiplicity = 1

                         Standard orientation:
 ---------------------------------------------------------------------
 Center     Atomic      Atomic             Coordinates (Angstroms)
 Number     Number       Type             X           Y           Z
 ---------------------------------------------------------------------
      1         12           0       11.002962    0.184931   -0.057984
      2          6           0        7.818428    0.160910    1.765141
      3          6           0       10.500936   -3.223649   -0.388489
      4          6           0       13.094381    0.293423   -2.462993
      5          6           0       10.808442    3.763915    0.196583
      6          7           0        9.174152   -1.346876    0.545171
      7          6           0        8.023326   -1.137651    1.273242
      8          6           0        7.182189   -2.465764    1.310333
      9          6           0        8.171087   -3.561038    0.874831
     10          6           0        9.346761   -2.674822    0.312438
     11          6           0        8.735256   -4.553851    1.974341
     12          6           0        5.863850   -2.400717    0.465564
     13          6           0        4.647494   -3.073873    1.064019
     14          1           0        4.266396   -4.474229    0.489276
     15          7           0       11.794232   -1.248249   -1.170275
     16          6           0       11.568183   -2.596683   -1.114110
     17          6           0       12.424327   -3.293900   -2.112458
     18          6           0       13.161831   -2.251693   -2.732259
     19          6           0       12.664313   -1.004561   -2.156864
     20          6           0       12.429146   -4.795045   -2.444503
     21          6           0       14.093435   -2.333853   -3.944899
     22          8           0       14.331727   -3.451341   -4.394948
     23          6           0       14.719433   -1.229884   -4.558551
     24          7           0       11.636482    1.867667   -1.183135
     25          6           0       12.733392    1.577711   -1.970042
     26          6           0       13.368685    2.941968   -2.443874
     27          6           0       12.417987    4.027142   -1.822585
     28          6           0       11.638252    3.168147   -0.798355
     29          6           0       14.864421    3.150786   -2.080292
     30          6           0       11.480341    4.862896   -2.784177
     31          6           0       12.099100    6.045251   -3.549966
     32          7           0        9.679405    1.732252    0.816039
     33          6           0        9.824871    3.100248    0.931817
     34          6           0        8.835619    3.673965    1.811612
     35          6           0        8.023985    2.536604    2.180452
     36          6           0        8.503349    1.348259    1.526479
     37          6           0        8.722326    5.137117    2.110490
     38          6           0        6.875345    2.174293    2.883064
     39          8           0        6.010642    2.855907    3.416780
     40          6           0        6.601256    0.677089    2.559076
     41          6           0        6.532555    0.003837    3.909922
     42          8           0        5.622367   -0.759045    4.243328
     43          8           0        7.702581    0.176050    4.753958
     44          6           0        7.733088   -0.773188    5.865507
     45          1           0       10.407007   -4.309608   -0.446254
     46          1           0       13.936912    0.470505   -3.134728
     47          1           0       10.933812    4.847311    0.249672
     48          1           0        6.997383   -2.726923    2.353301
     49          1           0        7.801500   -4.123072    0.017152
     50          1           0        8.220366   -5.495050    1.782801
     51          1           0        8.450377   -4.234808    2.976497
     52          1           0        9.819838   -4.657992    2.003125
     53          1           0        5.908046   -2.927807   -0.487840
     54          1           0        5.567708   -1.363803    0.305333
     55          1           0        3.830573   -2.354043    1.012827
     56          1           0        4.853088   -3.240307    2.121916
     57          1           0       13.452853   -5.133577   -2.606459
     58          1           0       11.784892   -4.869144   -3.320524
     59          1           0       12.054880   -5.382062   -1.606894
     60          1           0       15.437368   -0.814033   -3.850911
     61          1           0       14.037120   -0.481470   -4.961691
     62          1           0       15.142725   -1.704096   -5.444679
     63          1           0       13.336053    3.089216   -3.522869
     64          1           0       12.972135    4.732620   -1.203929
     65          1           0       14.889475    4.074311   -1.501702
     66          1           0       15.426226    3.273992   -3.005670
     67          1           0       15.118719    2.246252   -1.526442
     68          1           0       10.705938    5.237816   -2.114176
     69          1           0       11.089158    4.237966   -3.587279
     70          1           0       13.107221    6.046589   -3.134496
     71          1           0       11.663308    6.993467   -3.231983
     72          1           0       12.126442    5.973787   -4.637008
     73          1           0        8.606493    5.619007    1.140571
     74          1           0        9.638217    5.571510    2.510770
     75          1           0        7.799611    5.394102    2.630875
     76          1           0        5.613112    0.629920    2.101827
     77          1           0        8.816662   -0.757063    5.988573
     78          1           0        7.208268   -1.699266    5.630994
     79          1           0        7.315882   -0.248651    6.725190
     80         12           0      -10.433942    0.135682   -0.639335
     81          6           0       -7.999636   -1.753972    0.879606
     82          6           0       -9.625632    2.781882    1.597601
     83          6           0      -13.122683    1.918589   -1.650069
     84          6           0      -11.411302   -2.468723   -2.513497
     85          7           0       -8.971146    0.463380    1.054475
     86          6           0       -8.089943   -0.494204    1.479768
     87          6           0       -7.157496    0.057513    2.560551
     88          6           0       -7.867459    1.453071    2.881070
     89          6           0       -8.886470    1.585791    1.787378
     90          6           0       -8.432428    1.567561    4.344423
     91          6           0       -5.648046    0.240478    2.072841
     92          6           0       -4.464298   -0.156676    2.921604
     93          1           0       -4.447301    0.256865    4.350330
     94          7           0      -11.264428    2.123092   -0.153053
     95          6           0      -10.702746    3.078307    0.620106
     96          6           0      -11.389320    4.320276    0.495289
     97          6           0      -12.411638    4.110769   -0.483289
     98          6           0      -12.327248    2.642343   -0.742020
     99          6           0      -10.965887    5.462672    1.361115
    100          6           0      -13.486733    5.073851   -0.957181
    101          8           0      -14.478039    4.698792   -1.590997
    102          6           0      -13.380436    6.555230   -0.640245
    103          7           0      -12.164177   -0.274317   -1.811586
    104          6           0      -13.060649    0.677588   -2.182037
    105          6           0      -13.997033    0.145054   -3.265376
    106          6           0      -13.310191   -1.218488   -3.656247
    107          6           0      -12.221434   -1.335955   -2.607930
    108          6           0      -15.534008    0.054234   -3.031596
    109          6           0      -12.814085   -1.363857   -5.155299
    110          6           0      -11.391738   -1.005504   -5.530613
    111          7           0       -9.929693   -1.745102   -0.743895
    112          6           0      -10.281768   -2.718993   -1.643594
    113          6           0       -9.617109   -3.952266   -1.427974
    114          6           0       -8.664522   -3.615246   -0.471488
    115          6           0       -8.881839   -2.261414   -0.107479
    116          6           0       -9.717972   -5.321029   -2.088470
    117          6           0       -7.606806   -4.080087    0.314191
    118          8           0       -7.149863   -5.206919    0.370789
    119          6           0       -7.084778   -2.890337    1.299440
    120          6           0       -7.258386   -3.341172    2.674742
    121          8           0       -8.346946   -3.576470    3.235685
    122          8           0       -6.084631   -3.547498    3.328638
    123          6           0       -6.098816   -4.294095    4.591629
    124          1           0       -9.233453    3.545207    2.272318
    125          1           0      -13.816952    2.557603   -2.199334
    126          1           0      -11.446544   -3.190618   -3.331186
    127          1           0       -7.113223   -0.664678    3.376769
    128          1           0       -7.159480    2.280371    2.828862
    129          1           0       -7.939818    2.413300    4.822947
    130          1           0       -8.254806    0.585562    4.783204
    131          1           0       -9.482372    1.852585    4.417916
    132          1           0       -5.613390    1.316336    1.900392
    133          1           0       -5.522598   -0.114548    1.050488
    134          1           0       -3.536910    0.116729    2.418365
    135          1           0       -4.516443   -1.242145    2.998002
    136          1           0      -10.932078    6.320665    0.690687
    137          1           0       -9.948280    5.316833    1.724327
    138          1           0      -11.603041    5.680943    2.218821
    139          1           0      -12.377197    6.964574   -0.762406
    140          1           0      -13.891559    6.766068    0.300117
    141          1           0      -13.975451    7.034863   -1.418015
    142          1           0      -13.942269    0.915795   -4.034480
    143          1           0      -14.002854   -2.059125   -3.640870
    144          1           0      -15.840984   -0.987552   -2.940280
    145          1           0      -16.001407    0.482876   -3.917952
    146          1           0      -15.728593    0.632182   -2.128818
    147          1           0      -13.477280   -0.745906   -5.759087
    148          1           0      -12.934566   -2.396376   -5.483934
    149          1           0      -11.356448   -0.309398   -6.368973
    150          1           0      -10.775485   -1.869680   -5.782212
    151          1           0      -10.979363   -0.537415   -4.636760
    152          1           0      -10.445333   -5.271868   -2.899704
    153          1           0      -10.009017   -6.058452   -1.339979
    154          1           0       -8.737451   -5.586844   -2.482465
    155          1           0       -6.022619   -2.892503    1.052954
    156          1           0       -5.147692   -4.765250    4.839956
    157          1           0       -6.931114   -4.985487    4.719923
    158          1           0       -6.148252   -3.528415    5.365988
 ---------------------------------------------------------------------

 SCF Done:  E(RwB97XD) =  -4070.58061436     A.U. after   20 cycles

 Excitation energies and oscillator strengths:

 Excited State   1:      Singlet-A      1.6597 eV  747.04 nm  f=0.2810  <S**2>=0.000
     310 -> 316       -0.18048
     311 -> 314       -0.12745
     312 -> 313        0.67218
     310 <- 316       -0.11414
 This state for optimization and/or second-order correction.
 Total Energy, E(TD-HF/TD-DFT) =  -4070.51962280
 Copying the excited state density for this state as the 1-particle RhoCI density.

 Excited State   2:      Singlet-A      1.6693 eV  742.75 nm  f=0.4793  <S**2>=0.000
     309 -> 315        0.19849
     311 -> 314        0.66504
     312 -> 313        0.12837
     309 <- 315        0.11740

 Excited State   3:      Singlet-A      2.1339 eV  581.03 nm  f=0.1734  <S**2>=0.000
     310 -> 313        0.66024
     312 -> 316        0.24107

 Excited State   4:      Singlet-A      2.1896 eV  566.24 nm  f=0.0672  <S**2>=0.000
     309 -> 314        0.61421
     311 -> 315       -0.33142

 Excited State   5:      Singlet-A      3.2168 eV  385.43 nm  f=0.0164  <S**2>=0.000
     308 -> 314        0.61759
     308 -> 317       -0.11980
     311 -> 315        0.24533

 The electronic state is 1-A.
 Alpha  occ. eigenvalues --  -46.97147 -46.95284 -19.30067 -19.28998 -19.25092
 Alpha  occ. eigenvalues --  -19.23874 -19.23789 -19.23483 -19.23283 -19.22965
 Alpha  occ. eigenvalues --  -14.47394 -14.46616 -14.46541 -14.45958 -14.45467
 Alpha  occ. eigenvalues --  -14.44005 -14.43927 -14.43794 -10.43333 -10.42581
 Alpha  occ. eigenvalues --  -10.39220 -10.38936 -10.38364 -10.37552 -10.36465
 Alpha  occ. eigenvalues --  -10.36016 -10.35699 -10.35652 -10.35510 -10.35139
 Alpha  occ. eigenvalues --  -10.35053 -10.34901 -10.34722 -10.34549 -10.34253
 Alpha  occ. eigenvalues --  -10.33998 -10.33967 -10.33962 -10.33923 -10.33733
 Alpha  occ. eigenvalues --  -10.33415 -10.33285 -10.33117 -10.33018 -10.32942
 Alpha  occ. eigenvalues --  -10.32827 -10.32727 -10.32496 -10.32435 -10.32371
 Alpha  occ. eigenvalues --  -10.32351 -10.32301 -10.32298 -10.32189 -10.32164
 Alpha  occ. eigenvalues --  -10.32130 -10.31958 -10.31919 -10.31832 -10.31640
 Alpha  occ. eigenvalues --  -10.31616 -10.31446 -10.31445 -10.31416 -10.31224
 Alpha  occ. eigenvalues --  -10.30902 -10.30899 -10.30831 -10.30768 -10.30702
 Alpha  occ. eigenvalues --  -10.30653 -10.30560 -10.30538 -10.30492 -10.30160
 Alpha  occ. eigenvalues --  -10.30153 -10.30103 -10.30033 -10.29930 -10.29714
 Alpha  occ. eigenvalues --  -10.29707 -10.29447 -10.29309 -10.29085 -10.28719
 Alpha  occ. eigenvalues --  -10.28479  -3.23051  -3.21336  -1.96575  -1.96216
 Alpha  occ. eigenvalues --   -1.95970  -1.94908  -1.94422  -1.94350  -1.17820
 Alpha  occ. eigenvalues --   -1.16143  -1.12727  -1.11956  -1.11555  -1.11262
 Alpha  occ. eigenvalues --   -1.08612  -1.07824  -1.07238  -1.07160  -1.06538
 Alpha  occ. eigenvalues --   -1.06000  -1.05413  -1.05403  -1.05336  -1.03141
 Alpha  occ. eigenvalues --   -0.94931  -0.94413  -0.90945  -0.90866  -0.90797
 Alpha  occ. eigenvalues --   -0.90458  -0.89966  -0.89837  -0.89557  -0.89216
 Alpha  occ. eigenvalues --   -0.89032  -0.88934  -0.88201  -0.87911  -0.86973
 Alpha  occ. eigenvalues --   -0.86029  -0.85817  -0.85649  -0.85500  -0.84531
 Alpha  occ. eigenvalues --   -0.84380  -0.83606  -0.83167  -0.82934  -0.82116
 Alpha  occ. eigenvalues --   -0.81903  -0.80289  -0.80200  -0.79331  -0.79248
 Alpha  occ. eigenvalues --   -0.79002  -0.78838  -0.77977  -0.77821  -0.77282
 Alpha  occ. eigenvalues --   -0.77262  -0.75372  -0.74882  -0.73972  -0.73355
 Alpha  occ. eigenvalues --   -0.71411  -0.71152  -0.71041  -0.70606  -0.69879
 Alpha  occ. eigenvalues --   -0.69762  -0.69046  -0.68933  -0.67559  -0.67378
 Alpha  occ. eigenvalues --   -0.67341  -0.67052  -0.66944  -0.66576  -0.66086
 Alpha  occ. eigenvalues --   -0.66035  -0.64046  -0.63948  -0.62466  -0.62051
 Alpha  occ. eigenvalues --   -0.61866  -0.61631  -0.61312  -0.60959  -0.60886
 Alpha  occ. eigenvalues --   -0.60087  -0.59697  -0.59243  -0.59130  -0.59049
 Alpha  occ. eigenvalues --   -0.58728  -0.58078  -0.57644  -0.57144  -0.56838
 Alpha  occ. eigenvalues --   -0.56809  -0.56627  -0.56345  -0.55893  -0.55804
 Alpha  occ. eigenvalues --   -0.55735  -0.55525  -0.55285  -0.55038  -0.54913
 Alpha  occ. eigenvalues --   -0.54902  -0.54572  -0.54491  -0.54350  -0.53996
 Alpha  occ. eigenvalues --   -0.53956  -0.53820  -0.53730  -0.53469  -0.53230
 Alpha  occ. eigenvalues --   -0.53027  -0.52577  -0.52516  -0.52374  -0.51963
 Alpha  occ. eigenvalues --   -0.51874  -0.51845  -0.51642  -0.51555  -0.51299
 Alpha  occ. eigenvalues --   -0.51163  -0.50958  -0.50952  -0.50835  -0.50616
 Alpha  occ. eigenvalues --   -0.50554  -0.50519  -0.50389  -0.50325  -0.50142
 Alpha  occ. eigenvalues --   -0.50003  -0.49952  -0.49717  -0.49591  -0.49344
 Alpha  occ. eigenvalues --   -0.49287  -0.48940  -0.48711  -0.48647  -0.48510
 Alpha  occ. eigenvalues --   -0.48221  -0.48098  -0.47926  -0.47904  -0.47738
 Alpha  occ. eigenvalues --   -0.47632  -0.47374  -0.47062  -0.46957  -0.46741
 Alpha  occ. eigenvalues --   -0.46666  -0.46497  -0.46369  -0.46272  -0.46081
 Alpha  occ. eigenvalues --   -0.45782  -0.45708  -0.45668  -0.45617  -0.45413
 Alpha  occ. eigenvalues --   -0.45206  -0.45120  -0.45003  -0.44758  -0.44607
 Alpha  occ. eigenvalues --   -0.44443  -0.44311  -0.44090  -0.43983  -0.43966
 Alpha  occ. eigenvalues --   -0.43758  -0.43623  -0.43478  -0.43310  -0.43239
 Alpha  occ. eigenvalues --   -0.43039  -0.42831  -0.42308  -0.42224  -0.42163
 Alpha  occ. eigenvalues --   -0.41887  -0.41783  -0.41598  -0.41262  -0.41216
 Alpha  occ. eigenvalues --   -0.40829  -0.40266  -0.39991  -0.39866  -0.39667
 Alpha  occ. eigenvalues --   -0.39206  -0.39038  -0.38467  -0.38326  -0.37846
 Alpha  occ. eigenvalues --   -0.37469  -0.37406  -0.36605  -0.36381  -0.35992
 Alpha  occ. eigenvalues --   -0.35327  -0.35238  -0.34903  -0.33889  -0.33578
 Alpha  occ. eigenvalues --   -0.33373  -0.33256  -0.33101  -0.32872  -0.32283
 Alpha  occ. eigenvalues --   -0.32187  -0.32094  -0.30928  -0.26456  -0.25581
 Alpha  occ. eigenvalues --   -0.23323  -0.23110
 Alpha virt. eigenvalues --   -0.07299  -0.07191  -0.00856   0.00892   0.01823
 Alpha virt. eigenvalues --    0.02474   0.03589   0.04264   0.04720   0.05104
 Alpha virt. eigenvalues --    0.06766   0.06915   0.07068   0.08128   0.08728

 Mulliken charges:
               1
     1  Mg   0.966419
     2  C   -0.023694
     3  C   -0.063227
     4  C   -0.092166
     5  C   -0.101099
     6  N   -0.282727
     7  C   -0.034241
     8  C    0.018485
     9  C   -0.119689
    10  C   -0.008031
    11  C    0.015294
    12  C    0.017544
    13  C   -0.126044
    14  H    0.023279
    15  N   -0.499579
    16  C    0.163304
    17  C   -0.190122
    18  C   -0.055601
    19  C    0.215319
    20  C    0.097109
    21  C    0.017820
    22  O   -0.245604
    23  C    0.020077
    24  N   -0.384936
    25  C    0.048591
    26  C   -0.125746
    27  C   -0.090075
    28  C    0.045170
    29  C    0.037748
    30  C   -0.003795
    31  C   -0.042754
    32  N   -0.423397
    33  C    0.155304
    34  C   -0.159739
    35  C   -0.021166
    36  C    0.158953
    37  C    0.093662
    38  C    0.074328
    39  O   -0.216941
    40  C   -0.098682
    41  C    0.286635
    42  O   -0.256888
    43  O   -0.417792
    44  C    0.139080
    45  H   -0.001027
    46  H   -0.023695
    47  H   -0.002021
    48  H    0.034610
    49  H    0.044485
    50  H    0.048882
    51  H    0.036646
    52  H    0.049400
    53  H    0.048595
    54  H    0.043549
    55  H    0.056869
    56  H    0.052569
    57  H    0.068339
    58  H    0.069462
    59  H    0.031012
    60  H    0.075460
    61  H    0.063989
    62  H    0.054930
    63  H    0.035912
    64  H    0.019944
    65  H    0.037853
    66  H    0.042288
    67  H    0.042286
    68  H    0.028813
    69  H    0.036358
    70  H    0.015485
    71  H    0.040090
    72  H    0.050264
    73  H    0.033945
    74  H    0.047843
    75  H    0.062514
    76  H    0.071729
    77  H    0.050846
    78  H    0.068949
    79  H    0.052441
    80  Mg   0.974581
    81  C   -0.004446
    82  C   -0.064606
    83  C   -0.065708
    84  C   -0.075252
    85  N   -0.330651
    86  C    0.000778
    87  C   -0.084397
    88  C   -0.117871
    89  C    0.051344
    90  C    0.025187
    91  C    0.010675
    92  C   -0.102554
    93  H    0.033898
    94  N   -0.356571
    95  C    0.128919
    96  C   -0.163687
    97  C   -0.075768
    98  C    0.100065
    99  C    0.082101
   100  C    0.043178
   101  O   -0.247187
   102  C   -0.016939
   103  N   -0.351530
   104  C    0.050131
   105  C   -0.080521
   106  C   -0.041324
   107  C    0.061367
   108  C    0.035338
   109  C   -0.057911
   110  C   -0.043017
   111  N   -0.478535
   112  C    0.099548
   113  C   -0.189293
   114  C    0.040944
   115  C    0.138157
   116  C    0.096904
   117  C    0.037655
   118  O   -0.208074
   119  C   -0.055444
   120  C    0.260051
   121  O   -0.281619
   122  O   -0.359325
   123  C    0.146558
   124  H   -0.010510
   125  H    0.016996
   126  H   -0.000765
   127  H    0.049157
   128  H    0.043274
   129  H    0.032131
   130  H    0.050504
   131  H    0.040119
   132  H    0.012716
   133  H    0.031909
   134  H    0.057477
   135  H    0.053961
   136  H    0.030520
   137  H    0.037219
   138  H    0.063455
   139  H    0.053849
   140  H    0.071380
   141  H    0.050128
   142  H    0.036166
   143  H    0.036627
   144  H    0.036329
   145  H    0.040091
   146  H    0.051407
   147  H    0.029432
   148  H    0.029120
   149  H    0.038215
   150  H    0.037164
   151  H    0.036182
   152  H    0.026148
   153  H    0.066650
   154  H    0.060822
   155  H    0.061171
   156  H    0.053831
   157  H    0.074955
   158  H    0.037017
 Sum of Mulliken charges =  -0.00000

 Dipole moment (field-independent basis, Debye):
    X=              7.5048    Y=              4.1136    Z=             -2.8245  Tot=              9.0123
 Quadrupole moment (field-independent basis, Debye-Ang):
   XX=           -475.9281   YY=           -500.5130   ZZ=           -498.5891
   XY=              6.3755   XZ=             22.4142   YZ=            -12.1929

 Normal termination of Gaussian 16 at Mon Sep 20 08:16:17 2021.
