 Gaussian 16, Revision A.03,
 Gaussian 16:  ES64L-G16RevA.03 25-Dec-2016

 --------------------------------
 #p wB97XD/Def2SVP td=(nstates=5)
 --------------------------------

 --------------------------------
 TDDFT excited states in gaussian
 --------------------------------
 Symbolic Z-matrix:
 Charge =  0 Multiplicity = 1

                         Standard orientation:
 ---------------------------------------------------------------------
 Center     Atomic      Atomic             Coordinates (Angstroms)
 Number     Number       Type             X           Y           Z
 ---------------------------------------------------------------------
      1         12           0       21.521579    0.822801   -0.251301
      2          6           0       22.783065   -2.348902    0.826273
      3          6           0       18.889983   -0.858444   -1.626504
      4          6           0       20.625027    3.549231   -1.600153
      5          6           0       24.737895    2.088063    0.196009
      6          7           0       21.011994   -1.330293   -0.323096
      7          6           0       21.548030   -2.437789    0.180183
      8          6           0       20.637034   -3.691849    0.022727
      9          6           0       19.764362   -3.214211   -1.223187
     10          6           0       19.863943   -1.711613   -1.027724
     11          6           0       20.378548   -3.575882   -2.571694
     12          6           0       19.744935   -3.940939    1.285202
     13          6           0       19.072271   -5.315272    1.349103
     14          1           0       18.912357   -5.957087    2.645193
     15          7           0       19.779352    1.365651   -1.008141
     16          6           0       18.822375    0.546524   -1.506652
     17          6           0       17.719686    1.428267   -1.946294
     18          6           0       18.192073    2.836479   -1.837274
     19          6           0       19.577824    2.636520   -1.498028
     20          6           0       16.373741    0.918189   -2.361028
     21          6           0       17.506376    4.153298   -2.021498
     22          8           0       18.154916    5.251777   -2.107029
     23          6           0       16.042460    4.113754   -2.190103
     24          7           0       22.574236    2.519746   -0.859518
     25          6           0       21.937596    3.583810   -1.360955
     26          6           0       22.850420    4.769996   -1.459216
     27          6           0       24.189006    4.362634   -0.689803
     28          6           0       23.821248    2.900952   -0.334122
     29          6           0       23.199150    5.230117   -2.881427
     30          6           0       24.659711    5.302603    0.448315
     31          6           0       23.677889    5.248917    1.597332
     32          7           0       23.395614    0.087056    0.559696
     33          6           0       24.614562    0.777333    0.625718
     34          6           0       25.617387   -0.166324    1.152897
     35          6           0       24.911203   -1.352569    1.342559
     36          6           0       23.559350   -1.169577    0.933535
     37          6           0       27.001082    0.106826    1.340549
     38          6           0       24.989977   -2.739228    1.772476
     39          8           0       25.855291   -3.433121    2.308422
     40          6           0       23.645002   -3.474695    1.341248
     41          6           0       23.150258   -4.251519    2.530820
     42          8           0       22.746002   -3.664412    3.555148
     43          8           0       23.007735   -5.541813    2.191159
     44          6           0       22.491499   -6.363149    3.318572
     45          1           0       18.145944   -1.294939   -2.295696
     46          1           0       20.333535    4.538952   -1.957813
     47          1           0       25.742777    2.436284    0.441787
     48          1           0       21.168017   -4.611097   -0.225193
     49          1           0       18.727225   -3.538989   -1.142018
     50          1           0       21.380271   -3.989286   -2.455205
     51          1           0       20.414799   -2.642977   -3.134603
     52          1           0       19.719030   -4.238747   -3.132429
     53          1           0       18.861726   -3.304368    1.232472
     54          1           0       20.315860   -3.776117    2.199645
     55          1           0       19.512409   -6.008204    0.631445
     56          1           0       18.038738   -5.205273    1.020606
     57          1           0       16.379792   -0.162421   -2.498107
     58          1           0       16.174674    1.317037   -3.355513
     59          1           0       15.586796    1.231701   -1.674908
     60          1           0       15.796762    3.504939   -3.060463
     61          1           0       15.714957    5.152380   -2.219201
     62          1           0       15.601379    3.610227   -1.329373
     63          1           0       22.411859    5.642032   -0.975848
     64          1           0       25.046250    4.308075   -1.361242
     65          1           0       22.945678    6.271934   -3.079096
     66          1           0       22.696551    4.565386   -3.583438
     67          1           0       24.242929    5.093513   -3.162997
     68          1           0       24.689617    6.334433    0.099921
     69          1           0       25.649383    5.052969    0.831045
     70          1           0       22.907601    5.956459    1.292585
     71          1           0       24.157681    5.568786    2.522910
     72          1           0       23.207757    4.268293    1.673751
     73          1           0       27.267216   -0.317488    2.308588
     74          1           0       27.201166    1.177605    1.308887
     75          1           0       27.428749   -0.423220    0.489663
     76          1           0       23.897702   -4.124702    0.504136
     77          1           0       23.201554   -7.175188    3.475568
     78          1           0       21.465863   -6.630130    3.063236
     79          1           0       22.498250   -5.890947    4.301587
     80         12           0      -22.464046   -0.261504    0.272036
     81          6           0      -19.111870   -1.089060    0.358608
     82          6           0      -21.994733    1.542813    3.165911
     83          6           0      -25.615190    1.047132   -0.124156
     84          6           0      -22.825577   -1.993826   -2.680852
     85          7           0      -20.730267    0.336679    1.485218
     86          6           0      -19.466540   -0.202642    1.346614
     87          6           0      -18.516012    0.288171    2.435380
     88          6           0      -19.535445    0.842273    3.499266
     89          6           0      -20.800801    0.954890    2.661543
     90          6           0      -19.681615    0.032096    4.866188
     91          6           0      -17.405564    1.291391    1.987721
     92          6           0      -16.015814    1.015121    2.521417
     93          1           0      -15.572758    2.059042    3.534697
     94          7           0      -23.588863    1.099586    1.367586
     95          6           0      -23.243429    1.696214    2.514059
     96          6           0      -24.344228    2.487572    3.035802
     97          6           0      -25.429262    2.425398    2.177433
     98          6           0      -24.909886    1.543650    1.045572
     99          6           0      -24.217333    3.368823    4.368229
    100          6           0      -26.845493    3.056864    2.396590
    101          8           0      -27.035318    3.778274    3.416465
    102          6           0      -27.945023    2.874497    1.421708
    103          7           0      -23.984220   -0.250002   -1.367333
    104          6           0      -25.209335    0.195849   -1.210201
    105          6           0      -26.173801   -0.361079   -2.236394
    106          6           0      -25.336304   -1.293732   -3.175721
    107          6           0      -23.961783   -1.268806   -2.350411
    108          6           0      -27.586650   -0.857926   -1.792313
    109          6           0      -25.119741   -0.921551   -4.671197
    110          6           0      -24.667512   -2.096308   -5.513708
    111          7           0      -21.201214   -1.340300   -0.957425
    112          6           0      -21.507051   -2.085007   -2.119981
    113          6           0      -20.324313   -2.805628   -2.505071
    114          6           0      -19.334292   -2.485906   -1.544158
    115          6           0      -19.938654   -1.572168   -0.685200
    116          6           0      -20.231759   -3.897302   -3.560775
    117          6           0      -18.032553   -2.768463   -1.190960
    118          8           0      -17.124435   -3.380894   -1.683216
    119          6           0      -17.750171   -1.737094    0.021198
    120          6           0      -16.956725   -0.608507   -0.635525
    121          8           0      -17.426721    0.300888   -1.291790
    122          8           0      -15.620962   -0.843032   -0.351798
    123          6           0      -14.666892    0.064574   -0.980799
    124          1           0      -21.963812    1.961467    4.173832
    125          1           0      -26.611734    1.489395   -0.180170
    126          1           0      -22.827178   -2.690326   -3.521870
    127          1           0      -18.051467   -0.590608    2.881706
    128          1           0      -19.285452    1.893175    3.649382
    129          1           0      -20.680560    0.326581    5.187699
    130          1           0      -19.047449    0.398071    5.674033
    131          1           0      -19.563439   -1.050044    4.812141
    132          1           0      -17.769330    2.246622    2.366827
    133          1           0      -17.366117    1.544699    0.928498
    134          1           0      -15.339872    0.993778    1.666274
    135          1           0      -15.947669    0.054034    3.031473
    136          1           0      -23.233828    3.359323    4.839936
    137          1           0      -24.948699    3.047186    5.110436
    138          1           0      -24.322569    4.437362    4.185661
    139          1           0      -28.168103    1.812932    1.319634
    140          1           0      -27.761164    3.427420    0.500433
    141          1           0      -28.828992    3.214586    1.959760
    142          1           0      -26.494059    0.338726   -3.008555
    143          1           0      -25.575154   -2.348478   -3.037437
    144          1           0      -27.722006   -0.496397   -0.772029
    145          1           0      -27.741782   -1.928447   -1.931400
    146          1           0      -28.411864   -0.421065   -2.354881
    147          1           0      -24.423943   -0.082636   -4.673521
    148          1           0      -26.078494   -0.508456   -4.984469
    149          1           0      -25.061509   -1.948266   -6.519479
    150          1           0      -25.010936   -3.074185   -5.174117
    151          1           0      -23.585706   -2.047262   -5.638034
    152          1           0      -19.290472   -4.446802   -3.546316
    153          1           0      -20.400990   -3.431626   -4.530790
    154          1           0      -21.025253   -4.634519   -3.437872
    155          1           0      -17.294338   -2.241000    0.874043
    156          1           0      -14.695032   -0.071581   -2.062022
    157          1           0      -13.661367   -0.063706   -0.581554
    158          1           0      -14.980359    1.094156   -0.810489
 ---------------------------------------------------------------------

 SCF Done:  E(RwB97XD) =  -4070.61491328     A.U. after   20 cycles

 Excitation energies and oscillator strengths:

 Excited State   1:      Singlet-A      1.6216 eV  764.57 nm  f=0.3884  <S**2>=0.000
     310 -> 316        0.18180
     312 -> 313        0.68329
     310 <- 316        0.11454
 This state for optimization and/or second-order correction.
 Total Energy, E(TD-HF/TD-DFT) =  -4070.55531997
 Copying the excited state density for this state as the 1-particle RhoCI density.

 Excited State   2:      Singlet-A      1.8715 eV  662.50 nm  f=0.3740  <S**2>=0.000
     309 -> 315        0.14190
     311 -> 314        0.68597

 Excited State   3:      Singlet-A      2.1386 eV  579.75 nm  f=0.0954  <S**2>=0.000
     310 -> 313        0.63834
     312 -> 316       -0.28198

 Excited State   4:      Singlet-A      2.2256 eV  557.09 nm  f=0.1260  <S**2>=0.000
     309 -> 314        0.64385
     311 -> 315       -0.24651
     311 -> 318        0.10801

 Excited State   5:      Singlet-A      3.3014 eV  375.56 nm  f=0.0076  <S**2>=0.000
     306 -> 313       -0.44009
     307 -> 313        0.49012
     312 -> 316       -0.16915

 The electronic state is 1-A.
 Alpha  occ. eigenvalues --  -46.95776 -46.94087 -19.31460 -19.29717 -19.25369
 Alpha  occ. eigenvalues --  -19.24759 -19.23952 -19.23846 -19.23185 -19.22679
 Alpha  occ. eigenvalues --  -14.47005 -14.46941 -14.46660 -14.46013 -14.45247
 Alpha  occ. eigenvalues --  -14.43982 -14.43119 -14.43040 -10.42919 -10.42898
 Alpha  occ. eigenvalues --  -10.41126 -10.39391 -10.38372 -10.37372 -10.37319
 Alpha  occ. eigenvalues --  -10.36553 -10.35858 -10.35413 -10.35393 -10.35278
 Alpha  occ. eigenvalues --  -10.34881 -10.34868 -10.34571 -10.34506 -10.34376
 Alpha  occ. eigenvalues --  -10.34157 -10.34109 -10.33857 -10.33798 -10.33789
 Alpha  occ. eigenvalues --  -10.33414 -10.33205 -10.32774 -10.32519 -10.32439
 Alpha  occ. eigenvalues --  -10.32425 -10.32328 -10.32292 -10.32271 -10.32237
 Alpha  occ. eigenvalues --  -10.32144 -10.32106 -10.31829 -10.31750 -10.31671
 Alpha  occ. eigenvalues --  -10.31595 -10.31512 -10.31472 -10.31437 -10.31386
 Alpha  occ. eigenvalues --  -10.31384 -10.31209 -10.31150 -10.31134 -10.31085
 Alpha  occ. eigenvalues --  -10.31063 -10.30972 -10.30848 -10.30810 -10.30807
 Alpha  occ. eigenvalues --  -10.30793 -10.30593 -10.30518 -10.30234 -10.30046
 Alpha  occ. eigenvalues --  -10.30031 -10.29954 -10.29910 -10.29657 -10.29641
 Alpha  occ. eigenvalues --  -10.29238 -10.29111 -10.28828 -10.28767 -10.28440
 Alpha  occ. eigenvalues --  -10.27020  -3.21672  -3.20246  -1.95241  -1.94796
 Alpha  occ. eigenvalues --   -1.94642  -1.93823  -1.93389  -1.93227  -1.18783
 Alpha  occ. eigenvalues --   -1.17582  -1.11962  -1.11466  -1.10813  -1.10060
 Alpha  occ. eigenvalues --   -1.09393  -1.08796  -1.06634  -1.06529  -1.05898
 Alpha  occ. eigenvalues --   -1.05730  -1.05308  -1.05218  -1.04568  -1.04397
 Alpha  occ. eigenvalues --   -0.93887  -0.93495  -0.91372  -0.91057  -0.91008
 Alpha  occ. eigenvalues --   -0.90380  -0.90131  -0.89978  -0.89750  -0.89550
 Alpha  occ. eigenvalues --   -0.89189  -0.89030  -0.88726  -0.87743  -0.86835
 Alpha  occ. eigenvalues --   -0.86432  -0.85775  -0.85570  -0.85154  -0.84855
 Alpha  occ. eigenvalues --   -0.84520  -0.84019  -0.83481  -0.82645  -0.82513
 Alpha  occ. eigenvalues --   -0.82181  -0.80730  -0.79617  -0.79126  -0.79100
 Alpha  occ. eigenvalues --   -0.78807  -0.78669  -0.77814  -0.77290  -0.77116
 Alpha  occ. eigenvalues --   -0.76772  -0.74711  -0.74381  -0.73704  -0.73589
 Alpha  occ. eigenvalues --   -0.71758  -0.71688  -0.71126  -0.70789  -0.69874
 Alpha  occ. eigenvalues --   -0.69605  -0.69396  -0.69131  -0.67575  -0.67420
 Alpha  occ. eigenvalues --   -0.67178  -0.66797  -0.66726  -0.66552  -0.66184
 Alpha  occ. eigenvalues --   -0.66057  -0.64239  -0.63697  -0.62394  -0.62059
 Alpha  occ. eigenvalues --   -0.61716  -0.61452  -0.61062  -0.60930  -0.60495
 Alpha  occ. eigenvalues --   -0.60452  -0.59789  -0.59505  -0.59351  -0.59228
 Alpha  occ. eigenvalues --   -0.58489  -0.58252  -0.57817  -0.57452  -0.57433
 Alpha  occ. eigenvalues --   -0.57221  -0.56995  -0.56426  -0.56113  -0.55940
 Alpha  occ. eigenvalues --   -0.55771  -0.55690  -0.55301  -0.55201  -0.55138
 Alpha  occ. eigenvalues --   -0.55121  -0.54834  -0.54723  -0.54637  -0.54282
 Alpha  occ. eigenvalues --   -0.53972  -0.53794  -0.53521  -0.53487  -0.53089
 Alpha  occ. eigenvalues --   -0.52998  -0.52696  -0.52521  -0.52492  -0.52157
 Alpha  occ. eigenvalues --   -0.51986  -0.51901  -0.51837  -0.51768  -0.51431
 Alpha  occ. eigenvalues --   -0.51406  -0.51129  -0.51008  -0.50974  -0.50639
 Alpha  occ. eigenvalues --   -0.50472  -0.50428  -0.50380  -0.50343  -0.50150
 Alpha  occ. eigenvalues --   -0.49578  -0.49545  -0.49306  -0.49200  -0.49191
 Alpha  occ. eigenvalues --   -0.48655  -0.48528  -0.48433  -0.48272  -0.48144
 Alpha  occ. eigenvalues --   -0.48062  -0.48062  -0.47943  -0.47694  -0.47152
 Alpha  occ. eigenvalues --   -0.47135  -0.47064  -0.46988  -0.46823  -0.46627
 Alpha  occ. eigenvalues --   -0.46461  -0.46372  -0.46281  -0.46010  -0.45954
 Alpha  occ. eigenvalues --   -0.45898  -0.45875  -0.45532  -0.45337  -0.45335
 Alpha  occ. eigenvalues --   -0.45283  -0.45108  -0.44921  -0.44793  -0.44617
 Alpha  occ. eigenvalues --   -0.44522  -0.44479  -0.44471  -0.44113  -0.44003
 Alpha  occ. eigenvalues --   -0.43875  -0.43670  -0.43528  -0.43386  -0.42988
 Alpha  occ. eigenvalues --   -0.42819  -0.42699  -0.42673  -0.42412  -0.42357
 Alpha  occ. eigenvalues --   -0.42104  -0.42080  -0.41791  -0.41344  -0.41251
 Alpha  occ. eigenvalues --   -0.40910  -0.40321  -0.40027  -0.39647  -0.39317
 Alpha  occ. eigenvalues --   -0.39299  -0.39148  -0.38671  -0.38621  -0.38343
 Alpha  occ. eigenvalues --   -0.38148  -0.37301  -0.36410  -0.36244  -0.36171
 Alpha  occ. eigenvalues --   -0.35741  -0.35359  -0.35305  -0.34499  -0.34150
 Alpha  occ. eigenvalues --   -0.33316  -0.33146  -0.33090  -0.31964  -0.31627
 Alpha  occ. eigenvalues --   -0.31579  -0.31441  -0.31182  -0.26075  -0.25966
 Alpha  occ. eigenvalues --   -0.23374  -0.22884
 Alpha virt. eigenvalues --   -0.07067  -0.06760   0.00128   0.00218   0.02024
 Alpha virt. eigenvalues --    0.02158   0.04071   0.04350   0.04909   0.06304
 Alpha virt. eigenvalues --    0.07141   0.07295   0.07596   0.08159   0.08891

 Mulliken charges:
               1
     1  Mg   0.978447
     2  C   -0.019935
     3  C   -0.101312
     4  C   -0.061391
     5  C   -0.071058
     6  N   -0.323302
     7  C   -0.008538
     8  C   -0.058152
     9  C   -0.138123
    10  C    0.061871
    11  C    0.058280
    12  C    0.014088
    13  C   -0.126949
    14  H    0.052381
    15  N   -0.518421
    16  C    0.183540
    17  C   -0.195912
    18  C   -0.037068
    19  C    0.166740
    20  C    0.060738
    21  C    0.056676
    22  O   -0.280047
    23  C    0.001790
    24  N   -0.410208
    25  C    0.066137
    26  C   -0.084824
    27  C   -0.063802
    28  C    0.089659
    29  C    0.031874
    30  C   -0.016731
    31  C   -0.058128
    32  N   -0.398666
    33  C    0.097432
    34  C   -0.188009
    35  C   -0.040074
    36  C    0.126177
    37  C    0.081461
    38  C    0.128847
    39  O   -0.224773
    40  C   -0.076920
    41  C    0.275825
    42  O   -0.284601
    43  O   -0.335600
    44  C    0.120620
    45  H    0.007923
    46  H    0.010683
    47  H   -0.017367
    48  H    0.026010
    49  H    0.022648
    50  H    0.047098
    51  H    0.037795
    52  H    0.040121
    53  H    0.035388
    54  H    0.067675
    55  H    0.038945
    56  H    0.040648
    57  H    0.029682
    58  H    0.048997
    59  H    0.062178
    60  H    0.057805
    61  H    0.061842
    62  H    0.053043
    63  H    0.042913
    64  H    0.035647
    65  H    0.045311
    66  H    0.034337
    67  H    0.025696
    68  H    0.032599
    69  H    0.029394
    70  H    0.029217
    71  H    0.042180
    72  H    0.049668
    73  H    0.070879
    74  H    0.031394
    75  H    0.069388
    76  H    0.065860
    77  H    0.061262
    78  H    0.062827
    79  H    0.070274
    80  Mg   0.966492
    81  C   -0.041608
    82  C   -0.128742
    83  C   -0.109119
    84  C   -0.042156
    85  N   -0.333019
    86  C   -0.011368
    87  C   -0.074792
    88  C   -0.075922
    89  C    0.063483
    90  C    0.034887
    91  C    0.028281
    92  C   -0.107115
    93  H    0.024747
    94  N   -0.466171
    95  C    0.186054
    96  C   -0.152975
    97  C   -0.065463
    98  C    0.142392
    99  C    0.072210
   100  C    0.052380
   101  O   -0.253945
   102  C    0.003606
   103  N   -0.330950
   104  C    0.128613
   105  C   -0.083480
   106  C   -0.091015
   107  C    0.027304
   108  C    0.020528
   109  C    0.009916
   110  C   -0.034520
   111  N   -0.438343
   112  C    0.046326
   113  C   -0.148251
   114  C    0.002683
   115  C    0.157775
   116  C    0.059532
   117  C    0.057931
   118  O   -0.195222
   119  C   -0.117685
   120  C    0.296864
   121  O   -0.238827
   122  O   -0.364162
   123  C    0.141305
   124  H   -0.003509
   125  H   -0.019440
   126  H   -0.016842
   127  H    0.023276
   128  H    0.032780
   129  H    0.025052
   130  H    0.044686
   131  H    0.053881
   132  H    0.020260
   133  H    0.052788
   134  H    0.048215
   135  H    0.048673
   136  H    0.019579
   137  H    0.064696
   138  H    0.059498
   139  H    0.061895
   140  H    0.091282
   141  H    0.055098
   142  H    0.038412
   143  H    0.031589
   144  H    0.030253
   145  H    0.041611
   146  H    0.029175
   147  H    0.042092
   148  H    0.025829
   149  H    0.032456
   150  H    0.043069
   151  H    0.051657
   152  H    0.058530
   153  H    0.038056
   154  H    0.040762
   155  H    0.054809
   156  H    0.058125
   157  H    0.060880
   158  H    0.042370
 Sum of Mulliken charges =  -0.00000

 Dipole moment (field-independent basis, Debye):
    X=             -7.8429    Y=             -0.5219    Z=             -2.3109  Tot=              8.1929
 Quadrupole moment (field-independent basis, Debye-Ang):
   XX=           -442.3216   YY=           -516.8378   ZZ=           -507.0653
   XY=             35.9296   XZ=            -59.9735   YZ=              4.5461

 Normal termination of Gaussian 16 at Sun Sep 19 09:07:52 2021.
