 Gaussian 16, Revision A.03,
 Gaussian 16:  ES64L-G16RevA.03 25-Dec-2016

 --------------------------------
 #p wB97XD/Def2SVP td=(nstates=5)
 --------------------------------

 --------------------------------
 TDDFT excited states in gaussian
 --------------------------------
 Symbolic Z-matrix:
 Charge =  0 Multiplicity = 1

                         Standard orientation:
 ---------------------------------------------------------------------
 Center     Atomic      Atomic             Coordinates (Angstroms)
 Number     Number       Type             X           Y           Z
 ---------------------------------------------------------------------
      1         12           0       -4.890387   -0.654754    0.115303
      2          6           0       -3.168949    2.272152    0.955259
      3          6           0       -7.672923    1.051462   -0.225384
      4          6           0       -6.644250   -3.608345    0.051535
      5          6           0       -2.031840   -2.538588    0.978664
      6          7           0       -5.286418    1.410775    0.249766
      7          6           0       -4.466458    2.479648    0.537684
      8          6           0       -5.169167    3.810609    0.303264
      9          6           0       -6.656179    3.355970    0.150848
     10          6           0       -6.532233    1.886464   -0.055474
     11          6           0       -7.677806    3.775981    1.185443
     12          6           0       -4.589377    4.662046   -0.871103
     13          6           0       -5.273363    6.014972   -1.095878
     14          1           0       -4.353855    7.225839   -1.157539
     15          7           0       -6.996437   -1.220859   -0.009178
     16          6           0       -7.969699   -0.330449   -0.293166
     17          6           0       -9.198156   -1.034542   -0.536286
     18          6           0       -8.932301   -2.401980   -0.349316
     19          6           0       -7.470577   -2.450606   -0.073896
     20          6           0      -10.511642   -0.353558   -0.858131
     21          6           0       -9.836633   -3.581273   -0.499029
     22          8           0       -9.569839   -4.770087   -0.177472
     23          6           0      -11.213085   -3.414072   -1.131008
     24          7           0       -4.413336   -2.725446    0.488414
     25          6           0       -5.327527   -3.723040    0.461846
     26          6           0       -4.571431   -5.155440    0.561217
     27          6           0       -3.068381   -4.741749    0.383211
     28          6           0       -3.135425   -3.257816    0.552386
     29          6           0       -4.925242   -5.829333    1.944336
     30          6           0       -2.585387   -5.009815   -1.088989
     31          6           0       -3.400909   -4.465293   -2.251390
     32          7           0       -2.896365   -0.249558    0.789273
     33          6           0       -1.896002   -1.137324    1.076012
     34          6           0       -0.790011   -0.392047    1.464112
     35          6           0       -1.172157    0.980263    1.479769
     36          6           0       -2.475475    1.016702    1.058764
     37          6           0        0.544536   -0.865356    1.921598
     38          6           0       -0.782620    2.380513    1.761806
     39          8           0        0.233021    2.900511    2.209495
     40          6           0       -2.060631    3.286503    1.325467
     41          6           0       -2.358372    4.305151    2.367332
     42          8           0       -2.229291    4.123711    3.614472
     43          8           0       -2.603904    5.444244    1.734107
     44          6           0       -2.458186    6.625215    2.563413
     45          1           0       -8.600203    1.577208   -0.462953
     46          1           0       -7.180676   -4.558734   -0.001335
     47          1           0       -1.133462   -3.143432    1.111356
     48          1           0       -4.931733    4.393348    1.193491
     49          1           0       -7.113409    3.702161   -0.776716
     50          1           0       -7.423138    4.632852    1.809123
     51          1           0       -7.920088    2.918975    1.814460
     52          1           0       -8.635061    3.855489    0.669852
     53          1           0       -4.606892    4.076758   -1.790826
     54          1           0       -3.531709    4.846460   -0.685727
     55          1           0       -5.767380    6.364893   -0.189628
     56          1           0       -5.961087    5.976032   -1.941154
     57          1           0      -10.497669    0.732892   -0.772154
     58          1           0      -11.326974   -0.541142   -0.159882
     59          1           0      -10.888903   -0.586742   -1.854298
     60          1           0      -11.829387   -2.839999   -0.439673
     61          1           0      -11.780556   -4.344409   -1.124901
     62          1           0      -11.174754   -3.036442   -2.153425
     63          1           0       -4.945556   -5.820173   -0.217427
     64          1           0       -2.547012   -5.221024    1.211781
     65          1           0       -5.767145   -5.360563    2.454102
     66          1           0       -4.115225   -5.803416    2.673422
     67          1           0       -5.250455   -6.864759    1.853961
     68          1           0       -2.593350   -6.099698   -1.071714
     69          1           0       -1.562566   -4.696998   -1.296764
     70          1           0       -4.369290   -4.111539   -1.896909
     71          1           0       -3.500454   -5.114524   -3.120591
     72          1           0       -2.762299   -3.665667   -2.626808
     73          1           0        1.043497   -1.542035    1.227426
     74          1           0        0.344207   -1.432151    2.830375
     75          1           0        1.214741   -0.045266    2.177190
     76          1           0       -1.711047    3.808458    0.435080
     77          1           0       -1.928643    7.404302    2.013618
     78          1           0       -1.887921    6.502008    3.483819
     79          1           0       -3.471992    6.965092    2.777534
     80         12           0        5.182690   -0.646413   -0.236701
     81          6           0        3.072037    2.159543   -0.823073
     82          6           0        7.819976    1.525806    0.149014
     83          6           0        6.997316   -3.369835    0.220452
     84          6           0        2.462337   -2.807415   -1.158152
     85          7           0        5.454135    1.659282   -0.394635
     86          6           0        4.395549    2.537007   -0.540608
     87          6           0        5.004171    3.975965   -0.417938
     88          6           0        6.588074    3.775786   -0.138349
     89          6           0        6.624721    2.244148   -0.143712
     90          6           0        7.545991    4.492485   -1.112628
     91          6           0        4.271894    4.987691    0.557239
     92          6           0        3.777724    6.256919   -0.073718
     93          1           0        4.409155    6.887429   -1.286793
     94          7           0        7.204165   -0.891970    0.278883
     95          6           0        8.101755    0.124454    0.373802
     96          6           0        9.309867   -0.464493    0.891645
     97          6           0        9.136564   -1.863752    0.823372
     98          6           0        7.727794   -2.151027    0.398896
     99          6           0       10.521052    0.425282    1.218436
    100          6           0       10.190127   -2.915132    0.998817
    101          8           0        9.946054   -4.128570    0.798201
    102          6           0       11.569983   -2.508731    1.362517
    103          7           0        4.737964   -2.804811   -0.522521
    104          6           0        5.624267   -3.678163   -0.191830
    105          6           0        5.179109   -5.235585   -0.250475
    106          6           0        3.728985   -5.029492   -0.713961
    107          6           0        3.611909   -3.527763   -0.806079
    108          6           0        6.104949   -6.010691   -1.258031
    109          6           0        2.602434   -5.648219    0.186227
    110          6           0        2.334251   -4.946840    1.538955
    111          7           0        3.286937   -0.390428   -0.958912
    112          6           0        2.332272   -1.375985   -1.303743
    113          6           0        1.074905   -0.688679   -1.628344
    114          6           0        1.319336    0.693431   -1.444262
    115          6           0        2.675888    0.825188   -0.992465
    116          6           0       -0.255231   -1.385628   -2.043802
    117          6           0        0.700310    1.909455   -1.512299
    118          8           0       -0.413628    2.240586   -1.863986
    119          6           0        1.755626    2.957398   -1.060854
    120          6           0        1.858188    3.972776   -2.083406
    121          8           0        2.611575    3.915506   -3.061824
    122          8           0        0.822448    4.902152   -1.930588
    123          6           0        0.715013    5.884470   -3.037654
    124          1           0        8.761884    2.069195    0.045293
    125          1           0        7.646629   -4.247885    0.214312
    126          1           0        1.602668   -3.417792   -1.442346
    127          1           0        4.734053    4.338905   -1.408766
    128          1           0        6.832989    4.224425    0.823350
    129          1           0        8.235014    5.140047   -0.568891
    130          1           0        7.088387    5.070873   -1.915049
    131          1           0        8.096770    3.676905   -1.581219
    132          1           0        4.925428    5.239469    1.392695
    133          1           0        3.385432    4.457446    0.905359
    134          1           0        4.047137    7.062495    0.610264
    135          1           0        2.705285    6.152403   -0.234348
    136          1           0       10.245412    1.475899    1.312547
    137          1           0       11.275465    0.317880    0.440117
    138          1           0       10.887387    0.043221    2.170747
    139          1           0       11.499612   -1.958242    2.300679
    140          1           0       11.991693   -1.826231    0.623648
    141          1           0       12.229503   -3.374981    1.396058
    142          1           0        5.209820   -5.694739    0.737930
    143          1           0        3.636872   -5.322052   -1.760168
    144          1           0        6.431689   -5.302721   -2.019638
    145          1           0        5.501696   -6.770971   -1.755430
    146          1           0        6.993085   -6.503714   -0.861913
    147          1           0        2.745304   -6.725282    0.267621
    148          1           0        1.677803   -5.624059   -0.389615
    149          1           0        3.188550   -4.479921    2.027976
    150          1           0        1.818946   -5.654254    2.189652
    151          1           0        1.588506   -4.184337    1.314650
    152          1           0       -1.117676   -1.036573   -1.475863
    153          1           0       -0.205838   -2.472834   -1.995075
    154          1           0       -0.574500   -0.989943   -3.008289
    155          1           0        1.291913    3.357075   -0.159605
    156          1           0        0.373993    5.397020   -3.950642
    157          1           0        1.655209    6.363022   -3.309325
    158          1           0        0.130819    6.719058   -2.649612
 ---------------------------------------------------------------------

 SCF Done:  E(RwB97XD) =  -4070.64661927     A.U. after   20 cycles

 Excitation energies and oscillator strengths:

 Excited State   1:      Singlet-A      1.6191 eV  765.75 nm  f=0.8545  <S**2>=0.000
     309 -> 316        0.13553
     311 -> 313        0.59187
     312 -> 313        0.10503
     312 -> 314       -0.33213
 This state for optimization and/or second-order correction.
 Total Energy, E(TD-HF/TD-DFT) =  -4070.58711793
 Copying the excited state density for this state as the 1-particle RhoCI density.

 Excited State   2:      Singlet-A      1.7274 eV  717.73 nm  f=0.0767  <S**2>=0.000
     310 -> 315       -0.15394
     311 -> 313        0.32204
     311 -> 314       -0.10210
     312 -> 314        0.58387

 Excited State   3:      Singlet-A      2.0728 eV  598.16 nm  f=0.0929  <S**2>=0.000
     309 -> 313        0.61282
     310 -> 313        0.21644
     310 -> 314        0.12034
     311 -> 316       -0.21107

 Excited State   4:      Singlet-A      2.1511 eV  576.37 nm  f=0.1317  <S**2>=0.000
     309 -> 313       -0.12696
     309 -> 314       -0.19400
     310 -> 314        0.59458
     312 -> 315        0.26920

 Excited State   5:      Singlet-A      2.5709 eV  482.26 nm  f=0.0008  <S**2>=0.000
     311 -> 313       -0.13404
     312 -> 313        0.68603

 The electronic state is 1-A.
 Alpha  occ. eigenvalues --  -46.95837 -46.95328 -19.31441 -19.29307 -19.23938
 Alpha  occ. eigenvalues --  -19.23886 -19.23639 -19.23629 -19.23451 -19.22431
 Alpha  occ. eigenvalues --  -14.47119 -14.47009 -14.46130 -14.46076 -14.44082
 Alpha  occ. eigenvalues --  -14.44008 -14.43944 -14.42239 -10.42639 -10.42097
 Alpha  occ. eigenvalues --  -10.39525 -10.38853 -10.38702 -10.36991 -10.35777
 Alpha  occ. eigenvalues --  -10.35764 -10.35472 -10.35459 -10.35327 -10.34864
 Alpha  occ. eigenvalues --  -10.34756 -10.34690 -10.34534 -10.34531 -10.34462
 Alpha  occ. eigenvalues --  -10.34356 -10.33977 -10.33796 -10.33667 -10.33545
 Alpha  occ. eigenvalues --  -10.33346 -10.32742 -10.32678 -10.32384 -10.32231
 Alpha  occ. eigenvalues --  -10.32052 -10.32038 -10.32024 -10.32004 -10.31909
 Alpha  occ. eigenvalues --  -10.31897 -10.31884 -10.31857 -10.31778 -10.31720
 Alpha  occ. eigenvalues --  -10.31716 -10.31659 -10.31509 -10.31465 -10.31410
 Alpha  occ. eigenvalues --  -10.31394 -10.31205 -10.31175 -10.31161 -10.30988
 Alpha  occ. eigenvalues --  -10.30979 -10.30974 -10.30891 -10.30514 -10.30237
 Alpha  occ. eigenvalues --  -10.30171 -10.30158 -10.30089 -10.30049 -10.30014
 Alpha  occ. eigenvalues --  -10.29858 -10.29804 -10.29777 -10.29763 -10.29543
 Alpha  occ. eigenvalues --  -10.29500 -10.29417 -10.29190 -10.28229 -10.27877
 Alpha  occ. eigenvalues --  -10.27516  -3.21644  -3.21180  -1.95242  -1.94796
 Alpha  occ. eigenvalues --   -1.94774  -1.94566  -1.94271  -1.94160  -1.19878
 Alpha  occ. eigenvalues --   -1.16234  -1.11265  -1.10969  -1.10496  -1.10365
 Alpha  occ. eigenvalues --   -1.08219  -1.07908  -1.07724  -1.07142  -1.05949
 Alpha  occ. eigenvalues --   -1.05468  -1.04993  -1.04728  -1.04121  -1.03362
 Alpha  occ. eigenvalues --   -0.93798  -0.93303  -0.91497  -0.91070  -0.90898
 Alpha  occ. eigenvalues --   -0.90096  -0.90007  -0.89566  -0.89165  -0.88926
 Alpha  occ. eigenvalues --   -0.88756  -0.88451  -0.87283  -0.87028  -0.86269
 Alpha  occ. eigenvalues --   -0.85863  -0.85348  -0.85082  -0.84570  -0.84100
 Alpha  occ. eigenvalues --   -0.83946  -0.83459  -0.82952  -0.82334  -0.82256
 Alpha  occ. eigenvalues --   -0.81757  -0.80559  -0.80056  -0.79347  -0.79234
 Alpha  occ. eigenvalues --   -0.78782  -0.77979  -0.77675  -0.77389  -0.76886
 Alpha  occ. eigenvalues --   -0.76654  -0.74344  -0.74197  -0.73344  -0.73271
 Alpha  occ. eigenvalues --   -0.72291  -0.71571  -0.70935  -0.70737  -0.69897
 Alpha  occ. eigenvalues --   -0.69453  -0.69353  -0.68559  -0.67100  -0.66943
 Alpha  occ. eigenvalues --   -0.66833  -0.66600  -0.66341  -0.66262  -0.66195
 Alpha  occ. eigenvalues --   -0.65817  -0.64365  -0.63143  -0.62764  -0.62026
 Alpha  occ. eigenvalues --   -0.61302  -0.61219  -0.60919  -0.60312  -0.60207
 Alpha  occ. eigenvalues --   -0.59732  -0.59542  -0.59243  -0.59033  -0.58849
 Alpha  occ. eigenvalues --   -0.58045  -0.57917  -0.57740  -0.57570  -0.57341
 Alpha  occ. eigenvalues --   -0.57181  -0.56920  -0.56911  -0.56641  -0.55867
 Alpha  occ. eigenvalues --   -0.55041  -0.54967  -0.54922  -0.54823  -0.54553
 Alpha  occ. eigenvalues --   -0.54538  -0.54537  -0.54326  -0.54226  -0.53721
 Alpha  occ. eigenvalues --   -0.53485  -0.53262  -0.53174  -0.52959  -0.52801
 Alpha  occ. eigenvalues --   -0.52501  -0.52227  -0.52217  -0.52075  -0.51794
 Alpha  occ. eigenvalues --   -0.51436  -0.51255  -0.51226  -0.51026  -0.50887
 Alpha  occ. eigenvalues --   -0.50750  -0.50710  -0.50572  -0.50466  -0.50365
 Alpha  occ. eigenvalues --   -0.50265  -0.50137  -0.50052  -0.49818  -0.49710
 Alpha  occ. eigenvalues --   -0.49527  -0.49028  -0.48948  -0.48941  -0.48807
 Alpha  occ. eigenvalues --   -0.48470  -0.48215  -0.48200  -0.48108  -0.48073
 Alpha  occ. eigenvalues --   -0.47968  -0.47876  -0.47586  -0.47517  -0.47449
 Alpha  occ. eigenvalues --   -0.47153  -0.47026  -0.46848  -0.46429  -0.46395
 Alpha  occ. eigenvalues --   -0.46176  -0.46055  -0.45915  -0.45796  -0.45525
 Alpha  occ. eigenvalues --   -0.45437  -0.45390  -0.45363  -0.45103  -0.45080
 Alpha  occ. eigenvalues --   -0.44844  -0.44707  -0.44479  -0.44407  -0.44291
 Alpha  occ. eigenvalues --   -0.44204  -0.44093  -0.43941  -0.43619  -0.43554
 Alpha  occ. eigenvalues --   -0.43482  -0.43384  -0.43358  -0.43179  -0.43146
 Alpha  occ. eigenvalues --   -0.42915  -0.42769  -0.42668  -0.42244  -0.42176
 Alpha  occ. eigenvalues --   -0.41980  -0.41830  -0.41236  -0.41084  -0.40991
 Alpha  occ. eigenvalues --   -0.40739  -0.40441  -0.39528  -0.38938  -0.38590
 Alpha  occ. eigenvalues --   -0.38530  -0.38341  -0.38154  -0.38091  -0.37937
 Alpha  occ. eigenvalues --   -0.37806  -0.36989  -0.35758  -0.35623  -0.35531
 Alpha  occ. eigenvalues --   -0.35243  -0.35003  -0.34658  -0.33804  -0.33242
 Alpha  occ. eigenvalues --   -0.32949  -0.32885  -0.32617  -0.32236  -0.31919
 Alpha  occ. eigenvalues --   -0.31699  -0.31410  -0.30167  -0.25601  -0.25413
 Alpha  occ. eigenvalues --   -0.23221  -0.22760
 Alpha virt. eigenvalues --   -0.07374  -0.06611   0.00393   0.01005   0.02206
 Alpha virt. eigenvalues --    0.02503   0.04413   0.05018   0.05442   0.06123
 Alpha virt. eigenvalues --    0.07062   0.07519   0.07581   0.08400   0.08763

 Mulliken charges:
               1
     1  Mg   0.939321
     2  C    0.039603
     3  C   -0.075276
     4  C   -0.056363
     5  C   -0.069653
     6  N   -0.396319
     7  C   -0.019870
     8  C   -0.034041
     9  C   -0.089317
    10  C    0.105957
    11  C    0.044707
    12  C    0.023180
    13  C   -0.127018
    14  H    0.026441
    15  N   -0.379121
    16  C    0.093947
    17  C   -0.112166
    18  C   -0.049843
    19  C    0.101736
    20  C    0.053516
    21  C    0.041000
    22  O   -0.260607
    23  C   -0.008682
    24  N   -0.351049
    25  C    0.069360
    26  C   -0.145315
    27  C   -0.025663
    28  C    0.038758
    29  C    0.014828
    30  C   -0.017994
    31  C   -0.047930
    32  N   -0.419209
    33  C    0.136119
    34  C   -0.201706
    35  C   -0.025042
    36  C    0.097123
    37  C    0.088550
    38  C    0.160000
    39  O   -0.217100
    40  C   -0.123285
    41  C    0.260752
    42  O   -0.284201
    43  O   -0.327391
    44  C    0.128611
    45  H   -0.028009
    46  H    0.023399
    47  H   -0.014103
    48  H    0.029478
    49  H    0.031407
    50  H    0.055431
    51  H    0.032462
    52  H    0.024793
    53  H    0.030220
    54  H    0.054302
    55  H    0.043739
    56  H    0.061036
    57  H    0.028299
    58  H    0.047771
    59  H    0.054552
    60  H    0.043260
    61  H    0.043714
    62  H    0.064072
    63  H    0.043234
    64  H    0.027479
    65  H    0.044020
    66  H    0.031165
    67  H    0.039173
    68  H    0.027906
    69  H    0.024797
    70  H    0.057692
    71  H    0.043571
    72  H    0.032839
    73  H    0.041156
    74  H    0.037094
    75  H    0.052588
    76  H    0.093358
    77  H    0.052051
    78  H    0.075956
    79  H    0.049053
    80  Mg   0.948027
    81  C    0.025936
    82  C   -0.088947
    83  C   -0.049754
    84  C   -0.093856
    85  N   -0.314884
    86  C   -0.013506
    87  C   -0.057334
    88  C   -0.104907
    89  C    0.078455
    90  C    0.018692
    91  C   -0.006305
    92  C   -0.138194
    93  H    0.025455
    94  N   -0.486537
    95  C    0.139795
    96  C   -0.179710
    97  C   -0.072782
    98  C    0.161907
    99  C    0.072862
   100  C    0.036389
   101  O   -0.262556
   102  C    0.006504
   103  N   -0.272070
   104  C    0.017637
   105  C   -0.111208
   106  C    0.031650
   107  C   -0.039474
   108  C   -0.003373
   109  C   -0.033338
   110  C   -0.037338
   111  N   -0.475556
   112  C    0.143216
   113  C   -0.181166
   114  C    0.024880
   115  C    0.134287
   116  C    0.094756
   117  C    0.028959
   118  O   -0.210178
   119  C   -0.061989
   120  C    0.265608
   121  O   -0.264267
   122  O   -0.379635
   123  C    0.150027
   124  H    0.007466
   125  H    0.028066
   126  H   -0.014556
   127  H    0.055357
   128  H    0.045879
   129  H    0.034547
   130  H    0.051035
   131  H    0.032244
   132  H    0.031449
   133  H    0.056528
   134  H    0.047162
   135  H    0.062614
   136  H    0.048283
   137  H    0.063517
   138  H    0.046317
   139  H    0.051153
   140  H    0.050052
   141  H    0.057908
   142  H    0.052195
   143  H    0.035674
   144  H    0.045646
   145  H    0.036018
   146  H    0.064117
   147  H    0.030853
   148  H    0.023040
   149  H    0.052803
   150  H    0.039828
   151  H    0.038164
   152  H    0.056087
   153  H    0.023638
   154  H    0.042399
   155  H    0.083186
   156  H    0.062799
   157  H    0.042736
   158  H    0.051321
 Sum of Mulliken charges =  -0.00000

 Dipole moment (field-independent basis, Debye):
    X=             -0.9296    Y=              2.1401    Z=             -1.5897  Tot=              2.8233
 Quadrupole moment (field-independent basis, Debye-Ang):
   XX=           -437.2889   YY=           -473.4161   ZZ=           -531.1539
   XY=            -10.5893   XZ=             26.9240   YZ=              4.8954

 Normal termination of Gaussian 16 at Sun Sep 19 01:40:28 2021.
