 Gaussian 16, Revision A.03,
 Gaussian 16:  ES64L-G16RevA.03 25-Dec-2016

 --------------------------------
 #p wB97XD/Def2SVP td=(nstates=5)
 --------------------------------

 --------------------------------
 TDDFT excited states in gaussian
 --------------------------------
 Symbolic Z-matrix:
 Charge =  0 Multiplicity = 1

                         Standard orientation:
 ---------------------------------------------------------------------
 Center     Atomic      Atomic             Coordinates (Angstroms)
 Number     Number       Type             X           Y           Z
 ---------------------------------------------------------------------
      1         12           0      -29.578108    0.266891   -0.158909
      2          6           0      -26.405623   -1.184827   -0.551508
      3          6           0      -30.827756   -2.839125    0.418475
      4          6           0      -32.364575    1.797020    0.609663
      5          6           0      -27.804779    3.394733    0.036816
      6          7           0      -28.712257   -1.738754   -0.150594
      7          6           0      -27.405699   -2.104218   -0.312386
      8          6           0      -27.261372   -3.572050    0.116550
      9          6           0      -28.662893   -4.113079   -0.143677
     10          6           0      -29.451857   -2.823627    0.154293
     11          6           0      -28.865035   -4.584182   -1.602388
     12          6           0      -26.844842   -3.690380    1.629288
     13          6           0      -25.393408   -4.286220    1.977870
     14          1           0      -24.385050   -3.403718    2.733166
     15          7           0      -31.336738   -0.416788    0.488083
     16          6           0      -31.675066   -1.741282    0.644808
     17          6           0      -33.073855   -1.812624    0.930706
     18          6           0      -33.631720   -0.492190    0.885737
     19          6           0      -32.447968    0.387021    0.660356
     20          6           0      -33.829997   -3.158996    1.197984
     21          6           0      -35.160719   -0.156550    1.027496
     22          8           0      -35.962497   -1.037048    1.090518
     23          6           0      -35.590012    1.217555    0.797598
     24          7           0      -29.966485    2.280076    0.576854
     25          6           0      -31.260623    2.652765    0.434385
     26          6           0      -31.427858    4.131632    0.127933
     27          6           0      -30.024121    4.685725    0.317993
     28          6           0      -29.179696    3.364216    0.319640
     29          6           0      -31.981804    4.399621   -1.320236
     30          6           0      -29.705456    5.613867    1.582967
     31          6           0      -29.473691    7.094893    1.447244
     32          7           0      -27.603470    1.016017   -0.433721
     33          6           0      -27.032434    2.290663   -0.326683
     34          6           0      -25.597584    2.250045   -0.508824
     35          6           0      -25.324430    0.909448   -0.627000
     36          6           0      -26.545769    0.161789   -0.555334
     37          6           0      -24.696892    3.413757   -0.470872
     38          6           0      -24.247490   -0.052375   -0.805306
     39          8           0      -23.042196    0.141963   -1.005895
     40          6           0      -24.903528   -1.415400   -0.873067
     41          6           0      -24.604269   -1.993253   -2.252043
     42          8           0      -24.946252   -1.399605   -3.272245
     43          8           0      -23.813864   -3.150002   -2.167542
     44          6           0      -23.464365   -3.729930   -3.436734
     45          1           0      -31.221375   -3.857108    0.442998
     46          1           0      -33.356942    2.246309    0.547824
     47          1           0      -27.291275    4.357370   -0.013293
     48          1           0      -26.419997   -3.980104   -0.444082
     49          1           0      -28.845119   -4.927463    0.556410
     50          1           0      -29.289262   -5.566457   -1.397330
     51          1           0      -27.859614   -4.615652   -2.023136
     52          1           0      -29.512719   -3.974039   -2.232052
     53          1           0      -27.550827   -4.371080    2.104875
     54          1           0      -27.008567   -2.718020    2.093166
     55          1           0      -24.920110   -4.467156    1.012507
     56          1           0      -25.407564   -5.249886    2.485634
     57          1           0      -34.463792   -3.223058    2.081922
     58          1           0      -33.052130   -3.918614    1.282033
     59          1           0      -34.468171   -3.455287    0.365297
     60          1           0      -35.127584    1.950351    1.459221
     61          1           0      -36.671919    1.263874    0.921532
     62          1           0      -35.518286    1.460412   -0.261693
     63          1           0      -32.163209    4.612910    0.773571
     64          1           0      -29.708916    5.229026   -0.572847
     65          1           0      -33.054375    4.591647   -1.343176
     66          1           0      -31.644886    3.609224   -1.990934
     67          1           0      -31.503083    5.311688   -1.679574
     68          1           0      -28.992132    5.247714    2.320558
     69          1           0      -30.682098    5.483797    2.049939
     70          1           0      -30.250916    7.700937    1.911716
     71          1           0      -29.445406    7.364149    0.391126
     72          1           0      -28.505217    7.259485    1.918987
     73          1           0      -25.176517    4.184339    0.133283
     74          1           0      -24.648585    3.777219   -1.497745
     75          1           0      -23.696785    3.133508   -0.143374
     76          1           0      -24.360905   -1.973846   -0.111511
     77          1           0      -24.266417   -4.292665   -3.915124
     78          1           0      -22.617988   -4.410261   -3.346704
     79          1           0      -23.129777   -3.009933   -4.183073
     80         12           0       29.019520    0.596694   -0.283876
     81          6           0       28.180993   -2.616716    0.687927
     82          6           0       26.133177    1.774738    1.214454
     83          6           0       30.256371    3.722967   -0.586284
     84          6           0       32.058327   -0.767529   -1.442407
     85          7           0       27.483872   -0.298864    1.079224
     86          6           0       27.286278   -1.619074    1.132367
     87          6           0       26.056819   -1.939373    2.037643
     88          6           0       25.257865   -0.553355    1.966428
     89          6           0       26.328170    0.395826    1.303743
     90          6           0       23.889857   -0.681855    1.254002
     91          6           0       26.503083   -2.214847    3.455521
     92          6           0       25.781625   -3.353093    4.160152
     93          1           0       25.410954   -3.310691    5.690490
     94          7           0       28.162418    2.512147    0.110036
     95          6           0       27.034201    2.807987    0.778144
     96          6           0       26.897614    4.228368    0.782919
     97          6           0       28.002408    4.826743    0.104494
     98          6           0       28.876405    3.687381   -0.201168
     99          6           0       25.654177    4.888864    1.251881
    100          6           0       28.223858    6.293978    0.001550
    101          8           0       27.384018    7.071939    0.422698
    102          6           0       29.455973    6.869406   -0.686461
    103          7           0       30.949819    1.379335   -1.037480
    104          6           0       31.176304    2.720848   -0.964633
    105          6           0       32.615039    3.027810   -1.226209
    106          6           0       33.187258    1.556202   -1.495091
    107          6           0       32.011604    0.616131   -1.395669
    108          6           0       32.863181    4.055581   -2.346125
    109          6           0       34.411583    1.106080   -0.581112
    110          6           0       35.704626    0.546086   -1.219128
    111          7           0       29.936602   -1.254386   -0.398784
    112          6           0       31.113053   -1.655493   -0.949534
    113          6           0       31.113827   -3.040281   -1.122436
    114          6           0       29.959909   -3.515298   -0.514775
    115          6           0       29.318211   -2.404288   -0.027683
    116          6           0       32.285066   -3.850832   -1.750922
    117          6           0       29.200994   -4.636687   -0.211469
    118          8           0       29.498122   -5.815555   -0.370021
    119          6           0       27.944541   -4.165702    0.668075
    120          6           0       26.713429   -4.403910    0.005106
    121          8           0       26.168384   -3.806101   -0.925834
    122          8           0       26.148845   -5.510169    0.632558
    123          6           0       24.866270   -6.037386    0.199088
    124          1           0       25.156513    2.134567    1.544068
    125          1           0       30.785286    4.665421   -0.745682
    126          1           0       32.993596   -1.084824   -1.908525
    127          1           0       25.551097   -2.808247    1.617363
    128          1           0       25.117948   -0.071313    2.933438
    129          1           0       23.748001   -1.674092    0.826153
    130          1           0       23.815285    0.073561    0.471120
    131          1           0       23.117385   -0.444161    1.985001
    132          1           0       26.510244   -1.378405    4.154682
    133          1           0       27.576882   -2.382173    3.371694
    134          1           0       26.344602   -4.258894    3.935666
    135          1           0       24.860051   -3.405607    3.580483
    136          1           0       25.118336    5.075124    0.321325
    137          1           0       25.869881    5.807849    1.797231
    138          1           0       25.057447    4.260956    1.913593
    139          1           0       30.259808    6.801250    0.046707
    140          1           0       29.264422    7.937805   -0.783088
    141          1           0       29.663396    6.339187   -1.615857
    142          1           0       32.903322    3.417032   -0.250270
    143          1           0       33.648446    1.479558   -2.479756
    144          1           0       33.167012    4.974501   -1.843665
    145          1           0       31.990771    4.210991   -2.981670
    146          1           0       33.708869    3.731081   -2.951947
    147          1           0       34.061680    0.326834    0.095822
    148          1           0       34.814104    1.922026    0.019550
    149          1           0       35.448865   -0.513205   -1.239657
    150          1           0       36.550809    0.689057   -0.548340
    151          1           0       35.922996    0.733216   -2.270424
    152          1           0       33.101962   -3.888583   -1.031390
    153          1           0       32.747762   -3.417049   -2.637613
    154          1           0       31.975485   -4.872032   -1.974931
    155          1           0       28.048002   -4.675948    1.625824
    156          1           0       24.885481   -7.110741    0.385348
    157          1           0       24.571281   -5.766882   -0.815119
    158          1           0       24.110340   -5.666980    0.891671
 ---------------------------------------------------------------------

 SCF Done:  E(RwB97XD) =  -4070.59070443     A.U. after   19 cycles

 Excitation energies and oscillator strengths:

 Excited State   1:      Singlet-A      1.6375 eV  757.14 nm  f=0.4002  <S**2>=0.000
     309 -> 315       -0.19101
     311 -> 313        0.68255
     309 <- 315       -0.11968
 This state for optimization and/or second-order correction.
 Total Energy, E(TD-HF/TD-DFT) =  -4070.53052650
 Copying the excited state density for this state as the 1-particle RhoCI density.

 Excited State   2:      Singlet-A      1.6668 eV  743.86 nm  f=0.3613  <S**2>=0.000
     310 -> 316        0.19753
     312 -> 314        0.68093
     310 <- 316        0.12066

 Excited State   3:      Singlet-A      2.1723 eV  570.76 nm  f=0.0973  <S**2>=0.000
     309 -> 313        0.63454
     311 -> 315        0.29671

 Excited State   4:      Singlet-A      2.2262 eV  556.94 nm  f=0.0509  <S**2>=0.000
     310 -> 314        0.60366
     312 -> 316       -0.35678

 Excited State   5:      Singlet-A      3.2598 eV  380.34 nm  f=0.0048  <S**2>=0.000
     308 -> 313        0.67171
     311 -> 315       -0.12900

 The electronic state is 1-A.
 Alpha  occ. eigenvalues --  -46.96032 -46.95032 -19.31289 -19.29883 -19.25556
 Alpha  occ. eigenvalues --  -19.25136 -19.24324 -19.24069 -19.23855 -19.23372
 Alpha  occ. eigenvalues --  -14.46930 -14.46728 -14.46678 -14.46611 -14.44422
 Alpha  occ. eigenvalues --  -14.43992 -14.43976 -14.43819 -10.44154 -10.43454
 Alpha  occ. eigenvalues --  -10.39256 -10.38980 -10.38613 -10.38578 -10.35570
 Alpha  occ. eigenvalues --  -10.35443 -10.35391 -10.35313 -10.35257 -10.35173
 Alpha  occ. eigenvalues --  -10.35153 -10.35140 -10.34891 -10.34873 -10.34695
 Alpha  occ. eigenvalues --  -10.34570 -10.33837 -10.33808 -10.33545 -10.33435
 Alpha  occ. eigenvalues --  -10.33284 -10.32805 -10.32762 -10.32627 -10.32492
 Alpha  occ. eigenvalues --  -10.32492 -10.32478 -10.32394 -10.32350 -10.32245
 Alpha  occ. eigenvalues --  -10.32230 -10.32198 -10.32146 -10.31947 -10.31945
 Alpha  occ. eigenvalues --  -10.31943 -10.31920 -10.31918 -10.31912 -10.31892
 Alpha  occ. eigenvalues --  -10.31657 -10.31435 -10.31217 -10.31077 -10.31026
 Alpha  occ. eigenvalues --  -10.30941 -10.30936 -10.30906 -10.30741 -10.30732
 Alpha  occ. eigenvalues --  -10.30731 -10.30708 -10.30445 -10.30364 -10.30124
 Alpha  occ. eigenvalues --  -10.30087 -10.29988 -10.29909 -10.29860 -10.29728
 Alpha  occ. eigenvalues --  -10.29700 -10.29499 -10.29425 -10.29203 -10.28869
 Alpha  occ. eigenvalues --  -10.28828  -3.21821  -3.21077  -1.95418  -1.94933
 Alpha  occ. eigenvalues --   -1.94779  -1.94643  -1.94216  -1.94045  -1.18171
 Alpha  occ. eigenvalues --   -1.17910  -1.14104  -1.12287  -1.12197  -1.11356
 Alpha  occ. eigenvalues --   -1.10466  -1.09715  -1.07565  -1.06782  -1.06279
 Alpha  occ. eigenvalues --   -1.06091  -1.05874  -1.04913  -1.04670  -1.04112
 Alpha  occ. eigenvalues --   -0.95905  -0.95058  -0.91410  -0.91013  -0.91008
 Alpha  occ. eigenvalues --   -0.90846  -0.90457  -0.90267  -0.89837  -0.89574
 Alpha  occ. eigenvalues --   -0.89052  -0.88852  -0.88175  -0.87374  -0.86936
 Alpha  occ. eigenvalues --   -0.86535  -0.86504  -0.86144  -0.84952  -0.84466
 Alpha  occ. eigenvalues --   -0.84445  -0.84165  -0.83457  -0.83009  -0.82828
 Alpha  occ. eigenvalues --   -0.82750  -0.80137  -0.79950  -0.79558  -0.79177
 Alpha  occ. eigenvalues --   -0.78507  -0.78428  -0.78341  -0.78222  -0.77129
 Alpha  occ. eigenvalues --   -0.77045  -0.75505  -0.74879  -0.74388  -0.74112
 Alpha  occ. eigenvalues --   -0.71841  -0.71205  -0.70953  -0.70599  -0.70105
 Alpha  occ. eigenvalues --   -0.70098  -0.69358  -0.68756  -0.68099  -0.67849
 Alpha  occ. eigenvalues --   -0.67792  -0.67564  -0.67494  -0.66869  -0.66866
 Alpha  occ. eigenvalues --   -0.66475  -0.64728  -0.64712  -0.62489  -0.62210
 Alpha  occ. eigenvalues --   -0.62053  -0.61928  -0.61107  -0.61101  -0.61067
 Alpha  occ. eigenvalues --   -0.60881  -0.60486  -0.60172  -0.60008  -0.59709
 Alpha  occ. eigenvalues --   -0.58339  -0.58220  -0.58108  -0.58066  -0.57466
 Alpha  occ. eigenvalues --   -0.57251  -0.56892  -0.56793  -0.56319  -0.55921
 Alpha  occ. eigenvalues --   -0.55516  -0.55481  -0.55336  -0.55105  -0.54941
 Alpha  occ. eigenvalues --   -0.54718  -0.54618  -0.54593  -0.54259  -0.54128
 Alpha  occ. eigenvalues --   -0.54053  -0.54008  -0.53812  -0.53730  -0.53448
 Alpha  occ. eigenvalues --   -0.53220  -0.52956  -0.52815  -0.52386  -0.52301
 Alpha  occ. eigenvalues --   -0.52094  -0.52085  -0.51932  -0.51738  -0.51581
 Alpha  occ. eigenvalues --   -0.51524  -0.51424  -0.51256  -0.51043  -0.50979
 Alpha  occ. eigenvalues --   -0.50926  -0.50612  -0.50334  -0.50263  -0.50205
 Alpha  occ. eigenvalues --   -0.50019  -0.49440  -0.49439  -0.49033  -0.48839
 Alpha  occ. eigenvalues --   -0.48710  -0.48651  -0.48536  -0.48520  -0.48310
 Alpha  occ. eigenvalues --   -0.48211  -0.48081  -0.48042  -0.47899  -0.47898
 Alpha  occ. eigenvalues --   -0.47761  -0.47424  -0.47375  -0.47285  -0.47262
 Alpha  occ. eigenvalues --   -0.47093  -0.46665  -0.46491  -0.46388  -0.46245
 Alpha  occ. eigenvalues --   -0.46097  -0.45838  -0.45797  -0.45560  -0.45531
 Alpha  occ. eigenvalues --   -0.45379  -0.45266  -0.45086  -0.45033  -0.44832
 Alpha  occ. eigenvalues --   -0.44539  -0.44382  -0.44146  -0.44090  -0.44009
 Alpha  occ. eigenvalues --   -0.43889  -0.43859  -0.43804  -0.43651  -0.43527
 Alpha  occ. eigenvalues --   -0.43332  -0.43002  -0.42922  -0.42762  -0.42606
 Alpha  occ. eigenvalues --   -0.42291  -0.42205  -0.41955  -0.41632  -0.40897
 Alpha  occ. eigenvalues --   -0.40300  -0.40148  -0.39942  -0.39910  -0.39471
 Alpha  occ. eigenvalues --   -0.39411  -0.39245  -0.39171  -0.38622  -0.38589
 Alpha  occ. eigenvalues --   -0.38283  -0.37587  -0.36835  -0.36833  -0.36719
 Alpha  occ. eigenvalues --   -0.36500  -0.35766  -0.35740  -0.34038  -0.33553
 Alpha  occ. eigenvalues --   -0.33273  -0.33199  -0.32949  -0.32679  -0.32627
 Alpha  occ. eigenvalues --   -0.32326  -0.31821  -0.31649  -0.26485  -0.26323
 Alpha  occ. eigenvalues --   -0.23352  -0.22804
 Alpha virt. eigenvalues --   -0.07553  -0.06657  -0.00379  -0.00333   0.01891
 Alpha virt. eigenvalues --    0.02589   0.04443   0.04602   0.05189   0.05675
 Alpha virt. eigenvalues --    0.06222   0.06363   0.07183   0.07475   0.08127

 Mulliken charges:
               1
     1  Mg   0.956916
     2  C   -0.054799
     3  C   -0.098158
     4  C   -0.053126
     5  C   -0.094246
     6  N   -0.331746
     7  C   -0.023677
     8  C   -0.115026
     9  C   -0.115646
    10  C    0.039090
    11  C    0.060840
    12  C    0.025483
    13  C   -0.134593
    14  H    0.044836
    15  N   -0.518526
    16  C    0.210507
    17  C   -0.172964
    18  C   -0.106176
    19  C    0.151638
    20  C    0.083531
    21  C    0.062070
    22  O   -0.196891
    23  C   -0.021492
    24  N   -0.326749
    25  C    0.062400
    26  C   -0.102098
    27  C   -0.070043
    28  C    0.069677
    29  C    0.021105
    30  C   -0.022390
    31  C   -0.034773
    32  N   -0.429145
    33  C    0.127804
    34  C   -0.206725
    35  C   -0.016802
    36  C    0.192791
    37  C    0.097409
    38  C    0.099211
    39  O   -0.220859
    40  C   -0.022081
    41  C    0.288736
    42  O   -0.244361
    43  O   -0.362512
    44  C    0.139828
    45  H    0.001606
    46  H   -0.029248
    47  H   -0.001560
    48  H    0.017296
    49  H    0.023680
    50  H    0.042911
    51  H    0.038777
    52  H    0.055128
    53  H    0.032691
    54  H    0.055651
    55  H    0.047928
    56  H    0.058770
    57  H    0.056005
    58  H    0.011805
    59  H    0.051520
    60  H    0.070927
    61  H    0.042021
    62  H    0.069567
    63  H    0.033440
    64  H    0.024326
    65  H    0.046123
    66  H    0.041575
    67  H    0.029654
    68  H    0.043970
    69  H    0.016332
    70  H    0.044043
    71  H    0.026342
    72  H    0.041568
    73  H    0.036686
    74  H    0.058315
    75  H    0.066038
    76  H    0.061046
    77  H    0.042321
    78  H    0.050438
    79  H    0.054038
    80  Mg   0.938895
    81  C   -0.063496
    82  C   -0.088036
    83  C   -0.039736
    84  C   -0.124169
    85  N   -0.332197
    86  C    0.012915
    87  C   -0.124724
    88  C   -0.103008
    89  C    0.083795
    90  C    0.035825
    91  C    0.029643
    92  C   -0.116579
    93  H    0.044727
    94  N   -0.455895
    95  C    0.158209
    96  C   -0.182181
    97  C   -0.057357
    98  C    0.198496
    99  C    0.076306
   100  C    0.004744
   101  O   -0.236060
   102  C    0.002955
   103  N   -0.353913
   104  C   -0.009474
   105  C   -0.086561
   106  C   -0.051272
   107  C    0.062117
   108  C    0.022927
   109  C   -0.053244
   110  C   -0.067785
   111  N   -0.433760
   112  C    0.194507
   113  C   -0.187313
   114  C    0.053548
   115  C    0.162088
   116  C    0.075196
   117  C    0.056219
   118  O   -0.207011
   119  C   -0.077399
   120  C    0.295341
   121  O   -0.257273
   122  O   -0.388878
   123  C    0.139778
   124  H   -0.000101
   125  H   -0.030128
   126  H   -0.003626
   127  H    0.037128
   128  H    0.045715
   129  H    0.048955
   130  H    0.034016
   131  H    0.036047
   132  H    0.037201
   133  H    0.027166
   134  H    0.055792
   135  H    0.044476
   136  H    0.060691
   137  H    0.065551
   138  H    0.024405
   139  H    0.059343
   140  H    0.051998
   141  H    0.063624
   142  H    0.053035
   143  H    0.024098
   144  H    0.042376
   145  H    0.053164
   146  H    0.040433
   147  H    0.043621
   148  H    0.030912
   149  H    0.022315
   150  H    0.047995
   151  H    0.040146
   152  H    0.047480
   153  H    0.037843
   154  H    0.062242
   155  H    0.083021
   156  H    0.056862
   157  H    0.068861
   158  H    0.036436
 Sum of Mulliken charges =  -0.00000

 Dipole moment (field-independent basis, Debye):
    X=              0.4188    Y=              2.1483    Z=             -0.6624  Tot=              2.2868
 Quadrupole moment (field-independent basis, Debye-Ang):
   XX=           -285.6907   YY=           -501.1777   ZZ=           -512.8015
   XY=             -5.8667   XZ=             11.0956   YZ=             -3.8356

 Normal termination of Gaussian 16 at Mon Sep 20 16:34:23 2021.
