 Gaussian 16, Revision A.03,
 Gaussian 16:  ES64L-G16RevA.03 25-Dec-2016

 --------------------------------
 #p wB97XD/Def2SVP td=(nstates=5)
 --------------------------------

 --------------------------------
 TDDFT excited states in gaussian
 --------------------------------
 Symbolic Z-matrix:
 Charge =  0 Multiplicity = 1

                         Standard orientation:
 ---------------------------------------------------------------------
 Center     Atomic      Atomic             Coordinates (Angstroms)
 Number     Number       Type             X           Y           Z
 ---------------------------------------------------------------------
      1         12           0      -13.175012   -0.278537   -0.360456
      2          6           0       -9.902817    0.121940    0.923409
      3          6           0      -13.983801    2.828590    0.905757
      4          6           0      -16.374319   -0.810939   -1.341577
      5          6           0      -12.366944   -3.514467   -1.439895
      6          7           0      -12.027987    1.171670    0.857431
      7          6           0      -10.654616    1.241284    1.078899
      8          6           0      -10.247207    2.612286    1.758446
      9          6           0      -11.629273    3.287481    1.964653
     10          6           0      -12.645116    2.367641    1.250958
     11          6           0      -12.094459    3.591439    3.437861
     12          6           0       -9.111613    3.451415    1.041517
     13          6           0       -7.890247    3.711589    1.870336
     14          1           0       -7.206429    5.122492    1.674800
     15          7           0      -14.865336    0.856404   -0.206493
     16          6           0      -15.016942    2.139266    0.279332
     17          6           0      -16.412543    2.535030    0.172720
     18          6           0      -17.154317    1.509346   -0.478848
     19          6           0      -16.119695    0.440728   -0.734439
     20          6           0      -16.944744    3.931855    0.551281
     21          6           0      -18.623547    1.465578   -0.886211
     22          8           0      -19.122308    0.559176   -1.521072
     23          6           0      -19.654729    2.639518   -0.628305
     24          7           0      -14.249535   -1.991621   -1.187665
     25          6           0      -15.538570   -1.947871   -1.498079
     26          6           0      -16.034460   -3.289586   -2.146157
     27          6           0      -14.685091   -4.085275   -2.351858
     28          6           0      -13.673618   -3.138124   -1.638337
     29          6           0      -17.155369   -3.964681   -1.303981
     30          6           0      -14.409500   -4.376032   -3.813858
     31          6           0      -13.873329   -5.781610   -4.079558
     32          7           0      -11.562928   -1.588498   -0.203917
     33          6           0      -11.330052   -2.828425   -0.767393
     34          6           0      -10.035107   -3.255943   -0.335127
     35          6           0       -9.405144   -2.148859    0.285547
     36          6           0      -10.381706   -1.116979    0.362520
     37          6           0       -9.428166   -4.584549   -0.583746
     38          6           0       -8.132705   -1.650289    0.836025
     39          8           0       -7.063598   -2.196863    1.091297
     40          6           0       -8.466800   -0.021592    1.254815
     41          6           0       -8.189786    0.184896    2.642086
     42          8           0       -9.033283    0.284440    3.506594
     43          8           0       -6.844007    0.389750    2.846739
     44          6           0       -6.501548    0.552453    4.281644
     45          1           0      -14.248965    3.852247    1.178974
     46          1           0      -17.397558   -1.055145   -1.632715
     47          1           0      -12.175523   -4.493640   -1.885244
     48          1           0       -9.971933    2.331454    2.774467
     49          1           0      -11.669524    4.246309    1.447720
     50          1           0      -12.575089    4.569993    3.415454
     51          1           0      -11.218094    3.577328    4.085383
     52          1           0      -12.810632    2.874751    3.840289
     53          1           0       -9.588334    4.375527    0.714336
     54          1           0       -8.785465    2.865338    0.182137
     55          1           0       -7.123024    2.972595    1.635634
     56          1           0       -8.244057    3.571770    2.891401
     57          1           0      -17.242833    4.383998   -0.393997
     58          1           0      -16.111963    4.547289    0.892431
     59          1           0      -17.804802    3.947988    1.221866
     60          1           0      -19.255980    3.542670   -1.091533
     61          1           0      -20.005390    2.675513    0.403546
     62          1           0      -20.586114    2.280195   -1.064898
     63          1           0      -16.447202   -3.162318   -3.146730
     64          1           0      -14.774710   -4.982767   -1.739513
     65          1           0      -16.879217   -5.006646   -1.139792
     66          1           0      -18.149595   -3.852174   -1.737106
     67          1           0      -17.220169   -3.482817   -0.329801
     68          1           0      -13.722383   -3.654274   -4.254272
     69          1           0      -15.273182   -4.243455   -4.467302
     70          1           0      -13.609792   -6.289848   -3.151955
     71          1           0      -12.961698   -5.653208   -4.663794
     72          1           0      -14.534954   -6.366394   -4.718800
     73          1           0      -10.025554   -5.314628   -1.129747
     74          1           0       -8.971626   -4.888218    0.359075
     75          1           0       -8.710151   -4.373146   -1.376486
     76          1           0       -7.837284    0.634266    0.652758
     77          1           0       -6.792945   -0.340679    4.834810
     78          1           0       -6.982872    1.476432    4.601994
     79          1           0       -5.430597    0.652533    4.453768
     80         12           0       12.935680   -0.163599    0.079534
     81          6           0       11.217541    2.233449   -1.691349
     82          6           0       10.786209    0.103364    2.732064
     83          6           0       14.586527   -2.743776    1.779181
     84          6           0       14.605883   -1.115919   -2.789214
     85          7           0       11.072483    0.920749    0.311853
     86          6           0       10.609369    2.001838   -0.443039
     87          6           0        9.328266    2.591962    0.151775
     88          6           0        9.407597    1.985461    1.575811
     89          6           0       10.445517    0.844761    1.550290
     90          6           0        9.616984    3.048377    2.676471
     91          6           0        8.071800    2.174797   -0.637925
     92          6           0        6.991172    3.283349   -0.885100
     93          1           0        5.588180    2.821983   -0.960473
     94          7           0       12.740355   -1.107478    1.969941
     95          6           0       11.859697   -0.798984    2.949276
     96          6           0       12.171708   -1.425170    4.199055
     97          6           0       13.353603   -2.156676    3.996974
     98          6           0       13.640793   -2.005431    2.510510
     99          6           0       11.423621   -1.163234    5.507788
    100          6           0       14.142678   -2.998280    5.064361
    101          8           0       13.649928   -3.116184    6.215446
    102          6           0       15.571686   -3.641689    4.800560
    103          7           0       14.174934   -1.908101   -0.510169
    104          6           0       14.817519   -2.695467    0.386407
    105          6           0       15.898936   -3.537763   -0.240187
    106          6           0       15.895033   -3.073948   -1.712817
    107          6           0       14.866936   -1.940173   -1.681861
    108          6           0       17.286480   -3.461142    0.479045
    109          6           0       15.628825   -4.265292   -2.751326
    110          6           0       16.869695   -4.732248   -3.521083
    111          7           0       12.985906    0.444311   -1.843124
    112          6           0       13.740996    0.001472   -2.951409
    113          6           0       13.585235    0.956976   -4.056078
    114          6           0       12.667181    1.869969   -3.556114
    115          6           0       12.266766    1.426967   -2.284776
    116          6           0       14.205910    0.970644   -5.407083
    117          6           0       11.911875    3.083868   -3.897363
    118          8           0       12.037297    3.903559   -4.822039
    119          6           0       10.962849    3.399645   -2.672566
    120          6           0       11.284174    4.754569   -2.056257
    121          8           0       12.397771    5.215326   -1.786094
    122          8           0       10.062939    5.350169   -1.945203
    123          6           0       10.056301    6.746647   -1.542781
    124          1           0       10.111300    0.183462    3.586671
    125          1           0       15.228394   -3.508922    2.220909
    126          1           0       15.108640   -1.357667   -3.727780
    127          1           0        9.384261    3.680841    0.131473
    128          1           0        8.414878    1.559089    1.719760
    129          1           0        9.354795    4.087333    2.476772
    130          1           0       10.692126    3.075119    2.853190
    131          1           0        9.091436    2.796889    3.597397
    132          1           0        7.586802    1.290402   -0.225631
    133          1           0        8.454283    1.758779   -1.570297
    134          1           0        7.228003    3.806912   -1.811285
    135          1           0        7.009176    3.975169   -0.041824
    136          1           0       12.179911   -0.815399    6.211084
    137          1           0       10.797657   -2.021787    5.751314
    138          1           0       10.794624   -0.300137    5.289966
    139          1           0       15.384932   -4.601761    4.320861
    140          1           0       16.018438   -3.797652    5.782214
    141          1           0       16.171331   -2.865573    4.324216
    142          1           0       15.586339   -4.580458   -0.182426
    143          1           0       16.766992   -2.511864   -2.046440
    144          1           0       18.101072   -3.334251   -0.233474
    145          1           0       17.501560   -4.350290    1.071432
    146          1           0       17.258527   -2.662722    1.219411
    147          1           0       14.932172   -3.982216   -3.540297
    148          1           0       15.138293   -5.097403   -2.246400
    149          1           0       16.847481   -5.816726   -3.629830
    150          1           0       17.769249   -4.446825   -2.976131
    151          1           0       16.961840   -4.298585   -4.516677
    152          1           0       14.935069    0.161019   -5.438324
    153          1           0       14.497178    1.987150   -5.672361
    154          1           0       13.427229    0.639389   -6.094962
    155          1           0        9.907215    3.348055   -2.940494
    156          1           0       10.729670    6.971541   -0.714703
    157          1           0        9.092073    7.183402   -1.282832
    158          1           0       10.368430    7.370770   -2.380518
 ---------------------------------------------------------------------

 SCF Done:  E(RwB97XD) =  -4070.62718009     A.U. after   19 cycles

 Excitation energies and oscillator strengths:

 Excited State   1:      Singlet-A      1.6652 eV  744.55 nm  f=0.3594  <S**2>=0.000
     309 -> 315        0.17859
     312 -> 314        0.68381
     309 <- 315        0.11330
 This state for optimization and/or second-order correction.
 Total Energy, E(TD-HF/TD-DFT) =  -4070.56598446
 Copying the excited state density for this state as the 1-particle RhoCI density.

 Excited State   2:      Singlet-A      1.7610 eV  704.05 nm  f=0.3765  <S**2>=0.000
     310 -> 316        0.17860
     311 -> 313        0.68334
     310 <- 316        0.10773

 Excited State   3:      Singlet-A      2.1964 eV  564.49 nm  f=0.0919  <S**2>=0.000
     309 -> 314        0.62266
     312 -> 315       -0.31665

 Excited State   4:      Singlet-A      2.2096 eV  561.11 nm  f=0.1120  <S**2>=0.000
     310 -> 313        0.63675
     311 -> 316       -0.28402

 Excited State   5:      Singlet-A      3.4493 eV  359.44 nm  f=0.0273  <S**2>=0.000
     303 -> 313       -0.29821
     308 -> 313        0.60799

 The electronic state is 1-A.
 Alpha  occ. eigenvalues --  -46.95446 -46.94598 -19.31505 -19.29516 -19.25138
 Alpha  occ. eigenvalues --  -19.24978 -19.24715 -19.24378 -19.24106 -19.23396
 Alpha  occ. eigenvalues --  -14.46943 -14.46916 -14.46683 -14.46355 -14.45030
 Alpha  occ. eigenvalues --  -14.44792 -14.43591 -14.43292 -10.43735 -10.42097
 Alpha  occ. eigenvalues --  -10.40688 -10.40469 -10.39989 -10.38678 -10.36686
 Alpha  occ. eigenvalues --  -10.36242 -10.36187 -10.35718 -10.35666 -10.35377
 Alpha  occ. eigenvalues --  -10.35302 -10.35163 -10.35029 -10.34997 -10.34477
 Alpha  occ. eigenvalues --  -10.34444 -10.34353 -10.34166 -10.33761 -10.33560
 Alpha  occ. eigenvalues --  -10.33095 -10.32697 -10.32654 -10.32632 -10.32605
 Alpha  occ. eigenvalues --  -10.32477 -10.32402 -10.32321 -10.32128 -10.32110
 Alpha  occ. eigenvalues --  -10.32056 -10.32027 -10.31991 -10.31925 -10.31920
 Alpha  occ. eigenvalues --  -10.31887 -10.31879 -10.31709 -10.31679 -10.31679
 Alpha  occ. eigenvalues --  -10.31663 -10.31629 -10.31409 -10.31336 -10.31314
 Alpha  occ. eigenvalues --  -10.31186 -10.30921 -10.30900 -10.30762 -10.30718
 Alpha  occ. eigenvalues --  -10.30670 -10.30610 -10.30565 -10.30405 -10.30317
 Alpha  occ. eigenvalues --  -10.30180 -10.30152 -10.29888 -10.29853 -10.29722
 Alpha  occ. eigenvalues --  -10.29697 -10.29493 -10.29092 -10.28931 -10.28861
 Alpha  occ. eigenvalues --  -10.28489  -3.21423  -3.20562  -1.94978  -1.94533
 Alpha  occ. eigenvalues --   -1.94420  -1.94160  -1.93678  -1.93541  -1.18946
 Alpha  occ. eigenvalues --   -1.17984  -1.13809  -1.11456  -1.10832  -1.10469
 Alpha  occ. eigenvalues --   -1.09876  -1.09585  -1.06594  -1.06098  -1.05948
 Alpha  occ. eigenvalues --   -1.05512  -1.04558  -1.04087  -1.03980  -1.02958
 Alpha  occ. eigenvalues --   -0.93774  -0.93279  -0.90999  -0.90738  -0.90644
 Alpha  occ. eigenvalues --   -0.90472  -0.90316  -0.90027  -0.89275  -0.89109
 Alpha  occ. eigenvalues --   -0.88880  -0.88839  -0.88311  -0.87488  -0.86300
 Alpha  occ. eigenvalues --   -0.86154  -0.85697  -0.85516  -0.84433  -0.84327
 Alpha  occ. eigenvalues --   -0.83494  -0.83014  -0.83012  -0.82681  -0.82071
 Alpha  occ. eigenvalues --   -0.82055  -0.80466  -0.79791  -0.79358  -0.78845
 Alpha  occ. eigenvalues --   -0.78607  -0.78376  -0.77731  -0.77680  -0.77163
 Alpha  occ. eigenvalues --   -0.76695  -0.74615  -0.74228  -0.73639  -0.73307
 Alpha  occ. eigenvalues --   -0.71111  -0.71045  -0.70836  -0.70752  -0.69743
 Alpha  occ. eigenvalues --   -0.69445  -0.69201  -0.69171  -0.67973  -0.67542
 Alpha  occ. eigenvalues --   -0.66996  -0.66890  -0.66764  -0.66621  -0.66489
 Alpha  occ. eigenvalues --   -0.66367  -0.64589  -0.63148  -0.62104  -0.61833
 Alpha  occ. eigenvalues --   -0.61528  -0.61171  -0.60861  -0.60789  -0.60524
 Alpha  occ. eigenvalues --   -0.59962  -0.59769  -0.59621  -0.59142  -0.59024
 Alpha  occ. eigenvalues --   -0.57961  -0.57916  -0.57687  -0.57657  -0.57163
 Alpha  occ. eigenvalues --   -0.56886  -0.56732  -0.56152  -0.55641  -0.55636
 Alpha  occ. eigenvalues --   -0.55249  -0.55238  -0.55183  -0.55034  -0.54968
 Alpha  occ. eigenvalues --   -0.54692  -0.54517  -0.54461  -0.54068  -0.53839
 Alpha  occ. eigenvalues --   -0.53634  -0.53442  -0.53329  -0.53206  -0.53089
 Alpha  occ. eigenvalues --   -0.53056  -0.52959  -0.52791  -0.52706  -0.52520
 Alpha  occ. eigenvalues --   -0.52059  -0.51791  -0.51538  -0.51470  -0.51376
 Alpha  occ. eigenvalues --   -0.51299  -0.51165  -0.50947  -0.50649  -0.50577
 Alpha  occ. eigenvalues --   -0.50353  -0.50168  -0.50009  -0.49983  -0.49927
 Alpha  occ. eigenvalues --   -0.49694  -0.49668  -0.49608  -0.49490  -0.49325
 Alpha  occ. eigenvalues --   -0.49042  -0.48742  -0.48705  -0.48426  -0.48352
 Alpha  occ. eigenvalues --   -0.48215  -0.48141  -0.47931  -0.47899  -0.47481
 Alpha  occ. eigenvalues --   -0.47375  -0.47113  -0.47076  -0.46772  -0.46673
 Alpha  occ. eigenvalues --   -0.46658  -0.46430  -0.46268  -0.45990  -0.45981
 Alpha  occ. eigenvalues --   -0.45892  -0.45628  -0.45574  -0.45492  -0.45373
 Alpha  occ. eigenvalues --   -0.45203  -0.45172  -0.45128  -0.44994  -0.44854
 Alpha  occ. eigenvalues --   -0.44434  -0.44317  -0.44299  -0.44203  -0.44023
 Alpha  occ. eigenvalues --   -0.43907  -0.43814  -0.43433  -0.43404  -0.43150
 Alpha  occ. eigenvalues --   -0.42996  -0.42643  -0.42483  -0.42426  -0.42214
 Alpha  occ. eigenvalues --   -0.41956  -0.41576  -0.41529  -0.41331  -0.41194
 Alpha  occ. eigenvalues --   -0.40613  -0.40578  -0.40202  -0.39986  -0.39670
 Alpha  occ. eigenvalues --   -0.39344  -0.39221  -0.38914  -0.38835  -0.38306
 Alpha  occ. eigenvalues --   -0.38251  -0.37857  -0.36770  -0.36704  -0.36187
 Alpha  occ. eigenvalues --   -0.35798  -0.35346  -0.35200  -0.33929  -0.33668
 Alpha  occ. eigenvalues --   -0.33506  -0.33230  -0.32896  -0.32615  -0.32331
 Alpha  occ. eigenvalues --   -0.32200  -0.31865  -0.30766  -0.26054  -0.26033
 Alpha  occ. eigenvalues --   -0.23168  -0.22824
 Alpha virt. eigenvalues --   -0.06851  -0.06837  -0.00044   0.00138   0.02079
 Alpha virt. eigenvalues --    0.02318   0.04139   0.04197   0.04888   0.06005
 Alpha virt. eigenvalues --    0.06896   0.07225   0.07497   0.07886   0.08199

 Mulliken charges:
               1
     1  Mg   0.955404
     2  C    0.013784
     3  C   -0.100384
     4  C   -0.065445
     5  C   -0.066943
     6  N   -0.380824
     7  C   -0.011774
     8  C   -0.052275
     9  C   -0.156818
    10  C    0.113140
    11  C    0.022947
    12  C    0.049972
    13  C   -0.135416
    14  H    0.029441
    15  N   -0.509981
    16  C    0.184371
    17  C   -0.168199
    18  C   -0.051372
    19  C    0.184731
    20  C    0.066199
    21  C    0.037495
    22  O   -0.218173
    23  C   -0.019199
    24  N   -0.317927
    25  C    0.037511
    26  C   -0.121229
    27  C   -0.060541
    28  C    0.021285
    29  C    0.018072
    30  C    0.000688
    31  C   -0.057036
    32  N   -0.463800
    33  C    0.166452
    34  C   -0.208588
    35  C   -0.042177
    36  C    0.161354
    37  C    0.091173
    38  C    0.152377
    39  O   -0.199159
    40  C   -0.162961
    41  C    0.269672
    42  O   -0.250508
    43  O   -0.372396
    44  C    0.150519
    45  H   -0.008614
    46  H    0.020445
    47  H   -0.018235
    48  H    0.051667
    49  H    0.032794
    50  H    0.036902
    51  H    0.043388
    52  H    0.050814
    53  H    0.038856
    54  H    0.034459
    55  H    0.065967
    56  H    0.050607
    57  H    0.052474
    58  H    0.034029
    59  H    0.066347
    60  H    0.061648
    61  H    0.055661
    62  H    0.047422
    63  H    0.040374
    64  H    0.034402
    65  H    0.035237
    66  H    0.050618
    67  H    0.041472
    68  H    0.030971
    69  H    0.027994
    70  H    0.041050
    71  H    0.031123
    72  H    0.041257
    73  H    0.019094
    74  H    0.070148
    75  H    0.044863
    76  H    0.079847
    77  H    0.060125
    78  H    0.049460
    79  H    0.051873
    80  Mg   0.973225
    81  C   -0.080598
    82  C   -0.110059
    83  C   -0.086252
    84  C   -0.083028
    85  N   -0.403866
    86  C   -0.008553
    87  C   -0.052687
    88  C   -0.092091
    89  C    0.126079
    90  C    0.014011
    91  C    0.023017
    92  C   -0.127929
    93  H    0.044417
    94  N   -0.430283
    95  C    0.153105
    96  C   -0.190498
    97  C   -0.078558
    98  C    0.194628
    99  C    0.116379
   100  C    0.044366
   101  O   -0.256223
   102  C   -0.009175
   103  N   -0.325106
   104  C    0.023076
   105  C   -0.076393
   106  C   -0.052215
   107  C    0.038549
   108  C    0.010499
   109  C   -0.007593
   110  C   -0.058054
   111  N   -0.440776
   112  C    0.101288
   113  C   -0.206458
   114  C   -0.044145
   115  C    0.153326
   116  C    0.107352
   117  C    0.155586
   118  O   -0.229877
   119  C   -0.059872
   120  C    0.289028
   121  O   -0.247583
   122  O   -0.356312
   123  C    0.133584
   124  H    0.008009
   125  H   -0.019859
   126  H   -0.011209
   127  H    0.024878
   128  H    0.033039
   129  H    0.036730
   130  H    0.034665
   131  H    0.038468
   132  H    0.031052
   133  H    0.030170
   134  H    0.066239
   135  H    0.049421
   136  H    0.065514
   137  H    0.072328
   138  H    0.012151
   139  H    0.080711
   140  H    0.058178
   141  H    0.060580
   142  H    0.046763
   143  H    0.033940
   144  H    0.046763
   145  H    0.033519
   146  H    0.037691
   147  H    0.033041
   148  H    0.028846
   149  H    0.039071
   150  H    0.028513
   151  H    0.041070
   152  H    0.021136
   153  H    0.075256
   154  H    0.050515
   155  H    0.064604
   156  H    0.055164
   157  H    0.052187
   158  H    0.053526
 Sum of Mulliken charges =  -0.00000

 Dipole moment (field-independent basis, Debye):
    X=             -3.0779    Y=              1.3531    Z=              0.3834  Tot=              3.3840
 Quadrupole moment (field-independent basis, Debye-Ang):
   XX=           -401.1111   YY=           -476.5399   ZZ=           -534.9544
   XY=            -95.9990   XZ=             23.6482   YZ=             48.7228

 Normal termination of Gaussian 16 at Mon Sep 20 15:06:47 2021.
