 Gaussian 16, Revision A.03,
 Gaussian 16:  ES64L-G16RevA.03 25-Dec-2016

 --------------------------------
 #p wB97XD/Def2SVP td=(nstates=5)
 --------------------------------

 --------------------------------
 TDDFT excited states in gaussian
 --------------------------------
 Symbolic Z-matrix:
 Charge =  0 Multiplicity = 1

                         Standard orientation:
 ---------------------------------------------------------------------
 Center     Atomic      Atomic             Coordinates (Angstroms)
 Number     Number       Type             X           Y           Z
 ---------------------------------------------------------------------
      1         12           0      -20.273740   -0.544959    0.335593
      2          6           0      -17.644773    1.311688   -1.242698
      3          6           0      -21.190958   -1.661099   -2.613054
      4          6           0      -23.061888   -1.498081    1.852900
      5          6           0      -19.261672    1.150343    3.438883
      6          7           0      -19.463381   -0.238431   -1.685705
      7          6           0      -18.407519    0.578187   -2.137186
      8          6           0      -18.188725    0.530320   -3.696665
      9          6           0      -19.382429   -0.547567   -4.063897
     10          6           0      -20.066972   -0.871513   -2.739713
     11          6           0      -20.426858    0.041290   -5.106428
     12          6           0      -16.746293    0.139636   -4.172807
     13          6           0      -16.626144   -0.306758   -5.625030
     14          1           0      -15.814010    0.643071   -6.524388
     15          7           0      -21.861571   -1.546084   -0.285675
     16          6           0      -22.124579   -1.987804   -1.561067
     17          6           0      -23.361126   -2.736304   -1.641953
     18          6           0      -23.888518   -2.681004   -0.291241
     19          6           0      -22.861376   -1.928032    0.513129
     20          6           0      -23.885178   -3.434266   -2.807541
     21          6           0      -25.159142   -3.280385    0.285939
     22          8           0      -25.437558   -3.270441    1.452174
     23          6           0      -26.118116   -3.827756   -0.737634
     24          7           0      -21.086828   -0.165558    2.351796
     25          6           0      -22.268762   -0.727472    2.710105
     26          6           0      -22.581058   -0.458260    4.206470
     27          6           0      -21.280282    0.269176    4.694684
     28          6           0      -20.450338    0.391857    3.431302
     29          6           0      -23.881654    0.341185    4.558511
     30          6           0      -20.462574   -0.457154    5.820303
     31          6           0      -21.085579   -0.303405    7.225448
     32          7           0      -18.828080    0.917728    1.022172
     33          6           0      -18.499688    1.422166    2.259389
     34          6           0      -17.340134    2.213125    2.138564
     35          6           0      -16.990064    2.265434    0.841546
     36          6           0      -17.941355    1.467003    0.137021
     37          6           0      -16.650229    2.794735    3.365632
     38          6           0      -16.108849    2.809660   -0.196508
     39          8           0      -15.178959    3.570045   -0.114452
     40          6           0      -16.547470    2.200310   -1.612564
     41          6           0      -17.120394    3.321906   -2.418879
     42          8           0      -18.238302    3.781724   -2.481213
     43          8           0      -16.068495    3.766110   -3.195292
     44          6           0      -16.346140    4.882042   -4.130628
     45          1           0      -21.602758   -2.040175   -3.550573
     46          1           0      -24.058200   -1.707817    2.249476
     47          1           0      -19.030460    1.482490    4.453628
     48          1           0      -18.511400    1.488393   -4.104526
     49          1           0      -18.917290   -1.411300   -4.539563
     50          1           0      -20.646759   -0.712984   -5.861792
     51          1           0      -20.202279    0.982607   -5.607304
     52          1           0      -21.397382    0.178402   -4.630569
     53          1           0      -16.507651   -0.622663   -3.430009
     54          1           0      -15.937223    0.853623   -4.017214
     55          1           0      -17.624429   -0.398322   -6.052057
     56          1           0      -16.030966   -1.218837   -5.659817
     57          1           0      -23.816119   -4.459315   -2.443461
     58          1           0      -23.290100   -3.219595   -3.695311
     59          1           0      -24.923851   -3.257503   -3.086115
     60          1           0      -25.936043   -4.894532   -0.867091
     61          1           0      -26.299161   -3.151322   -1.573458
     62          1           0      -27.090631   -3.588146   -0.308553
     63          1           0      -22.478988   -1.428865    4.692780
     64          1           0      -21.523933    1.303752    4.937337
     65          1           0      -23.743570    1.266298    5.118903
     66          1           0      -24.415761   -0.286317    5.271655
     67          1           0      -24.512086    0.605634    3.709564
     68          1           0      -19.461756   -0.029697    5.870195
     69          1           0      -20.387345   -1.492864    5.486113
     70          1           0      -21.741828    0.566524    7.257673
     71          1           0      -20.245235   -0.237543    7.916422
     72          1           0      -21.732511   -1.130170    7.520291
     73          1           0      -15.586990    2.951053    3.183121
     74          1           0      -16.822504    2.129868    4.212082
     75          1           0      -17.142106    3.716975    3.675669
     76          1           0      -15.713713    1.711768   -2.117383
     77          1           0      -15.466706    5.524293   -4.085279
     78          1           0      -17.236717    5.461221   -3.887104
     79          1           0      -16.421024    4.315707   -5.059456
     80         12           0       20.208067    0.537176   -0.142017
     81          6           0       19.233747   -2.797799    0.137618
     82          6           0       16.980405    1.499044    0.593913
     83          6           0       21.363670    3.601308   -0.351723
     84          6           0       23.667420   -0.568105    0.164203
     85          7           0       18.263570   -0.625320    0.263149
     86          6           0       18.103128   -1.979066    0.359354
     87          6           0       16.679174   -2.329591    0.608806
     88          6           0       15.964295   -0.932553    0.798483
     89          6           0       17.126524    0.102837    0.535784
     90          6           0       14.658461   -0.756700   -0.016820
     91          6           0       16.487297   -3.245223    1.842189
     92          6           0       15.654953   -4.474045    1.480173
     93          1           0       14.404739   -4.780217    2.358939
     94          7           0       19.280208    2.316658    0.060373
     95          6           0       17.929265    2.541226    0.321231
     96          6           0       17.757753    3.987014    0.260255
     97          6           0       19.038543    4.639777   -0.055344
     98          6           0       19.991642    3.495292   -0.207100
     99          6           0       16.528938    4.645271    0.645679
    100          6           0       19.208561    6.101896   -0.016037
    101          8           0       18.311509    6.887896    0.206295
    102          6           0       20.523234    6.788548   -0.146464
    103          7           0       22.160689    1.339437   -0.054810
    104          6           0       22.361234    2.636055   -0.455586
    105          6           0       23.840212    2.960423   -0.450020
    106          6           0       24.470364    1.776853    0.183457
    107          6           0       23.399395    0.802933    0.174254
    108          6           0       24.435178    3.409573   -1.847195
    109          6           0       24.851358    2.010067    1.685742
    110          6           0       25.994980    1.261509    2.195238
    111          7           0       21.295805   -1.302583    0.074019
    112          6           0       22.663204   -1.604874    0.115757
    113          6           0       22.834042   -3.013905   -0.052524
    114          6           0       21.546434   -3.535208   -0.007393
    115          6           0       20.618666   -2.439793    0.112894
    116          6           0       24.154841   -3.680209   -0.172205
    117          6           0       20.800980   -4.730528    0.002790
    118          8           0       21.171800   -5.881240   -0.063433
    119          6           0       19.311972   -4.319903    0.038122
    120          6           0       18.624514   -4.906170   -1.123407
    121          8           0       18.559169   -4.401273   -2.256902
    122          8           0       18.197605   -6.176745   -0.812179
    123          6           0       17.399334   -6.935476   -1.761316
    124          1           0       15.927940    1.728437    0.770121
    125          1           0       21.888930    4.559283   -0.379095
    126          1           0       24.719454   -0.853984    0.227426
    127          1           0       16.306483   -2.638739   -0.368140
    128          1           0       15.614127   -0.757113    1.815222
    129          1           0       14.394180   -1.787761   -0.254802
    130          1           0       14.703471   -0.083548   -0.873005
    131          1           0       13.875659   -0.348983    0.622315
    132          1           0       15.903009   -2.793971    2.643900
    133          1           0       17.488560   -3.505558    2.184928
    134          1           0       16.375515   -5.251766    1.732803
    135          1           0       15.463414   -4.429823    0.409060
    136          1           0       15.799228    3.875010    0.896238
    137          1           0       16.030290    5.221684   -0.134128
    138          1           0       16.705890    5.243872    1.539940
    139          1           0       20.905400    6.261832   -1.020909
    140          1           0       21.119791    6.569342    0.739462
    141          1           0       20.396129    7.853690   -0.341106
    142          1           0       23.892566    3.844938    0.183729
    143          1           0       25.274846    1.277091   -0.356221
    144          1           0       23.633299    3.591636   -2.562941
    145          1           0       25.237751    2.778132   -2.229921
    146          1           0       24.856529    4.414316   -1.830241
    147          1           0       23.979346    1.814376    2.309881
    148          1           0       25.092058    3.058261    1.862393
    149          1           0       26.902746    1.828540    1.986148
    150          1           0       26.043524    0.251172    1.787739
    151          1           0       26.002505    1.301349    3.284962
    152          1           0       24.845710   -3.081715   -0.765857
    153          1           0       24.104215   -4.696912   -0.562217
    154          1           0       24.553962   -3.636760    0.841208
    155          1           0       18.762114   -4.788873    0.854210
    156          1           0       17.877699   -7.337864   -2.654321
    157          1           0       16.524179   -6.352501   -2.047555
    158          1           0       17.113981   -7.828805   -1.207003
 ---------------------------------------------------------------------

 SCF Done:  E(RwB97XD) =  -4070.58841697     A.U. after   19 cycles

 Excitation energies and oscillator strengths:

 Excited State   1:      Singlet-A      1.6144 eV  767.98 nm  f=0.3618  <S**2>=0.000
     309 -> 315       -0.19421
     311 -> 313        0.68104
     309 <- 315       -0.12111
 This state for optimization and/or second-order correction.
 Total Energy, E(TD-HF/TD-DFT) =  -4070.52908839
 Copying the excited state density for this state as the 1-particle RhoCI density.

 Excited State   2:      Singlet-A      1.6367 eV  757.51 nm  f=0.4018  <S**2>=0.000
     310 -> 316        0.18386
     312 -> 314        0.68387
     310 <- 316        0.11736

 Excited State   3:      Singlet-A      2.1299 eV  582.12 nm  f=0.0998  <S**2>=0.000
     309 -> 313        0.63359
     311 -> 315        0.30005

 Excited State   4:      Singlet-A      2.1546 eV  575.45 nm  f=0.1349  <S**2>=0.000
     310 -> 314        0.64887
     312 -> 316       -0.26859

 Excited State   5:      Singlet-A      3.2692 eV  379.25 nm  f=0.0024  <S**2>=0.000
     305 -> 313       -0.24489
     307 -> 313        0.52281
     308 -> 313        0.35484

 The electronic state is 1-A.
 Alpha  occ. eigenvalues --  -46.95276 -46.94903 -19.30093 -19.29086 -19.24847
 Alpha  occ. eigenvalues --  -19.24312 -19.24169 -19.23971 -19.23392 -19.22397
 Alpha  occ. eigenvalues --  -14.46916 -14.46823 -14.46543 -14.45904 -14.44902
 Alpha  occ. eigenvalues --  -14.44219 -14.43756 -14.43455 -10.42937 -10.42817
 Alpha  occ. eigenvalues --  -10.39303 -10.38726 -10.38194 -10.37641 -10.35672
 Alpha  occ. eigenvalues --  -10.35644 -10.35579 -10.35403 -10.35141 -10.35077
 Alpha  occ. eigenvalues --  -10.34967 -10.34938 -10.34888 -10.34449 -10.34385
 Alpha  occ. eigenvalues --  -10.34241 -10.34142 -10.34113 -10.33882 -10.33358
 Alpha  occ. eigenvalues --  -10.33113 -10.33088 -10.32978 -10.32958 -10.32947
 Alpha  occ. eigenvalues --  -10.32910 -10.32701 -10.32696 -10.32518 -10.32419
 Alpha  occ. eigenvalues --  -10.32367 -10.32264 -10.32196 -10.32061 -10.31851
 Alpha  occ. eigenvalues --  -10.31805 -10.31700 -10.31402 -10.31334 -10.31315
 Alpha  occ. eigenvalues --  -10.31197 -10.31146 -10.31118 -10.31045 -10.30928
 Alpha  occ. eigenvalues --  -10.30890 -10.30861 -10.30854 -10.30849 -10.30789
 Alpha  occ. eigenvalues --  -10.30665 -10.30654 -10.30350 -10.30323 -10.30087
 Alpha  occ. eigenvalues --  -10.30039 -10.29733 -10.29598 -10.29593 -10.29482
 Alpha  occ. eigenvalues --  -10.29384 -10.29354 -10.29052 -10.28773 -10.28752
 Alpha  occ. eigenvalues --  -10.28745  -3.21214  -3.20893  -1.94805  -1.94479
 Alpha  occ. eigenvalues --   -1.94346  -1.94169  -1.93994  -1.93881  -1.17857
 Alpha  occ. eigenvalues --   -1.17624  -1.13587  -1.13049  -1.12281  -1.12050
 Alpha  occ. eigenvalues --   -1.09663  -1.08893  -1.06980  -1.05823  -1.05809
 Alpha  occ. eigenvalues --   -1.05343  -1.04999  -1.04501  -1.03621  -1.03617
 Alpha  occ. eigenvalues --   -0.95003  -0.94628  -0.92643  -0.91449  -0.90984
 Alpha  occ. eigenvalues --   -0.90831  -0.90143  -0.89971  -0.89638  -0.89181
 Alpha  occ. eigenvalues --   -0.89099  -0.88765  -0.88262  -0.87976  -0.87159
 Alpha  occ. eigenvalues --   -0.86445  -0.85824  -0.85368  -0.85086  -0.84492
 Alpha  occ. eigenvalues --   -0.84072  -0.83964  -0.83371  -0.82782  -0.82662
 Alpha  occ. eigenvalues --   -0.82042  -0.80583  -0.80082  -0.79908  -0.79058
 Alpha  occ. eigenvalues --   -0.78886  -0.78569  -0.78237  -0.77474  -0.77333
 Alpha  occ. eigenvalues --   -0.76762  -0.75393  -0.74763  -0.74018  -0.73281
 Alpha  occ. eigenvalues --   -0.71571  -0.71310  -0.71022  -0.70671  -0.69937
 Alpha  occ. eigenvalues --   -0.69728  -0.69466  -0.68969  -0.68401  -0.67885
 Alpha  occ. eigenvalues --   -0.67282  -0.67010  -0.66687  -0.66570  -0.66357
 Alpha  occ. eigenvalues --   -0.65897  -0.64014  -0.63468  -0.62710  -0.62076
 Alpha  occ. eigenvalues --   -0.61469  -0.61467  -0.61446  -0.60968  -0.60809
 Alpha  occ. eigenvalues --   -0.60263  -0.59924  -0.59831  -0.59375  -0.58904
 Alpha  occ. eigenvalues --   -0.58392  -0.58098  -0.57816  -0.57670  -0.57409
 Alpha  occ. eigenvalues --   -0.57128  -0.56990  -0.56377  -0.56362  -0.56200
 Alpha  occ. eigenvalues --   -0.56166  -0.56061  -0.55613  -0.55137  -0.54739
 Alpha  occ. eigenvalues --   -0.54621  -0.54486  -0.54309  -0.54225  -0.54023
 Alpha  occ. eigenvalues --   -0.53899  -0.53673  -0.53581  -0.53562  -0.53289
 Alpha  occ. eigenvalues --   -0.53209  -0.53182  -0.52939  -0.52453  -0.52351
 Alpha  occ. eigenvalues --   -0.52102  -0.51956  -0.51729  -0.51618  -0.51609
 Alpha  occ. eigenvalues --   -0.51420  -0.51342  -0.51066  -0.51053  -0.50768
 Alpha  occ. eigenvalues --   -0.50768  -0.50475  -0.50406  -0.50346  -0.49919
 Alpha  occ. eigenvalues --   -0.49744  -0.49664  -0.49507  -0.49071  -0.48969
 Alpha  occ. eigenvalues --   -0.48936  -0.48713  -0.48680  -0.48561  -0.48289
 Alpha  occ. eigenvalues --   -0.48238  -0.48159  -0.47830  -0.47670  -0.47665
 Alpha  occ. eigenvalues --   -0.47362  -0.47234  -0.47221  -0.47119  -0.46967
 Alpha  occ. eigenvalues --   -0.46879  -0.46785  -0.46657  -0.46515  -0.46456
 Alpha  occ. eigenvalues --   -0.45968  -0.45963  -0.45782  -0.45584  -0.45463
 Alpha  occ. eigenvalues --   -0.45411  -0.45158  -0.45105  -0.44976  -0.44853
 Alpha  occ. eigenvalues --   -0.44681  -0.44482  -0.44459  -0.43998  -0.43980
 Alpha  occ. eigenvalues --   -0.43800  -0.43642  -0.43585  -0.43535  -0.43360
 Alpha  occ. eigenvalues --   -0.43078  -0.43052  -0.42814  -0.42698  -0.42581
 Alpha  occ. eigenvalues --   -0.42398  -0.42160  -0.41226  -0.41103  -0.40709
 Alpha  occ. eigenvalues --   -0.40443  -0.39994  -0.39680  -0.39644  -0.39294
 Alpha  occ. eigenvalues --   -0.39062  -0.38998  -0.38514  -0.38461  -0.38366
 Alpha  occ. eigenvalues --   -0.38294  -0.37738  -0.36570  -0.36340  -0.35933
 Alpha  occ. eigenvalues --   -0.35731  -0.35194  -0.34875  -0.33593  -0.33480
 Alpha  occ. eigenvalues --   -0.32838  -0.32657  -0.32578  -0.32296  -0.32036
 Alpha  occ. eigenvalues --   -0.31928  -0.31683  -0.31531  -0.26223  -0.25506
 Alpha  occ. eigenvalues --   -0.23370  -0.22768
 Alpha virt. eigenvalues --   -0.07512  -0.06896  -0.00590   0.00795   0.02321
 Alpha virt. eigenvalues --    0.02935   0.04469   0.04722   0.05650   0.05842
 Alpha virt. eigenvalues --    0.06497   0.07459   0.07490   0.07942   0.08137

 Mulliken charges:
               1
     1  Mg   0.977015
     2  C   -0.038682
     3  C   -0.071985
     4  C   -0.068570
     5  C   -0.096334
     6  N   -0.383193
     7  C   -0.009689
     8  C   -0.026987
     9  C   -0.121312
    10  C    0.109349
    11  C   -0.013736
    12  C   -0.019252
    13  C   -0.123111
    14  H    0.029492
    15  N   -0.491622
    16  C    0.111902
    17  C   -0.136160
    18  C   -0.128143
    19  C    0.164620
    20  C    0.081615
    21  C    0.041237
    22  O   -0.208216
    23  C   -0.027561
    24  N   -0.338895
    25  C    0.031276
    26  C   -0.031737
    27  C   -0.109748
    28  C    0.026814
    29  C    0.019858
    30  C   -0.035711
    31  C   -0.029316
    32  N   -0.401437
    33  C    0.165294
    34  C   -0.242024
    35  C    0.013999
    36  C    0.138373
    37  C    0.096289
    38  C    0.119937
    39  O   -0.173078
    40  C   -0.118255
    41  C    0.285128
    42  O   -0.233233
    43  O   -0.386728
    44  C    0.128170
    45  H   -0.028687
    46  H    0.025166
    47  H    0.001858
    48  H    0.050861
    49  H    0.047779
    50  H    0.031109
    51  H    0.050486
    52  H    0.042796
    53  H    0.033658
    54  H    0.059732
    55  H    0.061094
    56  H    0.063928
    57  H    0.057827
    58  H    0.039865
    59  H    0.047097
    60  H    0.079752
    61  H    0.047388
    62  H    0.039948
    63  H    0.038799
    64  H    0.032543
    65  H    0.032691
    66  H    0.039121
    67  H    0.051691
    68  H    0.028444
    69  H    0.032720
    70  H    0.031905
    71  H    0.042761
    72  H    0.037465
    73  H    0.058685
    74  H    0.027615
    75  H    0.045778
    76  H    0.080994
    77  H    0.063697
    78  H    0.072791
    79  H    0.054987
    80  Mg   0.953196
    81  C    0.048310
    82  C   -0.057400
    83  C   -0.121828
    84  C   -0.096256
    85  N   -0.342750
    86  C   -0.024151
    87  C   -0.029519
    88  C   -0.145887
    89  C    0.045696
    90  C    0.012164
    91  C    0.023686
    92  C   -0.137322
    93  H    0.039239
    94  N   -0.537563
    95  C    0.202103
    96  C   -0.171522
    97  C   -0.063986
    98  C    0.269773
    99  C    0.097604
   100  C   -0.011486
   101  O   -0.238982
   102  C    0.006737
   103  N   -0.368706
   104  C    0.069511
   105  C   -0.083449
   106  C   -0.081666
   107  C    0.063149
   108  C    0.032041
   109  C    0.003105
   110  C   -0.018637
   111  N   -0.406974
   112  C    0.111743
   113  C   -0.185392
   114  C   -0.015260
   115  C    0.112878
   116  C    0.089617
   117  C    0.108479
   118  O   -0.187646
   119  C   -0.127642
   120  C    0.253642
   121  O   -0.269053
   122  O   -0.361192
   123  C    0.149022
   124  H    0.001552
   125  H   -0.005749
   126  H   -0.002790
   127  H    0.049518
   128  H    0.042602
   129  H    0.038420
   130  H    0.051715
   131  H    0.032433
   132  H    0.051909
   133  H    0.051992
   134  H    0.064225
   135  H    0.053266
   136  H    0.001064
   137  H    0.057486
   138  H    0.064842
   139  H    0.039548
   140  H    0.062498
   141  H    0.058232
   142  H    0.032798
   143  H    0.027076
   144  H    0.034033
   145  H    0.045448
   146  H    0.027824
   147  H    0.039418
   148  H    0.019987
   149  H    0.027107
   150  H    0.029229
   151  H    0.034558
   152  H    0.036172
   153  H    0.067919
   154  H    0.051122
   155  H    0.050900
   156  H    0.058116
   157  H    0.047290
   158  H    0.050815
 Sum of Mulliken charges =  -0.00000

 Dipole moment (field-independent basis, Debye):
    X=              0.1777    Y=             -1.8748    Z=             -0.8803  Tot=              2.0788
 Quadrupole moment (field-independent basis, Debye-Ang):
   XX=           -381.7596   YY=           -550.6589   ZZ=           -474.9317
   XY=             99.8262   XZ=             63.7345   YZ=              5.5932

 Normal termination of Gaussian 16 at Sun Sep 19 06:45:44 2021.
