 Gaussian 16, Revision A.03,
 Gaussian 16:  ES64L-G16RevA.03 25-Dec-2016

 --------------------------------
 #p wB97XD/Def2SVP td=(nstates=5)
 --------------------------------

 --------------------------------
 TDDFT excited states in gaussian
 --------------------------------
 Symbolic Z-matrix:
 Charge =  0 Multiplicity = 1

                         Standard orientation:
 ---------------------------------------------------------------------
 Center     Atomic      Atomic             Coordinates (Angstroms)
 Number     Number       Type             X           Y           Z
 ---------------------------------------------------------------------
      1         12           0       19.563954   -0.810331   -0.003246
      2          6           0       21.758284    2.016056   -0.096356
      3          6           0       18.069197    0.627226    2.706403
      4          6           0       17.919380   -3.494930    0.377443
      5          6           0       21.907366   -2.507474   -1.945870
      6          7           0       19.953101    1.084355    1.073497
      7          6           0       20.784291    2.107271    0.900471
      8          6           0       20.474497    3.319036    1.829462
      9          6           0       19.709678    2.550836    2.998615
     10          6           0       19.181644    1.367493    2.206906
     11          6           0       20.635172    2.034302    4.095500
     12          6           0       19.549785    4.376871    1.138358
     13          6           0       19.465066    5.732340    1.846087
     14          1           0       19.350451    6.937736    1.039098
     15          7           0       17.903578   -1.163287    1.007409
     16          6           0       17.440631   -0.466737    2.073141
     17          6           0       16.173532   -1.119255    2.467299
     18          6           0       16.034424   -2.365580    1.663919
     19          6           0       17.309354   -2.405236    0.994323
     20          6           0       15.223899   -0.535474    3.467872
     21          6           0       14.932146   -3.368190    1.530173
     22          8           0       15.106098   -4.497944    0.957486
     23          6           0       13.650773   -3.025466    2.173341
     24          7           0       19.959370   -2.799887   -0.496142
     25          6           0       19.053696   -3.758834   -0.274422
     26          6           0       19.434926   -5.038481   -0.957873
     27          6           0       20.674981   -4.684327   -1.899463
     28          6           0       20.850850   -3.196252   -1.508345
     29          6           0       19.812613   -6.204169   -0.033463
     30          6           0       20.542195   -5.041517   -3.401196
     31          6           0       19.479407   -4.177411   -4.042211
     32          7           0       21.409586   -0.305726   -1.027972
     33          6           0       22.233199   -1.174611   -1.758295
     34          6           0       23.419153   -0.401400   -2.170273
     35          6           0       23.209530    0.867329   -1.633401
     36          6           0       21.983727    0.878235   -0.908433
     37          6           0       24.533711   -0.907998   -2.895222
     38          6           0       23.747871    2.209479   -1.482806
     39          8           0       24.710593    2.815699   -1.955202
     40          6           0       22.889669    2.972722   -0.379730
     41          6           0       22.542541    4.328485   -0.931744
     42          8           0       21.774292    4.444023   -1.908376
     43          8           0       22.973481    5.276616   -0.085647
     44          6           0       22.634765    6.645076   -0.559718
     45          1           0       17.678987    0.865443    3.697831
     46          1           0       17.330756   -4.414588    0.391169
     47          1           0       22.639883   -2.947119   -2.625270
     48          1           0       21.355171    3.822484    2.228683
     49          1           0       18.883401    3.138024    3.398864
     50          1           0       21.683294    2.167164    3.827716
     51          1           0       20.400189    0.974849    4.199593
     52          1           0       20.391235    2.491007    5.055027
     53          1           0       18.511258    4.057349    1.224538
     54          1           0       19.847465    4.530063    0.100453
     55          1           0       20.255013    5.843957    2.589346
     56          1           0       18.542220    5.757934    2.425657
     57          1           0       15.673363    0.296461    4.008622
     58          1           0       15.056980   -1.296353    4.230046
     59          1           0       14.273048   -0.253628    3.015347
     60          1           0       13.812936   -2.874492    3.240796
     61          1           0       12.954802   -3.817000    1.897753
     62          1           0       13.301568   -2.071029    1.778304
     63          1           0       18.616392   -5.413226   -1.571057
     64          1           0       21.586162   -5.193527   -1.584600
     65          1           0       19.211003   -7.099850   -0.190070
     66          1           0       19.735421   -5.856339    0.996269
     67          1           0       20.858521   -6.505989   -0.082422
     68          1           0       20.226583   -6.077707   -3.518011
     69          1           0       21.470504   -4.912805   -3.957905
     70          1           0       18.558204   -4.708371   -3.804935
     71          1           0       19.632323   -4.123582   -5.120603
     72          1           0       19.422632   -3.197940   -3.566922
     73          1           0       24.775749   -0.156661   -3.646808
     74          1           0       24.303308   -1.868645   -3.355302
     75          1           0       25.271534   -0.993268   -2.097599
     76          1           0       23.513457    3.040828    0.510984
     77          1           0       23.567171    7.207571   -0.609223
     78          1           0       21.853447    7.017979    0.102770
     79          1           0       22.290364    6.726375   -1.591279
     80         12           0      -20.328878   -0.506997    0.068009
     81          6           0      -19.632398    2.655282   -1.258474
     82          6           0      -20.068369    0.768855    3.227906
     83          6           0      -20.652145   -3.583001    1.240564
     84          6           0      -20.383011   -1.744441   -3.284934
     85          7           0      -19.846254    1.503301    0.866481
     86          6           0      -19.660963    2.682617    0.179767
     87          6           0      -19.692878    3.863351    1.132555
     88          6           0      -19.548630    3.179856    2.549560
     89          6           0      -19.941484    1.711970    2.167818
     90          6           0      -18.143709    3.270797    3.131494
     91          6           0      -20.942594    4.766879    0.826412
     92          6           0      -21.174979    5.879366    1.886172
     93          1           0      -19.945464    6.416844    2.588562
     94          7           0      -20.372037   -1.266252    1.908162
     95          6           0      -20.142560   -0.610723    3.111262
     96          6           0      -20.168704   -1.541424    4.253320
     97          6           0      -20.382568   -2.816103    3.644107
     98          6           0      -20.467578   -2.582636    2.204864
     99          6           0      -20.045307   -1.100971    5.663817
    100          6           0      -20.481404   -4.137546    4.361733
    101          8           0      -20.717910   -5.214964    3.748105
    102          6           0      -20.381650   -4.221963    5.860732
    103          7           0      -20.552034   -2.404736   -0.907896
    104          6           0      -20.666063   -3.495726   -0.150090
    105          6           0      -20.672071   -4.802789   -1.058756
    106          6           0      -20.540671   -4.197171   -2.565708
    107          6           0      -20.472607   -2.702960   -2.247235
    108          6           0      -19.468844   -5.730690   -0.612503
    109          6           0      -21.790250   -4.487640   -3.502367
    110          6           0      -21.767877   -5.846436   -4.259612
    111          7           0      -20.012258    0.206669   -1.858378
    112          6           0      -20.175628   -0.360638   -3.149776
    113          6           0      -19.970761    0.719234   -4.211458
    114          6           0      -19.684052    1.896771   -3.528297
    115          6           0      -19.803217    1.541802   -2.091055
    116          6           0      -20.096982    0.581199   -5.696356
    117          6           0      -19.411256    3.310703   -3.638123
    118          8           0      -19.269111    4.053995   -4.614190
    119          6           0      -19.545682    3.915428   -2.153408
    120          6           0      -18.400832    4.832873   -1.789488
    121          8           0      -17.360623    4.457226   -1.320306
    122          8           0      -18.796096    6.188489   -1.846692
    123          6           0      -17.976191    7.160943   -1.108578
    124          1           0      -19.907427    1.313035    4.161258
    125          1           0      -20.742862   -4.597956    1.633505
    126          1           0      -20.282729   -2.069402   -4.322717
    127          1           0      -18.817826    4.476605    0.921161
    128          1           0      -20.260626    3.510382    3.306502
    129          1           0      -18.259085    3.756177    4.100497
    130          1           0      -17.504119    3.778411    2.409811
    131          1           0      -17.752500    2.302691    3.443359
    132          1           0      -21.695011    4.014908    0.590743
    133          1           0      -20.727307    5.235685   -0.133195
    134          1           0      -21.859299    5.406534    2.590670
    135          1           0      -21.661316    6.719315    1.390330
    136          1           0      -19.110708   -1.569107    5.972325
    137          1           0      -20.902756   -1.376040    6.277418
    138          1           0      -19.903757   -0.042294    5.884972
    139          1           0      -21.219069   -3.682444    6.301036
    140          1           0      -19.397170   -3.767560    5.978934
    141          1           0      -20.313289   -5.222402    6.287092
    142          1           0      -21.674785   -5.174403   -0.844081
    143          1           0      -19.581352   -4.310630   -3.072406
    144          1           0      -18.853862   -5.320410    0.188292
    145          1           0      -18.804538   -5.907130   -1.458899
    146          1           0      -19.932332   -6.623802   -0.194461
    147          1           0      -22.046623   -3.632851   -4.127582
    148          1           0      -22.646854   -4.556023   -2.832589
    149          1           0      -22.691934   -6.362291   -4.001036
    150          1           0      -20.852059   -6.374649   -3.994023
    151          1           0      -21.764047   -5.711978   -5.341543
    152          1           0      -21.024224    1.085839   -5.968637
    153          1           0      -20.108758   -0.472421   -5.977976
    154          1           0      -19.337431    1.054941   -6.317900
    155          1           0      -20.500017    4.440743   -2.129953
    156          1           0      -17.105764    7.326892   -1.742779
    157          1           0      -17.795663    6.819942   -0.088952
    158          1           0      -18.588524    8.056602   -1.007449
 ---------------------------------------------------------------------

 SCF Done:  E(RwB97XD) =  -4070.62772202     A.U. after   20 cycles

 Excitation energies and oscillator strengths:

 Excited State   1:      Singlet-A      1.6216 eV  764.58 nm  f=0.3820  <S**2>=0.000
     309 -> 316        0.18180
     311 -> 313        0.68326
     309 <- 316        0.11454
 This state for optimization and/or second-order correction.
 Total Energy, E(TD-HF/TD-DFT) =  -4070.56812948
 Copying the excited state density for this state as the 1-particle RhoCI density.

 Excited State   2:      Singlet-A      1.6549 eV  749.20 nm  f=0.3842  <S**2>=0.000
     310 -> 315       -0.20543
     312 -> 314        0.67800
     310 <- 315       -0.12142

 Excited State   3:      Singlet-A      2.1385 eV  579.76 nm  f=0.0952  <S**2>=0.000
     309 -> 313        0.63836
     311 -> 316       -0.28191

 Excited State   4:      Singlet-A      2.2347 eV  554.82 nm  f=0.0335  <S**2>=0.000
     310 -> 314        0.58750
     312 -> 315        0.38607

 Excited State   5:      Singlet-A      3.3014 eV  375.55 nm  f=0.0077  <S**2>=0.000
     307 -> 313       -0.44209
     308 -> 313        0.48838
     311 -> 316       -0.17030

 The electronic state is 1-A.
 Alpha  occ. eigenvalues --  -46.94433 -46.94095 -19.31469 -19.29233 -19.25239
 Alpha  occ. eigenvalues --  -19.24281 -19.23962 -19.23855 -19.23470 -19.23194
 Alpha  occ. eigenvalues --  -14.47013 -14.46755 -14.46139 -14.46023 -14.44593
 Alpha  occ. eigenvalues --  -14.44520 -14.43990 -14.43129 -10.43295 -10.42907
 Alpha  occ. eigenvalues --  -10.39596 -10.39400 -10.39252 -10.38382 -10.35505
 Alpha  occ. eigenvalues --  -10.35423 -10.35403 -10.34957 -10.34879 -10.34775
 Alpha  occ. eigenvalues --  -10.34677 -10.34581 -10.34514 -10.34404 -10.34386
 Alpha  occ. eigenvalues --  -10.34382 -10.34189 -10.34167 -10.33866 -10.33799
 Alpha  occ. eigenvalues --  -10.33609 -10.33507 -10.33423 -10.33256 -10.33214
 Alpha  occ. eigenvalues --  -10.32786 -10.32632 -10.32438 -10.32363 -10.32309
 Alpha  occ. eigenvalues --  -10.32302 -10.32259 -10.32118 -10.31838 -10.31820
 Alpha  occ. eigenvalues --  -10.31769 -10.31760 -10.31714 -10.31680 -10.31584
 Alpha  occ. eigenvalues --  -10.31520 -10.31482 -10.31445 -10.31399 -10.31160
 Alpha  occ. eigenvalues --  -10.31129 -10.31002 -10.30653 -10.30605 -10.30391
 Alpha  occ. eigenvalues --  -10.30324 -10.30244 -10.30098 -10.30069 -10.30052
 Alpha  occ. eigenvalues --  -10.30044 -10.29963 -10.29649 -10.29636 -10.29442
 Alpha  occ. eigenvalues --  -10.29246 -10.29211 -10.29209 -10.28837 -10.28776
 Alpha  occ. eigenvalues --  -10.28445  -3.20532  -3.20255  -1.94132  -1.93832
 Alpha  occ. eigenvalues --   -1.93645  -1.93535  -1.93397  -1.93235  -1.18793
 Alpha  occ. eigenvalues --   -1.17637  -1.11392  -1.10822  -1.10041  -1.09999
 Alpha  occ. eigenvalues --   -1.09402  -1.08805  -1.06538  -1.06342  -1.05740
 Alpha  occ. eigenvalues --   -1.05493  -1.05227  -1.04840  -1.04406  -1.03419
 Alpha  occ. eigenvalues --   -0.93897  -0.93595  -0.91381  -0.91019  -0.90868
 Alpha  occ. eigenvalues --   -0.90449  -0.90139  -0.89763  -0.89759  -0.89560
 Alpha  occ. eigenvalues --   -0.89502  -0.89199  -0.88659  -0.88254  -0.86846
 Alpha  occ. eigenvalues --   -0.86169  -0.85783  -0.84865  -0.84861  -0.84530
 Alpha  occ. eigenvalues --   -0.84134  -0.83829  -0.83490  -0.82705  -0.82523
 Alpha  occ. eigenvalues --   -0.81975  -0.80956  -0.80740  -0.79360  -0.79110
 Alpha  occ. eigenvalues --   -0.78910  -0.78817  -0.77824  -0.77715  -0.76781
 Alpha  occ. eigenvalues --   -0.76496  -0.74720  -0.74084  -0.73598  -0.73452
 Alpha  occ. eigenvalues --   -0.71765  -0.71360  -0.70799  -0.70526  -0.70304
 Alpha  occ. eigenvalues --   -0.69615  -0.69142  -0.69100  -0.67422  -0.67189
 Alpha  occ. eigenvalues --   -0.67129  -0.66807  -0.66562  -0.66193  -0.65929
 Alpha  occ. eigenvalues --   -0.65779  -0.64248  -0.63289  -0.62675  -0.62404
 Alpha  occ. eigenvalues --   -0.61727  -0.61483  -0.60939  -0.60717  -0.60461
 Alpha  occ. eigenvalues --   -0.59752  -0.59538  -0.59515  -0.59237  -0.58777
 Alpha  occ. eigenvalues --   -0.58262  -0.58146  -0.57834  -0.57827  -0.57462
 Alpha  occ. eigenvalues --   -0.57230  -0.56543  -0.56435  -0.56147  -0.55898
 Alpha  occ. eigenvalues --   -0.55782  -0.55617  -0.55214  -0.55211  -0.55131
 Alpha  occ. eigenvalues --   -0.54843  -0.54648  -0.54459  -0.54289  -0.54160
 Alpha  occ. eigenvalues --   -0.53847  -0.53802  -0.53661  -0.53498  -0.53368
 Alpha  occ. eigenvalues --   -0.53109  -0.53098  -0.52805  -0.52502  -0.52408
 Alpha  occ. eigenvalues --   -0.52052  -0.51910  -0.51846  -0.51474  -0.51417
 Alpha  occ. eigenvalues --   -0.51391  -0.51249  -0.51139  -0.50985  -0.50933
 Alpha  occ. eigenvalues --   -0.50792  -0.50482  -0.50444  -0.50390  -0.50351
 Alpha  occ. eigenvalues --   -0.50070  -0.50036  -0.49588  -0.49372  -0.49210
 Alpha  occ. eigenvalues --   -0.48796  -0.48664  -0.48444  -0.48281  -0.48117
 Alpha  occ. eigenvalues --   -0.48071  -0.48027  -0.47704  -0.47687  -0.47526
 Alpha  occ. eigenvalues --   -0.47151  -0.47109  -0.47073  -0.46783  -0.46638
 Alpha  occ. eigenvalues --   -0.46471  -0.46382  -0.46119  -0.46019  -0.45965
 Alpha  occ. eigenvalues --   -0.45928  -0.45908  -0.45432  -0.45347  -0.45293
 Alpha  occ. eigenvalues --   -0.45082  -0.45014  -0.44931  -0.44851  -0.44627
 Alpha  occ. eigenvalues --   -0.44530  -0.44491  -0.44238  -0.44115  -0.43884
 Alpha  occ. eigenvalues --   -0.43679  -0.43506  -0.43397  -0.43312  -0.42998
 Alpha  occ. eigenvalues --   -0.42839  -0.42829  -0.42709  -0.42421  -0.42268
 Alpha  occ. eigenvalues --   -0.42099  -0.42092  -0.41351  -0.41132  -0.40970
 Alpha  occ. eigenvalues --   -0.40482  -0.40331  -0.40116  -0.39911  -0.39658
 Alpha  occ. eigenvalues --   -0.39326  -0.39159  -0.38841  -0.38680  -0.38268
 Alpha  occ. eigenvalues --   -0.38157  -0.37821  -0.36500  -0.36254  -0.36155
 Alpha  occ. eigenvalues --   -0.35750  -0.35426  -0.35315  -0.33493  -0.33325
 Alpha  occ. eigenvalues --   -0.33156  -0.33082  -0.32611  -0.32466  -0.32248
 Alpha  occ. eigenvalues --   -0.31973  -0.31588  -0.31450  -0.25975  -0.25928
 Alpha  occ. eigenvalues --   -0.22893  -0.22236
 Alpha virt. eigenvalues --   -0.07076  -0.06253  -0.00256   0.00209   0.01820
 Alpha virt. eigenvalues --    0.02014   0.04241   0.04341   0.06297   0.06298
 Alpha virt. eigenvalues --    0.06688   0.07131   0.07287   0.07681   0.08469

 Mulliken charges:
               1
     1  Mg   0.978518
     2  C   -0.019925
     3  C   -0.101423
     4  C   -0.061322
     5  C   -0.070968
     6  N   -0.323141
     7  C   -0.008728
     8  C   -0.058152
     9  C   -0.138174
    10  C    0.062047
    11  C    0.058292
    12  C    0.014085
    13  C   -0.126943
    14  H    0.052400
    15  N   -0.518347
    16  C    0.183550
    17  C   -0.195975
    18  C   -0.036868
    19  C    0.166547
    20  C    0.060684
    21  C    0.056572
    22  O   -0.280038
    23  C    0.001908
    24  N   -0.410219
    25  C    0.066108
    26  C   -0.084887
    27  C   -0.063858
    28  C    0.089677
    29  C    0.031890
    30  C   -0.016726
    31  C   -0.058141
    32  N   -0.398707
    33  C    0.097246
    34  C   -0.187926
    35  C   -0.040066
    36  C    0.126349
    37  C    0.081452
    38  C    0.128809
    39  O   -0.224760
    40  C   -0.076934
    41  C    0.275937
    42  O   -0.284580
    43  O   -0.335655
    44  C    0.120625
    45  H    0.007846
    46  H    0.010700
    47  H   -0.017364
    48  H    0.025998
    49  H    0.022613
    50  H    0.047105
    51  H    0.037790
    52  H    0.040066
    53  H    0.035398
    54  H    0.067697
    55  H    0.038922
    56  H    0.040609
    57  H    0.029647
    58  H    0.048961
    59  H    0.062191
    60  H    0.057745
    61  H    0.061854
    62  H    0.053019
    63  H    0.042953
    64  H    0.035649
    65  H    0.045330
    66  H    0.034310
    67  H    0.025696
    68  H    0.032619
    69  H    0.029410
    70  H    0.029229
    71  H    0.042220
    72  H    0.049663
    73  H    0.070902
    74  H    0.031400
    75  H    0.069385
    76  H    0.065849
    77  H    0.061263
    78  H    0.062794
    79  H    0.070292
    80  Mg   0.984771
    81  C   -0.029929
    82  C   -0.097699
    83  C   -0.088082
    84  C   -0.091610
    85  N   -0.320757
    86  C   -0.001543
    87  C   -0.052213
    88  C   -0.133900
    89  C    0.011289
    90  C    0.044537
    91  C   -0.023321
    92  C   -0.099785
    93  H    0.046621
    94  N   -0.499616
    95  C    0.214670
    96  C   -0.158701
    97  C   -0.076705
    98  C    0.175358
    99  C    0.074002
   100  C    0.037863
   101  O   -0.272499
   102  C    0.020277
   103  N   -0.348895
   104  C    0.045762
   105  C   -0.087814
   106  C   -0.049380
   107  C    0.040471
   108  C    0.013464
   109  C   -0.039907
   110  C   -0.032203
   111  N   -0.451923
   112  C    0.124961
   113  C   -0.194081
   114  C   -0.009048
   115  C    0.139267
   116  C    0.070670
   117  C    0.151179
   118  O   -0.214983
   119  C   -0.144478
   120  C    0.289319
   121  O   -0.219340
   122  O   -0.405867
   123  C    0.143377
   124  H   -0.011148
   125  H    0.021201
   126  H    0.001242
   127  H    0.028676
   128  H    0.029446
   129  H    0.028555
   130  H    0.059077
   131  H    0.036146
   132  H    0.041285
   133  H    0.036952
   134  H    0.058421
   135  H    0.059629
   136  H    0.054006
   137  H    0.057759
   138  H    0.036099
   139  H    0.065718
   140  H    0.039311
   141  H    0.055219
   142  H    0.050636
   143  H    0.044476
   144  H    0.052647
   145  H    0.038292
   146  H    0.049601
   147  H    0.034815
   148  H    0.019204
   149  H    0.041768
   150  H    0.039435
   151  H    0.036846
   152  H    0.060607
   153  H    0.027160
   154  H    0.060477
   155  H    0.091871
   156  H    0.068545
   157  H    0.050114
   158  H    0.052333
 Sum of Mulliken charges =  -0.00000

 Dipole moment (field-independent basis, Debye):
    X=             -4.1274    Y=              0.4553    Z=              8.3596  Tot=              9.3342
 Quadrupole moment (field-independent basis, Debye-Ang):
   XX=           -538.0900   YY=           -499.7129   ZZ=           -483.4120
   XY=            -38.6879   XZ=              2.6311   YZ=             58.2521

 Normal termination of Gaussian 16 at Sun Sep 19 09:19:25 2021.
