 Gaussian 16, Revision A.03,
 Gaussian 16:  ES64L-G16RevA.03 25-Dec-2016

 --------------------------------
 #p wB97XD/Def2SVP td=(nstates=5)
 --------------------------------

 --------------------------------
 TDDFT excited states in gaussian
 --------------------------------
 Symbolic Z-matrix:
 Charge =  0 Multiplicity = 1

                         Standard orientation:
 ---------------------------------------------------------------------
 Center     Atomic      Atomic             Coordinates (Angstroms)
 Number     Number       Type             X           Y           Z
 ---------------------------------------------------------------------
      1         12           0      -25.023211   -0.640464   -0.387927
      2          6           0      -26.117734    2.052688    1.452334
      3          6           0      -23.758057    1.615694   -2.747529
      4          6           0      -23.998437   -3.225562   -2.301429
      5          6           0      -26.595429   -2.763170    1.742685
      6          7           0      -25.197888    1.609231   -0.723058
      7          6           0      -25.493551    2.498105    0.317974
      8          6           0      -25.021037    3.932037    0.006878
      9          6           0      -24.370827    3.722222   -1.410110
     10          6           0      -24.375921    2.231012   -1.669440
     11          6           0      -25.075004    4.503221   -2.512435
     12          6           0      -24.050837    4.661252    1.002377
     13          6           0      -24.639306    5.947146    1.801042
     14          1           0      -23.824257    7.208478    1.498992
     15          7           0      -24.130939   -0.801495   -2.271236
     16          6           0      -23.570344    0.248645   -3.016141
     17          6           0      -22.733246   -0.258893   -4.108227
     18          6           0      -22.832038   -1.753440   -4.076319
     19          6           0      -23.626931   -2.021684   -2.811949
     20          6           0      -21.988157    0.643034   -5.067358
     21          6           0      -22.287026   -2.775398   -4.958168
     22          8           0      -22.589372   -3.964854   -4.781944
     23          6           0      -21.402743   -2.455385   -6.150623
     24          7           0      -25.346111   -2.618214   -0.308399
     25          6           0      -24.711479   -3.560100   -1.139233
     26          6           0      -24.900122   -5.069650   -0.704812
     27          6           0      -25.794589   -4.841555    0.620491
     28          6           0      -25.901671   -3.301632    0.695456
     29          6           0      -25.612459   -5.998288   -1.807287
     30          6           0      -25.127202   -5.478964    1.887443
     31          6           0      -26.019111   -6.127904    2.899044
     32          7           0      -26.240130   -0.380231    1.236799
     33          6           0      -26.779905   -1.371368    2.061554
     34          6           0      -27.370738   -0.800273    3.223354
     35          6           0      -27.038445    0.596134    3.066439
     36          6           0      -26.431664    0.760585    1.814825
     37          6           0      -28.029793   -1.420310    4.383189
     38          6           0      -27.254572    1.890102    3.634091
     39          8           0      -27.761650    2.313412    4.678735
     40          6           0      -26.778247    2.911838    2.504424
     41          6           0      -27.952676    3.701513    2.048301
     42          8           0      -28.610580    3.545367    1.095996
     43          8           0      -28.137226    4.808559    2.873303
     44          6           0      -28.816203    5.927975    2.254401
     45          1           0      -23.289218    2.325123   -3.432667
     46          1           0      -23.666082   -4.143771   -2.790058
     47          1           0      -26.971507   -3.446067    2.507273
     48          1           0      -25.898198    4.565802   -0.119103
     49          1           0      -23.357747    4.123122   -1.452786
     50          1           0      -25.535510    3.796191   -3.201949
     51          1           0      -24.249833    5.020168   -3.000803
     52          1           0      -25.775686    5.268595   -2.179418
     53          1           0      -23.173752    4.979925    0.438556
     54          1           0      -23.725406    3.992018    1.798944
     55          1           0      -24.452044    5.673385    2.839504
     56          1           0      -25.690075    6.099372    1.555448
     57          1           0      -22.737703    1.079210   -5.728845
     58          1           0      -21.300310    0.025294   -5.642685
     59          1           0      -21.523241    1.502377   -4.583675
     60          1           0      -21.431039   -3.345493   -6.779454
     61          1           0      -20.381061   -2.185125   -5.881705
     62          1           0      -21.774217   -1.722391   -6.866470
     63          1           0      -23.948788   -5.476716   -0.363770
     64          1           0      -26.778496   -5.310608    0.597317
     65          1           0      -26.290316   -6.680802   -1.294237
     66          1           0      -24.974571   -6.700290   -2.342929
     67          1           0      -26.159005   -5.426674   -2.557649
     68          1           0      -24.463773   -4.802113    2.425561
     69          1           0      -24.484924   -6.323788    1.639483
     70          1           0      -25.941609   -5.490146    3.779444
     71          1           0      -25.740633   -7.078806    3.353296
     72          1           0      -27.044439   -6.146591    2.528201
     73          1           0      -27.628543   -2.426453    4.507817
     74          1           0      -29.075733   -1.490085    4.084699
     75          1           0      -27.986917   -0.724159    5.221041
     76          1           0      -26.033807    3.596355    2.910282
     77          1           0      -29.862457    5.624302    2.245655
     78          1           0      -28.427922    5.978874    1.237301
     79          1           0      -28.702294    6.840479    2.840302
     80         12           0       25.083801   -0.630142    0.521074
     81          6           0       25.928461    2.426683   -1.225563
     82          6           0       25.118229    1.150001    3.216865
     83          6           0       24.591918   -3.559352    1.949474
     84          6           0       25.891667   -2.548496   -2.458341
     85          7           0       25.370604    1.617140    0.902197
     86          6           0       25.707275    2.685747    0.097474
     87          6           0       25.844114    3.922076    0.910886
     88          6           0       26.060827    3.387103    2.349797
     89          6           0       25.529150    1.946153    2.165468
     90          6           0       27.534991    3.374591    2.810208
     91          6           0       24.513739    4.733597    0.861231
     92          6           0       24.648983    6.292898    0.661490
     93          1           0       23.417714    7.132345    0.134868
     94          7           0       24.827039   -1.112434    2.437180
     95          6           0       24.757029   -0.249340    3.415371
     96          6           0       24.401421   -0.965405    4.625939
     97          6           0       24.139551   -2.284951    4.187867
     98          6           0       24.549011   -2.356549    2.811470
     99          6           0       24.206949   -0.219553    5.958565
    100          6           0       23.603041   -3.412253    5.025336
    101          8           0       23.452563   -4.496955    4.547693
    102          6           0       23.166008   -3.135379    6.426845
    103          7           0       25.518543   -2.816842   -0.160146
    104          6           0       25.039619   -3.757321    0.651498
    105          6           0       24.926302   -5.072310   -0.023826
    106          6           0       25.554282   -4.738485   -1.414009
    107          6           0       25.692661   -3.239126   -1.391781
    108          6           0       25.514226   -6.330219    0.711197
    109          6           0       24.660045   -5.292911   -2.590805
    110          6           0       25.123027   -6.545485   -3.385880
    111          7           0       25.740270   -0.259593   -1.370733
    112          6           0       25.956786   -1.073399   -2.505144
    113          6           0       26.321484   -0.222859   -3.656938
    114          6           0       26.293578    1.084037   -3.188878
    115          6           0       25.996208    1.046757   -1.837108
    116          6           0       26.792043   -0.743181   -5.036766
    117          6           0       26.505100    2.496197   -3.642785
    118          8           0       26.755214    3.004570   -4.710101
    119          6           0       26.443937    3.425541   -2.329271
    120          6           0       25.685836    4.601679   -2.551514
    121          8           0       24.474312    4.660730   -2.298997
    122          8           0       26.357439    5.684395   -3.110688
    123          6           0       25.664642    7.007402   -3.182443
    124          1           0       25.052954    1.638607    4.190627
    125          1           0       24.366133   -4.524477    2.407532
    126          1           0       26.128371   -3.109216   -3.363892
    127          1           0       26.756776    4.449955    0.633078
    128          1           0       25.534311    3.910394    3.147712
    129          1           0       27.665095    4.003134    3.691679
    130          1           0       28.127751    3.763324    1.982706
    131          1           0       27.936328    2.383731    3.024722
    132          1           0       24.043749    4.551038    1.827781
    133          1           0       23.909116    4.263103    0.086147
    134          1           0       25.510535    6.467579    0.017610
    135          1           0       24.893009    6.630591    1.669424
    136          1           0       23.156713   -0.294002    6.243605
    137          1           0       24.540449    0.817414    5.978567
    138          1           0       24.692806   -0.764785    6.767235
    139          1           0       22.338622   -2.427798    6.473489
    140          1           0       23.883112   -2.631410    7.074730
    141          1           0       22.782341   -4.058709    6.861572
    142          1           0       23.865516   -5.273176   -0.173840
    143          1           0       26.579693   -5.107628   -1.442893
    144          1           0       25.820744   -5.988625    1.699317
    145          1           0       26.287608   -6.897733    0.192397
    146          1           0       24.719664   -7.069820    0.811429
    147          1           0       24.553546   -4.515776   -3.348145
    148          1           0       23.648174   -5.297821   -2.185614
    149          1           0       24.289516   -7.237773   -3.503489
    150          1           0       25.955713   -7.018600   -2.865124
    151          1           0       25.444785   -6.266159   -4.389867
    152          1           0       26.274488   -1.682456   -5.229666
    153          1           0       27.848549   -1.005567   -4.976851
    154          1           0       26.597825   -0.025413   -5.834090
    155          1           0       27.465290    3.702298   -2.069501
    156          1           0       25.437550    7.386035   -2.184864
    157          1           0       24.870717    7.003421   -3.928317
    158          1           0       26.423617    7.736446   -3.465981
 ---------------------------------------------------------------------

 SCF Done:  E(RwB97XD) =  -4070.56540369     A.U. after   19 cycles

 Excitation energies and oscillator strengths:

 Excited State   1:      Singlet-A      1.6222 eV  764.28 nm  f=0.4062  <S**2>=0.000
     309 -> 315       -0.16235
     312 -> 313        0.68613
     309 <- 315       -0.10569
 This state for optimization and/or second-order correction.
 Total Energy, E(TD-HF/TD-DFT) =  -4070.50578738
 Copying the excited state density for this state as the 1-particle RhoCI density.

 Excited State   2:      Singlet-A      1.6949 eV  731.53 nm  f=0.3816  <S**2>=0.000
     310 -> 316       -0.16833
     311 -> 314        0.68669
     310 <- 316       -0.11048

 Excited State   3:      Singlet-A      2.1227 eV  584.10 nm  f=0.2186  <S**2>=0.000
     310 -> 314        0.67195
     311 -> 316        0.20543

 Excited State   4:      Singlet-A      2.1351 eV  580.69 nm  f=0.1253  <S**2>=0.000
     309 -> 313        0.64274
     312 -> 315        0.25997

 Excited State   5:      Singlet-A      3.2508 eV  381.40 nm  f=0.0040  <S**2>=0.000
     305 -> 313        0.47437
     306 -> 313       -0.38302
     308 -> 313       -0.30309
     312 -> 315       -0.12198

 The electronic state is 1-A.
 Alpha  occ. eigenvalues --  -46.95805 -46.94315 -19.29215 -19.27385 -19.24650
 Alpha  occ. eigenvalues --  -19.24451 -19.24340 -19.23957 -19.23479 -19.22974
 Alpha  occ. eigenvalues --  -14.47196 -14.46625 -14.46413 -14.44961 -14.44760
 Alpha  occ. eigenvalues --  -14.44441 -14.44393 -14.43153 -10.42348 -10.41902
 Alpha  occ. eigenvalues --  -10.39958 -10.39356 -10.39150 -10.38196 -10.35937
 Alpha  occ. eigenvalues --  -10.35394 -10.35367 -10.35319 -10.35182 -10.35171
 Alpha  occ. eigenvalues --  -10.35121 -10.34763 -10.34758 -10.34750 -10.34345
 Alpha  occ. eigenvalues --  -10.34233 -10.34100 -10.34051 -10.33856 -10.33610
 Alpha  occ. eigenvalues --  -10.33530 -10.33381 -10.33333 -10.33256 -10.32985
 Alpha  occ. eigenvalues --  -10.32873 -10.32760 -10.32322 -10.32318 -10.32293
 Alpha  occ. eigenvalues --  -10.32268 -10.32159 -10.31999 -10.31924 -10.31864
 Alpha  occ. eigenvalues --  -10.31817 -10.31662 -10.31625 -10.31438 -10.31384
 Alpha  occ. eigenvalues --  -10.31341 -10.31325 -10.31324 -10.31184 -10.30880
 Alpha  occ. eigenvalues --  -10.30600 -10.30586 -10.30511 -10.30419 -10.30375
 Alpha  occ. eigenvalues --  -10.30374 -10.30299 -10.30191 -10.30116 -10.30045
 Alpha  occ. eigenvalues --  -10.29903 -10.29887 -10.29814 -10.29753 -10.29622
 Alpha  occ. eigenvalues --  -10.29573 -10.29422 -10.29371 -10.29151 -10.29107
 Alpha  occ. eigenvalues --  -10.28491  -3.21784  -3.20484  -1.95359  -1.94916
 Alpha  occ. eigenvalues --   -1.94745  -1.94048  -1.93622  -1.93477  -1.18888
 Alpha  occ. eigenvalues --   -1.16346  -1.14452  -1.13069  -1.11833  -1.10309
 Alpha  occ. eigenvalues --   -1.09910  -1.08556  -1.07852  -1.06999  -1.06942
 Alpha  occ. eigenvalues --   -1.06634  -1.05458  -1.04077  -1.02987  -1.02718
 Alpha  occ. eigenvalues --   -0.94547  -0.93215  -0.91172  -0.91120  -0.90840
 Alpha  occ. eigenvalues --   -0.90507  -0.90399  -0.89907  -0.89794  -0.89646
 Alpha  occ. eigenvalues --   -0.89288  -0.89143  -0.88670  -0.87151  -0.86300
 Alpha  occ. eigenvalues --   -0.86159  -0.85365  -0.84969  -0.84350  -0.84101
 Alpha  occ. eigenvalues --   -0.83940  -0.83848  -0.82901  -0.82803  -0.82402
 Alpha  occ. eigenvalues --   -0.82195  -0.80798  -0.80781  -0.79335  -0.79062
 Alpha  occ. eigenvalues --   -0.78629  -0.78611  -0.78155  -0.77410  -0.77221
 Alpha  occ. eigenvalues --   -0.77163  -0.75069  -0.74752  -0.73686  -0.73114
 Alpha  occ. eigenvalues --   -0.71360  -0.71232  -0.70743  -0.70609  -0.69996
 Alpha  occ. eigenvalues --   -0.69900  -0.69557  -0.69306  -0.68080  -0.67605
 Alpha  occ. eigenvalues --   -0.67558  -0.67253  -0.67015  -0.67005  -0.66263
 Alpha  occ. eigenvalues --   -0.65906  -0.63517  -0.63074  -0.62847  -0.62229
 Alpha  occ. eigenvalues --   -0.62096  -0.61353  -0.61084  -0.61011  -0.60440
 Alpha  occ. eigenvalues --   -0.60259  -0.60057  -0.59662  -0.59553  -0.59196
 Alpha  occ. eigenvalues --   -0.58599  -0.58522  -0.57662  -0.57505  -0.57504
 Alpha  occ. eigenvalues --   -0.57257  -0.55943  -0.55861  -0.55857  -0.55581
 Alpha  occ. eigenvalues --   -0.55392  -0.55258  -0.55044  -0.54936  -0.54622
 Alpha  occ. eigenvalues --   -0.54601  -0.54402  -0.54260  -0.54091  -0.53956
 Alpha  occ. eigenvalues --   -0.53800  -0.53520  -0.53277  -0.53247  -0.53099
 Alpha  occ. eigenvalues --   -0.52678  -0.52556  -0.52507  -0.52209  -0.52140
 Alpha  occ. eigenvalues --   -0.52097  -0.51966  -0.51823  -0.51693  -0.51663
 Alpha  occ. eigenvalues --   -0.51583  -0.51561  -0.51196  -0.50940  -0.50782
 Alpha  occ. eigenvalues --   -0.50675  -0.50573  -0.50469  -0.50260  -0.50010
 Alpha  occ. eigenvalues --   -0.49969  -0.49945  -0.49722  -0.49492  -0.49375
 Alpha  occ. eigenvalues --   -0.49233  -0.48961  -0.48773  -0.48407  -0.48400
 Alpha  occ. eigenvalues --   -0.48169  -0.48068  -0.47922  -0.47736  -0.47482
 Alpha  occ. eigenvalues --   -0.47339  -0.47330  -0.47218  -0.46903  -0.46894
 Alpha  occ. eigenvalues --   -0.46757  -0.46629  -0.46548  -0.46454  -0.46089
 Alpha  occ. eigenvalues --   -0.45966  -0.45626  -0.45481  -0.45450  -0.45299
 Alpha  occ. eigenvalues --   -0.45291  -0.45008  -0.44932  -0.44866  -0.44754
 Alpha  occ. eigenvalues --   -0.44687  -0.44552  -0.44184  -0.43985  -0.43800
 Alpha  occ. eigenvalues --   -0.43629  -0.43320  -0.43228  -0.43077  -0.42937
 Alpha  occ. eigenvalues --   -0.42918  -0.42593  -0.42578  -0.42294  -0.42117
 Alpha  occ. eigenvalues --   -0.42058  -0.41835  -0.41812  -0.41787  -0.41020
 Alpha  occ. eigenvalues --   -0.40629  -0.40281  -0.39800  -0.39621  -0.39592
 Alpha  occ. eigenvalues --   -0.39252  -0.39124  -0.38495  -0.38195  -0.38035
 Alpha  occ. eigenvalues --   -0.37744  -0.36878  -0.36446  -0.36062  -0.35582
 Alpha  occ. eigenvalues --   -0.35403  -0.35064  -0.34786  -0.34001  -0.33679
 Alpha  occ. eigenvalues --   -0.33646  -0.33518  -0.33305  -0.32789  -0.32211
 Alpha  occ. eigenvalues --   -0.31845  -0.31819  -0.31384  -0.26318  -0.25490
 Alpha  occ. eigenvalues --   -0.23491  -0.23282
 Alpha virt. eigenvalues --   -0.07650  -0.07449  -0.00242   0.01548   0.01781
 Alpha virt. eigenvalues --    0.03016   0.04299   0.04686   0.05240   0.05460
 Alpha virt. eigenvalues --    0.06708   0.07539   0.07699   0.07898   0.08557

 Mulliken charges:
               1
     1  Mg   0.967260
     2  C    0.011766
     3  C   -0.103257
     4  C   -0.069839
     5  C   -0.098392
     6  N   -0.364183
     7  C   -0.034125
     8  C   -0.002736
     9  C   -0.138049
    10  C    0.093008
    11  C    0.019359
    12  C   -0.009215
    13  C   -0.148464
    14  H    0.036393
    15  N   -0.481790
    16  C    0.200743
    17  C   -0.180120
    18  C   -0.027808
    19  C    0.193864
    20  C    0.079842
    21  C    0.021681
    22  O   -0.252854
    23  C   -0.034269
    24  N   -0.410714
    25  C    0.038788
    26  C   -0.045324
    27  C   -0.088403
    28  C    0.133913
    29  C   -0.000914
    30  C   -0.040869
    31  C   -0.058089
    32  N   -0.418746
    33  C    0.119614
    34  C   -0.179128
    35  C   -0.042509
    36  C    0.138578
    37  C    0.103184
    38  C    0.092941
    39  O   -0.217687
    40  C   -0.114350
    41  C    0.257071
    42  O   -0.187468
    43  O   -0.389631
    44  C    0.148298
    45  H   -0.010816
    46  H    0.025972
    47  H   -0.021871
    48  H    0.032326
    49  H    0.032486
    50  H    0.050126
    51  H    0.027208
    52  H    0.046209
    53  H    0.042860
    54  H    0.040649
    55  H    0.074222
    56  H    0.060410
    57  H    0.058522
    58  H    0.036813
    59  H    0.054096
    60  H    0.050789
    61  H    0.073265
    62  H    0.053576
    63  H    0.052006
    64  H    0.039614
    65  H    0.033978
    66  H    0.046068
    67  H    0.057355
    68  H    0.033684
    69  H    0.029689
    70  H    0.026201
    71  H    0.038826
    72  H    0.035118
    73  H    0.041484
    74  H    0.054377
    75  H    0.067135
    76  H    0.052221
    77  H    0.050846
    78  H    0.037024
    79  H    0.060158
    80  Mg   0.973501
    81  C   -0.021061
    82  C   -0.054199
    83  C   -0.053557
    84  C   -0.110088
    85  N   -0.301800
    86  C   -0.007069
    87  C   -0.073313
    88  C   -0.132791
    89  C    0.070290
    90  C    0.036889
    91  C    0.034112
    92  C   -0.096275
    93  H    0.049834
    94  N   -0.460621
    95  C    0.091497
    96  C   -0.147437
    97  C   -0.078503
    98  C    0.134222
    99  C    0.063199
   100  C    0.051791
   101  O   -0.201383
   102  C   -0.020431
   103  N   -0.271139
   104  C    0.014760
   105  C   -0.095420
   106  C   -0.044730
   107  C    0.058291
   108  C    0.023300
   109  C   -0.029456
   110  C   -0.028136
   111  N   -0.485314
   112  C    0.125819
   113  C   -0.223652
   114  C   -0.055403
   115  C    0.152251
   116  C    0.077576
   117  C    0.163215
   118  O   -0.174797
   119  C   -0.083118
   120  C    0.267173
   121  O   -0.273057
   122  O   -0.390009
   123  C    0.157566
   124  H   -0.025729
   125  H    0.021046
   126  H   -0.000187
   127  H    0.020606
   128  H    0.035025
   129  H    0.041952
   130  H    0.027872
   131  H    0.045288
   132  H    0.025012
   133  H    0.073833
   134  H    0.043887
   135  H    0.037068
   136  H    0.048528
   137  H    0.053707
   138  H    0.042083
   139  H    0.049778
   140  H    0.042905
   141  H    0.056121
   142  H    0.045861
   143  H    0.031667
   144  H    0.049301
   145  H    0.037549
   146  H    0.032008
   147  H    0.020856
   148  H    0.014705
   149  H    0.040133
   150  H    0.034916
   151  H    0.038241
   152  H    0.028654
   153  H    0.052725
   154  H    0.061916
   155  H    0.080225
   156  H    0.043675
   157  H    0.073788
   158  H    0.042459
 Sum of Mulliken charges =  -0.00000

 Dipole moment (field-independent basis, Debye):
    X=              5.2095    Y=             -0.2653    Z=              2.1027  Tot=              5.6241
 Quadrupole moment (field-independent basis, Debye-Ang):
   XX=           -732.4706   YY=           -470.6137   ZZ=           -510.2595
   XY=             29.1391   XZ=            212.9901   YZ=             -1.0728

 Normal termination of Gaussian 16 at Mon Sep 20 13:57:39 2021.
