 Gaussian 16, Revision A.03,
 Gaussian 16:  ES64L-G16RevA.03 25-Dec-2016

 --------------------------------
 #p wB97XD/Def2SVP td=(nstates=5)
 --------------------------------

 --------------------------------
 TDDFT excited states in gaussian
 --------------------------------
 Symbolic Z-matrix:
 Charge =  0 Multiplicity = 1

                         Standard orientation:
 ---------------------------------------------------------------------
 Center     Atomic      Atomic             Coordinates (Angstroms)
 Number     Number       Type             X           Y           Z
 ---------------------------------------------------------------------
      1         12           0       -9.335825    0.191376    0.770385
      2          6           0       -8.798941   -2.130074   -1.832884
      3          6           0       -6.357132   -0.863441    2.247690
      4          6           0       -9.374972    3.058204    2.612706
      5          6           0      -12.054534    1.451109   -1.192153
      6          7           0       -7.826049   -1.319504    0.272055
      7          6           0       -7.797295   -2.108689   -0.822789
      8          6           0       -6.471535   -2.934920   -0.885125
      9          6           0       -5.953439   -2.753674    0.615352
     10          6           0       -6.797336   -1.549867    1.146182
     11          6           0       -6.104478   -3.892651    1.649098
     12          6           0       -5.529637   -2.305198   -1.979889
     13          6           0       -4.689657   -3.347883   -2.768506
     14          1           0       -3.194352   -2.929067   -3.075605
     15          7           0       -8.130334    0.920009    2.412598
     16          6           0       -7.000343    0.285128    2.855380
     17          6           0       -6.529763    1.024053    3.964770
     18          6           0       -7.308081    2.212598    4.094044
     19          6           0       -8.378734    2.101799    3.047449
     20          6           0       -5.331680    0.653434    4.806607
     21          6           0       -7.015810    3.382462    4.970533
     22          8           0       -5.997935    3.448438    5.640849
     23          6           0       -7.836783    4.560862    5.071547
     24          7           0      -10.518492    2.063291    0.612046
     25          6           0      -10.414050    3.012318    1.639699
     26          6           0      -11.504829    4.031145    1.527954
     27          6           0      -12.344556    3.581617    0.275468
     28          6           0      -11.630777    2.308906   -0.146374
     29          6           0      -12.295239    4.062303    2.842314
     30          6           0      -12.594354    4.734943   -0.767835
     31          6           0      -14.021179    5.049152   -1.101656
     32          7           0      -10.317554   -0.242878   -1.138124
     33          6           0      -11.417862    0.328584   -1.728627
     34          6           0      -11.831428   -0.453079   -2.914670
     35          6           0      -10.758334   -1.380341   -2.988925
     36          6           0       -9.950748   -1.263695   -1.873166
     37          6           0      -12.960095   -0.193376   -3.900086
     38          6           0      -10.173380   -2.370516   -3.853536
     39          8           0      -10.533766   -2.761234   -4.974839
     40          6           0       -8.916612   -2.930073   -3.187506
     41          6           0       -8.993719   -4.396071   -3.046047
     42          8           0       -8.202324   -5.121487   -3.529835
     43          8           0       -9.937333   -4.811021   -2.151402
     44          6           0       -9.785912   -6.253562   -1.862166
     45          1           0       -5.471649   -1.220021    2.778863
     46          1           0       -9.383313    3.905007    3.300764
     47          1           0      -12.815890    1.707034   -1.932712
     48          1           0       -6.726996   -3.964649   -1.135729
     49          1           0       -4.986886   -2.260496    0.717268
     50          1           0       -6.940501   -4.539742    1.381255
     51          1           0       -6.216733   -3.590713    2.690461
     52          1           0       -5.198273   -4.490796    1.559763
     53          1           0       -4.883226   -1.543641   -1.542748
     54          1           0       -6.209429   -1.793245   -2.661050
     55          1           0       -5.248655   -3.468396   -3.696627
     56          1           0       -4.808770   -4.251011   -2.169539
     57          1           0       -5.296363    1.076898    5.810447
     58          1           0       -4.488700    1.009390    4.214955
     59          1           0       -5.053418   -0.400352    4.822249
     60          1           0       -8.809879    4.234483    5.440737
     61          1           0       -7.898312    5.081838    4.115657
     62          1           0       -7.375952    5.241150    5.787808
     63          1           0      -11.097510    4.998258    1.234165
     64          1           0      -13.294755    3.079256    0.458063
     65          1           0      -11.783391    3.562322    3.664945
     66          1           0      -13.256316    3.556891    2.747495
     67          1           0      -12.305765    5.078494    3.235333
     68          1           0      -12.054684    4.415476   -1.659357
     69          1           0      -12.275820    5.718491   -0.424414
     70          1           0      -14.119328    4.977204   -2.184508
     71          1           0      -14.284421    6.073125   -0.835897
     72          1           0      -14.736524    4.453989   -0.533979
     73          1           0      -12.692027    0.536081   -4.664642
     74          1           0      -13.900431    0.074514   -3.416673
     75          1           0      -13.001692   -1.151104   -4.418712
     76          1           0       -8.063235   -2.804252   -3.852611
     77          1           0      -10.560074   -6.529752   -1.145805
     78          1           0       -8.794982   -6.464178   -1.460161
     79          1           0      -10.013790   -6.906791   -2.703755
     80         12           0        9.448108    0.587819   -0.471262
     81          6           0        8.669969   -2.502815    0.843441
     82          6           0        5.927704    1.037797   -0.953097
     83          6           0       10.052596    3.383836   -2.042899
     84          6           0       12.827456   -0.118824   -0.257095
     85          7           0        7.517406   -0.751406   -0.263073
     86          6           0        7.486081   -1.836873    0.491698
     87          6           0        6.038092   -2.141849    0.969098
     88          6           0        5.228809   -1.321915   -0.095663
     89          6           0        6.249218   -0.246235   -0.500995
     90          6           0        4.774984   -2.204400   -1.312420
     91          6           0        5.935981   -1.587661    2.407590
     92          6           0        4.638542   -1.892243    3.168714
     93          1           0        3.444821   -2.473941    2.438330
     94          7           0        8.260957    2.087625   -1.285618
     95          6           0        6.824824    2.084033   -1.344364
     96          6           0        6.440752    3.411045   -1.805864
     97          6           0        7.650644    4.142089   -2.021470
     98          6           0        8.749932    3.199070   -1.820698
     99          6           0        4.956959    3.913406   -1.961343
    100          6           0        7.784970    5.660302   -2.374363
    101          8           0        8.876893    6.083385   -2.638798
    102          6           0        6.578391    6.540703   -2.416980
    103          7           0       11.218723    1.554037   -0.989121
    104          6           0       11.234154    2.734053   -1.649104
    105          6           0       12.642780    3.208318   -2.004546
    106          6           0       13.522103    2.146374   -1.304470
    107          6           0       12.436938    1.106296   -0.808804
    108          6           0       12.948063    3.344246   -3.541516
    109          6           0       14.516963    2.634178   -0.282385
    110          6           0       14.111682    3.647889    0.814751
    111          7           0       10.601445   -0.954693    0.130844
    112          6           0       11.955952   -1.120590    0.180640
    113          6           0       12.206945   -2.377787    0.853178
    114          6           0       10.948974   -2.988813    1.184960
    115          6           0        9.999162   -2.052667    0.692018
    116          6           0       13.573977   -2.922411    1.127479
    117          6           0       10.286329   -4.127678    1.725876
    118          8           0       10.700608   -5.201033    2.215377
    119          6           0        8.747976   -3.920324    1.245711
    120          6           0        7.865948   -4.429861    2.386759
    121          8           0        7.933901   -4.089538    3.505611
    122          8           0        7.024689   -5.377145    1.876309
    123          6           0        5.863113   -5.747606    2.658316
    124          1           0        4.860189    1.139192   -1.157244
    125          1           0       10.312231    4.282515   -2.606331
    126          1           0       13.876146   -0.410102   -0.177350
    127          1           0        5.780193   -3.195034    0.858754
    128          1           0        4.403481   -0.905087    0.482066
    129          1           0        3.710971   -2.420563   -1.224468
    130          1           0        5.373014   -3.115853   -1.303338
    131          1           0        4.875160   -1.702802   -2.274993
    132          1           0        5.968014   -0.500693    2.337561
    133          1           0        6.821110   -1.818475    2.999565
    134          1           0        4.368697   -1.115419    3.884486
    135          1           0        4.932593   -2.641907    3.903555
    136          1           0        4.770043    4.359152   -2.938765
    137          1           0        4.795169    4.603525   -1.133453
    138          1           0        4.271759    3.087420   -1.766906
    139          1           0        7.004488    7.512570   -2.166956
    140          1           0        5.874076    6.328351   -1.613463
    141          1           0        5.869093    6.470435   -3.241591
    142          1           0       12.736661    4.185380   -1.531114
    143          1           0       14.082896    1.528787   -2.006003
    144          1           0       13.992700    3.056379   -3.656659
    145          1           0       12.804359    4.411607   -3.710699
    146          1           0       12.208837    2.797565   -4.126912
    147          1           0       15.137913    3.267491   -0.915086
    148          1           0       15.119701    1.886105    0.233674
    149          1           0       14.608735    4.616927    0.830572
    150          1           0       14.391582    3.292583    1.806447
    151          1           0       13.044302    3.854005    0.733951
    152          1           0       13.412292   -3.898653    1.583657
    153          1           0       14.078702   -2.305419    1.872112
    154          1           0       14.257484   -2.916577    0.278940
    155          1           0        8.668082   -4.489849    0.319543
    156          1           0        6.129691   -6.802980    2.599776
    157          1           0        4.920187   -5.394523    2.240253
    158          1           0        5.906247   -5.439988    3.703443
 ---------------------------------------------------------------------

 SCF Done:  E(RwB97XD) =  -4070.57978634     A.U. after   20 cycles

 Excitation energies and oscillator strengths:

 Excited State   1:      Singlet-A      1.6193 eV  765.66 nm  f=0.4135  <S**2>=0.000
     309 -> 315        0.17882
     311 -> 313        0.68454
     309 <- 315        0.11646
 This state for optimization and/or second-order correction.
 Total Energy, E(TD-HF/TD-DFT) =  -4070.52027770
 Copying the excited state density for this state as the 1-particle RhoCI density.

 Excited State   2:      Singlet-A      1.6760 eV  739.75 nm  f=0.3646  <S**2>=0.000
     310 -> 316       -0.20175
     312 -> 314        0.67862
     310 <- 316       -0.12039

 Excited State   3:      Singlet-A      2.1455 eV  577.88 nm  f=0.1114  <S**2>=0.000
     309 -> 313        0.63759
     311 -> 315       -0.28351

 Excited State   4:      Singlet-A      2.1629 eV  573.22 nm  f=0.0896  <S**2>=0.000
     310 -> 314        0.63085
     312 -> 316        0.30076

 Excited State   5:      Singlet-A      3.2772 eV  378.32 nm  f=0.0000  <S**2>=0.000
     312 -> 313        0.70678

 The electronic state is 1-A.
 Alpha  occ. eigenvalues --  -46.97334 -46.94542 -19.30497 -19.29588 -19.25143
 Alpha  occ. eigenvalues --  -19.25011 -19.24112 -19.24071 -19.23996 -19.22478
 Alpha  occ. eigenvalues --  -14.47777 -14.47452 -14.46257 -14.46223 -14.44652
 Alpha  occ. eigenvalues --  -14.44065 -14.43836 -14.43831 -10.42729 -10.42725
 Alpha  occ. eigenvalues --  -10.39127 -10.39083 -10.38991 -10.37574 -10.36489
 Alpha  occ. eigenvalues --  -10.36182 -10.36046 -10.35716 -10.35261 -10.35184
 Alpha  occ. eigenvalues --  -10.35172 -10.34676 -10.34565 -10.34520 -10.34415
 Alpha  occ. eigenvalues --  -10.34376 -10.34243 -10.34034 -10.33694 -10.33613
 Alpha  occ. eigenvalues --  -10.33319 -10.33310 -10.33284 -10.33247 -10.33013
 Alpha  occ. eigenvalues --  -10.32893 -10.32750 -10.32730 -10.32694 -10.32649
 Alpha  occ. eigenvalues --  -10.32644 -10.32506 -10.32447 -10.32400 -10.32092
 Alpha  occ. eigenvalues --  -10.32011 -10.31781 -10.31752 -10.31743 -10.31724
 Alpha  occ. eigenvalues --  -10.31709 -10.31664 -10.31634 -10.31560 -10.31457
 Alpha  occ. eigenvalues --  -10.31124 -10.31050 -10.30990 -10.30905 -10.30644
 Alpha  occ. eigenvalues --  -10.30527 -10.30519 -10.30451 -10.30447 -10.30330
 Alpha  occ. eigenvalues --  -10.30070 -10.30044 -10.29975 -10.29786 -10.29703
 Alpha  occ. eigenvalues --  -10.29694 -10.29648 -10.29352 -10.29290 -10.29014
 Alpha  occ. eigenvalues --  -10.28863  -3.22977  -3.20607  -1.96570  -1.96069
 Alpha  occ. eigenvalues --   -1.95929  -1.94199  -1.93750  -1.93568  -1.20300
 Alpha  occ. eigenvalues --   -1.19739  -1.13628  -1.11971  -1.11895  -1.11421
 Alpha  occ. eigenvalues --   -1.11385  -1.10231  -1.07349  -1.07158  -1.06020
 Alpha  occ. eigenvalues --   -1.05931  -1.05609  -1.05045  -1.04732  -1.04023
 Alpha  occ. eigenvalues --   -0.94978  -0.94809  -0.91440  -0.91150  -0.91126
 Alpha  occ. eigenvalues --   -0.90528  -0.90328  -0.90312  -0.90157  -0.89181
 Alpha  occ. eigenvalues --   -0.89163  -0.88332  -0.87929  -0.87525  -0.86957
 Alpha  occ. eigenvalues --   -0.86758  -0.85923  -0.85550  -0.84808  -0.84582
 Alpha  occ. eigenvalues --   -0.84258  -0.83582  -0.83318  -0.83062  -0.82698
 Alpha  occ. eigenvalues --   -0.82185  -0.80772  -0.79869  -0.79720  -0.79201
 Alpha  occ. eigenvalues --   -0.78969  -0.78672  -0.78607  -0.77765  -0.77543
 Alpha  occ. eigenvalues --   -0.77375  -0.75331  -0.74671  -0.74615  -0.73918
 Alpha  occ. eigenvalues --   -0.72113  -0.71533  -0.71356  -0.70801  -0.70121
 Alpha  occ. eigenvalues --   -0.70021  -0.69047  -0.68451  -0.68118  -0.67850
 Alpha  occ. eigenvalues --   -0.67185  -0.67092  -0.66831  -0.66799  -0.66221
 Alpha  occ. eigenvalues --   -0.66062  -0.65472  -0.64298  -0.62409  -0.62262
 Alpha  occ. eigenvalues --   -0.62196  -0.61565  -0.61168  -0.61080  -0.61040
 Alpha  occ. eigenvalues --   -0.60761  -0.60461  -0.60092  -0.59817  -0.59221
 Alpha  occ. eigenvalues --   -0.58621  -0.58197  -0.58063  -0.58042  -0.57717
 Alpha  occ. eigenvalues --   -0.57569  -0.57238  -0.57222  -0.56668  -0.56139
 Alpha  occ. eigenvalues --   -0.55666  -0.55567  -0.55486  -0.55401  -0.55248
 Alpha  occ. eigenvalues --   -0.54966  -0.54832  -0.54740  -0.54392  -0.54245
 Alpha  occ. eigenvalues --   -0.54131  -0.53941  -0.53875  -0.53653  -0.53598
 Alpha  occ. eigenvalues --   -0.53461  -0.52984  -0.52653  -0.52584  -0.52143
 Alpha  occ. eigenvalues --   -0.51998  -0.51942  -0.51840  -0.51718  -0.51549
 Alpha  occ. eigenvalues --   -0.51429  -0.51412  -0.51205  -0.51188  -0.51146
 Alpha  occ. eigenvalues --   -0.50730  -0.50693  -0.50494  -0.50270  -0.50112
 Alpha  occ. eigenvalues --   -0.50008  -0.49831  -0.49649  -0.49495  -0.49425
 Alpha  occ. eigenvalues --   -0.49105  -0.48883  -0.48789  -0.48755  -0.48481
 Alpha  occ. eigenvalues --   -0.48467  -0.48427  -0.48401  -0.47856  -0.47846
 Alpha  occ. eigenvalues --   -0.47687  -0.47477  -0.47270  -0.47197  -0.47108
 Alpha  occ. eigenvalues --   -0.46990  -0.46884  -0.46801  -0.46553  -0.46476
 Alpha  occ. eigenvalues --   -0.46166  -0.45729  -0.45712  -0.45482  -0.45221
 Alpha  occ. eigenvalues --   -0.45141  -0.45084  -0.44979  -0.44850  -0.44791
 Alpha  occ. eigenvalues --   -0.44720  -0.44564  -0.44506  -0.44206  -0.43990
 Alpha  occ. eigenvalues --   -0.43903  -0.43880  -0.43730  -0.43514  -0.43471
 Alpha  occ. eigenvalues --   -0.43272  -0.43066  -0.42820  -0.42789  -0.42210
 Alpha  occ. eigenvalues --   -0.42053  -0.41743  -0.41441  -0.41331  -0.41263
 Alpha  occ. eigenvalues --   -0.40757  -0.40235  -0.40136  -0.39833  -0.39799
 Alpha  occ. eigenvalues --   -0.39498  -0.39409  -0.39132  -0.39103  -0.38510
 Alpha  occ. eigenvalues --   -0.38331  -0.37693  -0.37122  -0.37072  -0.36311
 Alpha  occ. eigenvalues --   -0.35926  -0.35881  -0.35508  -0.33888  -0.33602
 Alpha  occ. eigenvalues --   -0.33144  -0.32955  -0.32776  -0.32441  -0.32081
 Alpha  occ. eigenvalues --   -0.31958  -0.31503  -0.31440  -0.26602  -0.25665
 Alpha  occ. eigenvalues --   -0.23540  -0.22837
 Alpha virt. eigenvalues --   -0.07928  -0.06724  -0.00512   0.00091   0.02158
 Alpha virt. eigenvalues --    0.02302   0.04256   0.04378   0.04783   0.06172
 Alpha virt. eigenvalues --    0.07035   0.07789   0.08044   0.08044   0.08270

 Mulliken charges:
               1
     1  Mg   0.930476
     2  C   -0.012403
     3  C   -0.079266
     4  C   -0.029767
     5  C   -0.054924
     6  N   -0.359414
     7  C   -0.011275
     8  C   -0.090419
     9  C   -0.100377
    10  C    0.079532
    11  C    0.033134
    12  C    0.011761
    13  C   -0.106410
    14  H    0.039793
    15  N   -0.446388
    16  C    0.131861
    17  C   -0.166414
    18  C   -0.071269
    19  C    0.121291
    20  C    0.092505
    21  C   -0.000530
    22  O   -0.246032
    23  C    0.011373
    24  N   -0.354155
    25  C    0.049184
    26  C   -0.068721
    27  C   -0.054082
    28  C    0.053313
    29  C    0.028732
    30  C   -0.008473
    31  C   -0.059198
    32  N   -0.368072
    33  C    0.038630
    34  C   -0.158393
    35  C   -0.038389
    36  C    0.117598
    37  C    0.062049
    38  C    0.094577
    39  O   -0.225368
    40  C   -0.017668
    41  C    0.221547
    42  O   -0.212627
    43  O   -0.366478
    44  C    0.139933
    45  H    0.005478
    46  H   -0.030904
    47  H   -0.001051
    48  H    0.038293
    49  H    0.034512
    50  H    0.032714
    51  H    0.046391
    52  H    0.039637
    53  H    0.041684
    54  H    0.036337
    55  H    0.066504
    56  H    0.053544
    57  H    0.071052
    58  H    0.038909
    59  H    0.017302
    60  H    0.051399
    61  H    0.064138
    62  H    0.052422
    63  H    0.047978
    64  H    0.037886
    65  H    0.035211
    66  H    0.041654
    67  H    0.037245
    68  H    0.041843
    69  H    0.039668
    70  H    0.042428
    71  H    0.030972
    72  H    0.033181
    73  H    0.064987
    74  H    0.051848
    75  H    0.065970
    76  H    0.061857
    77  H    0.047009
    78  H    0.053203
    79  H    0.057925
    80  Mg   0.965979
    81  C   -0.025680
    82  C   -0.076900
    83  C   -0.087938
    84  C   -0.117768
    85  N   -0.288278
    86  C   -0.035904
    87  C   -0.084251
    88  C   -0.089579
    89  C    0.019578
    90  C    0.040515
    91  C    0.000229
    92  C   -0.089042
    93  H    0.043259
    94  N   -0.478728
    95  C    0.176063
    96  C   -0.189289
    97  C   -0.081096
    98  C    0.188689
    99  C    0.062369
   100  C    0.064921
   101  O   -0.213783
   102  C   -0.007265
   103  N   -0.342067
   104  C    0.014529
   105  C   -0.099248
   106  C   -0.054333
   107  C    0.091199
   108  C    0.035503
   109  C   -0.009946
   110  C   -0.072543
   111  N   -0.486575
   112  C    0.144503
   113  C   -0.184434
   114  C   -0.031107
   115  C    0.180455
   116  C    0.067899
   117  C    0.153345
   118  O   -0.233926
   119  C   -0.147567
   120  C    0.242791
   121  O   -0.185818
   122  O   -0.368580
   123  C    0.110574
   124  H    0.003940
   125  H    0.009566
   126  H   -0.005602
   127  H    0.019412
   128  H    0.022934
   129  H    0.039677
   130  H    0.043895
   131  H    0.040590
   132  H    0.026046
   133  H    0.065917
   134  H    0.043161
   135  H    0.038027
   136  H    0.059104
   137  H    0.058096
   138  H    0.030394
   139  H    0.058109
   140  H    0.020750
   141  H    0.069287
   142  H    0.047909
   143  H    0.031189
   144  H    0.046249
   145  H    0.047875
   146  H    0.054276
   147  H    0.029130
   148  H    0.040638
   149  H    0.032709
   150  H    0.032860
   151  H    0.039653
   152  H    0.062186
   153  H    0.042871
   154  H    0.047338
   155  H    0.085739
   156  H    0.070040
   157  H    0.062422
   158  H    0.062863
 Sum of Mulliken charges =  -0.00000

 Dipole moment (field-independent basis, Debye):
    X=             -6.9008    Y=              4.6941    Z=              0.9529  Tot=              8.4002
 Quadrupole moment (field-independent basis, Debye-Ang):
   XX=           -440.3836   YY=           -516.5822   ZZ=           -563.1791
   XY=              0.3974   XZ=            -55.3095   YZ=            -13.9980

 Normal termination of Gaussian 16 at Sat Sep 18 21:14:07 2021.
