 Gaussian 16, Revision A.03,
 Gaussian 16:  ES64L-G16RevA.03 25-Dec-2016

 --------------------------------
 #p wB97XD/Def2SVP td=(nstates=5)
 --------------------------------

 --------------------------------
 TDDFT excited states in gaussian
 --------------------------------
 Symbolic Z-matrix:
 Charge =  0 Multiplicity = 1

                         Standard orientation:
 ---------------------------------------------------------------------
 Center     Atomic      Atomic             Coordinates (Angstroms)
 Number     Number       Type             X           Y           Z
 ---------------------------------------------------------------------
      1         12           0       26.207541    0.173860    0.365328
      2          6           0       23.113125   -1.311585   -0.170563
      3          6           0       27.248833   -1.446637   -2.651500
      4          6           0       29.012907    1.884259    0.464009
      5          6           0       24.731494    2.179095    2.846867
      6          7           0       25.234784   -1.110941   -1.268177
      7          6           0       23.969378   -1.645228   -1.172981
      8          6           0       23.673297   -2.519067   -2.394870
      9          6           0       25.096595   -2.738582   -2.978193
     10          6           0       25.926958   -1.680167   -2.301021
     11          6           0       25.774196   -4.153953   -2.801121
     12          6           0       22.700031   -1.860246   -3.386192
     13          6           0       22.241260   -2.719732   -4.501522
     14          1           0       20.893892   -2.315114   -5.212845
     15          7           0       27.927101    0.238398   -0.927742
     16          6           0       28.169421   -0.515375   -2.086710
     17          6           0       29.470829   -0.163244   -2.582133
     18          6           0       29.953244    0.918495   -1.756767
     19          6           0       28.944024    1.038922   -0.648457
     20          6           0       30.072476   -0.767473   -3.880911
     21          6           0       31.279975    1.636015   -2.024992
     22          8           0       32.071711    1.236034   -2.862356
     23          6           0       31.613878    2.845455   -1.238066
     24          7           0       26.843912    1.655180    1.657063
     25          6           0       28.071204    2.164436    1.505780
     26          6           0       28.264974    3.390648    2.486907
     27          6           0       26.890153    3.562595    3.240234
     28          6           0       26.042252    2.396473    2.489792
     29          6           0       29.505979    3.375389    3.417675
     30          6           0       26.302790    4.963832    2.967213
     31          6           0       25.425122    5.533882    4.088121
     32          7           0       24.314424    0.446025    1.232260
     33          6           0       23.889381    1.188815    2.297967
     34          6           0       22.512591    0.793999    2.618975
     35          6           0       22.224692   -0.223787    1.749720
     36          6           0       23.288046   -0.369732    0.887963
     37          6           0       21.671087    1.322244    3.785243
     38          6           0       21.195997   -1.131841    1.340018
     39          8           0       20.091889   -1.352723    1.773072
     40          6           0       21.737660   -1.888501    0.081403
     41          6           0       21.855927   -3.328493    0.440401
     42          8           0       22.382987   -3.793218    1.412867
     43          8           0       21.365565   -4.096773   -0.629747
     44          6           0       21.481558   -5.519134   -0.476851
     45          1           0       27.500135   -2.055822   -3.521713
     46          1           0       29.892207    2.509149    0.636401
     47          1           0       24.261502    2.734990    3.660988
     48          1           0       23.323562   -3.471757   -1.999482
     49          1           0       25.217461   -2.511982   -4.036929
     50          1           0       26.090782   -4.420097   -3.809382
     51          1           0       25.292897   -4.869618   -2.134040
     52          1           0       26.710630   -3.979242   -2.271544
     53          1           0       23.099737   -1.015620   -3.948046
     54          1           0       21.832702   -1.474056   -2.850637
     55          1           0       22.152283   -3.729134   -4.099912
     56          1           0       23.032841   -2.778553   -5.248340
     57          1           0       29.919959    0.105928   -4.515755
     58          1           0       29.481243   -1.545113   -4.364887
     59          1           0       31.099554   -1.124409   -3.959320
     60          1           0       30.721782    3.468336   -1.303405
     61          1           0       32.422563    3.372245   -1.744903
     62          1           0       31.816331    2.450051   -0.242388
     63          1           0       28.431066    4.252908    1.840517
     64          1           0       26.918194    3.357437    4.309914
     65          1           0       30.222038    4.103260    3.034825
     66          1           0       29.873584    2.352179    3.487738
     67          1           0       29.234255    3.764895    4.398750
     68          1           0       25.731065    4.849986    2.046548
     69          1           0       27.046501    5.712279    2.692945
     70          1           0       25.920444    6.475365    4.328004
     71          1           0       25.291335    4.870000    4.942299
     72          1           0       24.438434    5.790082    3.702041
     73          1           0       20.633466    1.567851    3.561578
     74          1           0       22.248324    2.192524    4.098407
     75          1           0       21.836650    0.629268    4.610302
     76          1           0       21.001079   -1.734057   -0.707166
     77          1           0       20.469183   -5.894650   -0.327617
     78          1           0       22.123463   -5.923402    0.306223
     79          1           0       21.898540   -5.910202   -1.404514
     80         12           0      -26.104208    0.729399   -0.095523
     81          6           0      -23.351644   -1.153682    1.125793
     82          6           0      -28.116969   -1.969621    0.988958
     83          6           0      -28.676304    2.173030   -1.490009
     84          6           0      -23.871460    3.097780   -1.321166
     85          7           0      -25.763780   -1.374929    0.953030
     86          6           0      -24.543839   -1.804530    1.414851
     87          6           0      -24.629287   -3.085167    2.227867
     88          6           0      -26.179160   -3.385017    2.048350
     89          6           0      -26.747070   -2.157607    1.319228
     90          6           0      -26.400991   -4.750383    1.404315
     91          6           0      -24.216841   -2.830911    3.694417
     92          6           0      -23.431892   -3.960906    4.463501
     93          1           0      -23.519525   -5.407026    3.921406
     94          7           0      -28.144716    0.225295   -0.172901
     95          6           0      -28.741489   -0.958803    0.261014
     96          6           0      -30.182795   -0.873754   -0.023093
     97          6           0      -30.369371    0.393513   -0.665686
     98          6           0      -29.020020    0.984864   -0.746776
     99          6           0      -31.104032   -1.939559    0.248694
    100          6           0      -31.662595    1.013935   -1.184725
    101          8           0      -31.651724    2.085467   -1.811185
    102          6           0      -32.976003    0.450945   -0.806150
    103          7           0      -26.240020    2.349641   -1.334756
    104          6           0      -27.439446    2.811124   -1.698497
    105          6           0      -27.303174    4.076926   -2.605719
    106          6           0      -25.806532    4.460368   -2.377751
    107          6           0      -25.241675    3.269772   -1.668440
    108          6           0      -27.740528    3.853597   -4.098135
    109          6           0      -25.843658    5.723959   -1.435853
    110          6           0      -25.738327    5.555197    0.119073
    111          7           0      -24.061707    1.025930   -0.034124
    112          6           0      -23.293196    2.055382   -0.607121
    113          6           0      -21.860244    1.755312   -0.364262
    114          6           0      -21.867730    0.505981    0.244946
    115          6           0      -23.161140    0.085654    0.472130
    116          6           0      -20.825666    2.540030   -1.015638
    117          6           0      -20.958728   -0.562321    0.652979
    118          8           0      -19.737353   -0.591540    0.552525
    119          6           0      -21.891457   -1.726605    1.232875
    120          6           0      -21.683562   -2.997570    0.497243
    121          8           0      -22.342662   -3.398450   -0.457747
    122          8           0      -20.609971   -3.695169    1.082427
    123          6           0      -20.136488   -4.947993    0.538768
    124          1           0      -28.826758   -2.623953    1.500129
    125          1           0      -29.496005    2.718365   -1.963198
    126          1           0      -23.278714    3.927331   -1.711507
    127          1           0      -24.013426   -3.885618    1.817058
    128          1           0      -26.572904   -3.522407    3.055050
    129          1           0      -27.040534   -5.427035    1.969997
    130          1           0      -25.503234   -5.318978    1.161643
    131          1           0      -26.967332   -4.569422    0.489777
    132          1           0      -25.085250   -2.579057    4.303013
    133          1           0      -23.617469   -1.927735    3.574700
    134          1           0      -23.823338   -4.072137    5.474135
    135          1           0      -22.445635   -3.538108    4.654861
    136          1           0      -31.914745   -1.499464    0.829711
    137          1           0      -30.580633   -2.826794    0.603715
    138          1           0      -31.379876   -2.215879   -0.769468
    139          1           0      -33.204026   -0.493746   -1.300699
    140          1           0      -33.764458    1.139706   -1.108944
    141          1           0      -32.929496    0.189897    0.250714
    142          1           0      -28.036902    4.704670   -2.100016
    143          1           0      -25.314145    4.746565   -3.307472
    144          1           0      -28.768960    4.186379   -4.239058
    145          1           0      -27.547708    2.805754   -4.325959
    146          1           0      -27.068980    4.466798   -4.698827
    147          1           0      -26.642038    6.390898   -1.761869
    148          1           0      -24.861033    6.169866   -1.592700
    149          1           0      -26.499607    6.237885    0.495439
    150          1           0      -24.774011    5.871805    0.518596
    151          1           0      -25.974418    4.567003    0.512344
    152          1           0      -21.073956    2.630232   -2.072374
    153          1           0      -19.903819    1.963566   -0.931877
    154          1           0      -20.614246    3.450669   -0.455814
    155          1           0      -21.535612   -1.842275    2.257110
    156          1           0      -19.281684   -4.835041   -0.127610
    157          1           0      -20.964031   -5.577498    0.211312
    158          1           0      -19.856853   -5.469729    1.454471
 ---------------------------------------------------------------------

 SCF Done:  E(RwB97XD) =  -4070.61290854     A.U. after   19 cycles

 Excitation energies and oscillator strengths:

 Excited State   1:      Singlet-A      1.6997 eV  729.47 nm  f=0.3850  <S**2>=0.000
     310 -> 316        0.19449
     312 -> 314        0.67880
     310 <- 316        0.11675
 This state for optimization and/or second-order correction.
 Total Energy, E(TD-HF/TD-DFT) =  -4070.55044721
 Copying the excited state density for this state as the 1-particle RhoCI density.

 Excited State   2:      Singlet-A      1.7221 eV  719.95 nm  f=0.3838  <S**2>=0.000
     309 -> 315        0.17623
     311 -> 313        0.68533
     309 <- 315        0.11114

 Excited State   3:      Singlet-A      2.2204 eV  558.39 nm  f=0.0705  <S**2>=0.000
     310 -> 314        0.62145
     312 -> 316       -0.32313

 Excited State   4:      Singlet-A      2.2424 eV  552.91 nm  f=0.1148  <S**2>=0.000
     309 -> 313        0.63517
     311 -> 315       -0.29258

 Excited State   5:      Singlet-A      3.2986 eV  375.87 nm  f=0.0028  <S**2>=0.000
     302 -> 313        0.12779
     306 -> 313       -0.40336
     307 -> 313        0.52761
     311 -> 315        0.11709

 The electronic state is 1-A.
 Alpha  occ. eigenvalues --  -46.95990 -46.94808 -19.30161 -19.29192 -19.25392
 Alpha  occ. eigenvalues --  -19.24780 -19.24310 -19.23795 -19.23748 -19.23515
 Alpha  occ. eigenvalues --  -14.47219 -14.46961 -14.46717 -14.45816 -14.44853
 Alpha  occ. eigenvalues --  -14.44265 -14.43641 -14.43495 -10.43322 -10.43295
 Alpha  occ. eigenvalues --  -10.39348 -10.39275 -10.38850 -10.38102 -10.36439
 Alpha  occ. eigenvalues --  -10.35705 -10.35325 -10.35182 -10.35046 -10.35033
 Alpha  occ. eigenvalues --  -10.34939 -10.34867 -10.34732 -10.34535 -10.34514
 Alpha  occ. eigenvalues --  -10.34431 -10.34417 -10.34185 -10.33781 -10.33209
 Alpha  occ. eigenvalues --  -10.33192 -10.33151 -10.33137 -10.32889 -10.32537
 Alpha  occ. eigenvalues --  -10.32314 -10.32263 -10.32260 -10.32232 -10.32228
 Alpha  occ. eigenvalues --  -10.32183 -10.32143 -10.32003 -10.31935 -10.31893
 Alpha  occ. eigenvalues --  -10.31755 -10.31677 -10.31601 -10.31562 -10.31423
 Alpha  occ. eigenvalues --  -10.31422 -10.31400 -10.31392 -10.31330 -10.31172
 Alpha  occ. eigenvalues --  -10.31043 -10.30880 -10.30740 -10.30698 -10.30483
 Alpha  occ. eigenvalues --  -10.30388 -10.30386 -10.30377 -10.30314 -10.30285
 Alpha  occ. eigenvalues --  -10.30135 -10.29972 -10.29859 -10.29591 -10.29420
 Alpha  occ. eigenvalues --  -10.29350 -10.29181 -10.29072 -10.28890 -10.28657
 Alpha  occ. eigenvalues --  -10.27916  -3.21869  -3.20798  -1.95461  -1.94993
 Alpha  occ. eigenvalues --   -1.94821  -1.94394  -1.93933  -1.93755  -1.18749
 Alpha  occ. eigenvalues --   -1.16779  -1.12515  -1.12368  -1.11842  -1.11433
 Alpha  occ. eigenvalues --   -1.11007  -1.09405  -1.06780  -1.06585  -1.06069
 Alpha  occ. eigenvalues --   -1.05826  -1.05722  -1.05056  -1.04854  -1.03340
 Alpha  occ. eigenvalues --   -0.95206  -0.93906  -0.91847  -0.91273  -0.91169
 Alpha  occ. eigenvalues --   -0.90697  -0.90508  -0.90223  -0.90006  -0.89278
 Alpha  occ. eigenvalues --   -0.88614  -0.88410  -0.88071  -0.87888  -0.87137
 Alpha  occ. eigenvalues --   -0.86037  -0.85906  -0.85179  -0.85075  -0.84560
 Alpha  occ. eigenvalues --   -0.84513  -0.83838  -0.83228  -0.82812  -0.82733
 Alpha  occ. eigenvalues --   -0.82385  -0.80937  -0.79701  -0.79252  -0.79056
 Alpha  occ. eigenvalues --   -0.78988  -0.78746  -0.78118  -0.77674  -0.77482
 Alpha  occ. eigenvalues --   -0.76711  -0.75197  -0.74071  -0.74024  -0.73259
 Alpha  occ. eigenvalues --   -0.71299  -0.71111  -0.70972  -0.70841  -0.69808
 Alpha  occ. eigenvalues --   -0.69743  -0.68748  -0.68720  -0.67979  -0.67543
 Alpha  occ. eigenvalues --   -0.66954  -0.66908  -0.66612  -0.66604  -0.66402
 Alpha  occ. eigenvalues --   -0.66151  -0.64657  -0.63493  -0.62342  -0.62296
 Alpha  occ. eigenvalues --   -0.61863  -0.61287  -0.61282  -0.61024  -0.60776
 Alpha  occ. eigenvalues --   -0.60437  -0.59991  -0.59816  -0.59554  -0.59118
 Alpha  occ. eigenvalues --   -0.58485  -0.58253  -0.57819  -0.57442  -0.57438
 Alpha  occ. eigenvalues --   -0.57174  -0.56819  -0.56305  -0.56152  -0.55934
 Alpha  occ. eigenvalues --   -0.55917  -0.55725  -0.55512  -0.55268  -0.55265
 Alpha  occ. eigenvalues --   -0.55092  -0.55077  -0.54681  -0.54563  -0.54163
 Alpha  occ. eigenvalues --   -0.53837  -0.53684  -0.53646  -0.53602  -0.53416
 Alpha  occ. eigenvalues --   -0.53202  -0.52796  -0.52743  -0.52638  -0.52470
 Alpha  occ. eigenvalues --   -0.52289  -0.52188  -0.51874  -0.51783  -0.51682
 Alpha  occ. eigenvalues --   -0.51517  -0.51231  -0.50955  -0.50877  -0.50817
 Alpha  occ. eigenvalues --   -0.50807  -0.50414  -0.50301  -0.50231  -0.50052
 Alpha  occ. eigenvalues --   -0.50001  -0.49523  -0.49470  -0.49319  -0.49275
 Alpha  occ. eigenvalues --   -0.49072  -0.48976  -0.48830  -0.48595  -0.48404
 Alpha  occ. eigenvalues --   -0.48321  -0.48068  -0.48000  -0.47911  -0.47770
 Alpha  occ. eigenvalues --   -0.47288  -0.47266  -0.47011  -0.46909  -0.46627
 Alpha  occ. eigenvalues --   -0.46473  -0.46184  -0.46127  -0.46067  -0.45963
 Alpha  occ. eigenvalues --   -0.45854  -0.45797  -0.45634  -0.45530  -0.45349
 Alpha  occ. eigenvalues --   -0.45277  -0.45261  -0.45149  -0.44879  -0.44868
 Alpha  occ. eigenvalues --   -0.44624  -0.44412  -0.44322  -0.44226  -0.44079
 Alpha  occ. eigenvalues --   -0.43828  -0.43809  -0.43663  -0.43398  -0.43324
 Alpha  occ. eigenvalues --   -0.42862  -0.42563  -0.42480  -0.42184  -0.42141
 Alpha  occ. eigenvalues --   -0.41781  -0.41733  -0.41588  -0.41255  -0.40721
 Alpha  occ. eigenvalues --   -0.40479  -0.40109  -0.39682  -0.39652  -0.39336
 Alpha  occ. eigenvalues --   -0.39078  -0.38880  -0.38595  -0.38517  -0.38089
 Alpha  occ. eigenvalues --   -0.38013  -0.37613  -0.37185  -0.36261  -0.36093
 Alpha  occ. eigenvalues --   -0.35982  -0.35910  -0.35496  -0.33979  -0.33164
 Alpha  occ. eigenvalues --   -0.33125  -0.33046  -0.32756  -0.32596  -0.32363
 Alpha  occ. eigenvalues --   -0.32249  -0.32113  -0.31445  -0.26598  -0.25786
 Alpha  occ. eigenvalues --   -0.23472  -0.22563
 Alpha virt. eigenvalues --   -0.07362  -0.06460  -0.00014   0.00231   0.02322
 Alpha virt. eigenvalues --    0.03000   0.04306   0.04839   0.05218   0.06398
 Alpha virt. eigenvalues --    0.06967   0.07109   0.07596   0.07696   0.08331

 Mulliken charges:
               1
     1  Mg   0.953659
     2  C   -0.018553
     3  C   -0.078198
     4  C   -0.102306
     5  C   -0.070816
     6  N   -0.331705
     7  C   -0.062263
     8  C    0.031546
     9  C   -0.153775
    10  C    0.038770
    11  C    0.036061
    12  C    0.038117
    13  C   -0.109498
    14  H    0.041455
    15  N   -0.434311
    16  C    0.181819
    17  C   -0.135783
    18  C   -0.121011
    19  C    0.236139
    20  C    0.063094
    21  C    0.024939
    22  O   -0.229605
    23  C    0.001970
    24  N   -0.396485
    25  C    0.068625
    26  C   -0.119397
    27  C   -0.096945
    28  C    0.094341
    29  C    0.022083
    30  C   -0.030797
    31  C   -0.043145
    32  N   -0.425012
    33  C    0.086043
    34  C   -0.233619
    35  C    0.018426
    36  C    0.142553
    37  C    0.107311
    38  C    0.094432
    39  O   -0.186519
    40  C   -0.073654
    41  C    0.259926
    42  O   -0.213122
    43  O   -0.378379
    44  C    0.124748
    45  H   -0.006349
    46  H   -0.019667
    47  H   -0.006005
    48  H    0.020844
    49  H    0.031379
    50  H    0.043433
    51  H    0.049285
    52  H    0.029105
    53  H    0.029831
    54  H    0.035481
    55  H    0.036424
    56  H    0.039789
    57  H    0.058566
    58  H    0.019579
    59  H    0.074476
    60  H    0.052418
    61  H    0.058007
    62  H    0.078991
    63  H    0.040395
    64  H    0.042184
    65  H    0.035887
    66  H    0.050031
    67  H    0.035375
    68  H    0.033129
    69  H    0.029995
    70  H    0.038263
    71  H    0.042312
    72  H    0.038977
    73  H    0.070643
    74  H    0.005430
    75  H    0.058176
    76  H    0.072885
    77  H    0.057155
    78  H    0.062205
    79  H    0.040208
    80  Mg   0.958895
    81  C    0.014480
    82  C   -0.115980
    83  C   -0.071685
    84  C   -0.091846
    85  N   -0.268498
    86  C   -0.050226
    87  C   -0.080654
    88  C   -0.081067
    89  C    0.061285
    90  C    0.017837
    91  C   -0.000833
    92  C   -0.101172
    93  H    0.041884
    94  N   -0.420503
    95  C    0.160537
    96  C   -0.187173
    97  C   -0.089566
    98  C    0.146000
    99  C    0.087396
   100  C    0.060839
   101  O   -0.251543
   102  C   -0.004446
   103  N   -0.411447
   104  C    0.041697
   105  C   -0.106395
   106  C   -0.056844
   107  C    0.053297
   108  C    0.041981
   109  C   -0.057119
   110  C   -0.040287
   111  N   -0.481804
   112  C    0.164292
   113  C   -0.192792
   114  C   -0.021430
   115  C    0.159835
   116  C    0.078021
   117  C    0.119479
   118  O   -0.196937
   119  C   -0.104671
   120  C    0.296062
   121  O   -0.245666
   122  O   -0.393122
   123  C    0.148805
   124  H    0.010766
   125  H    0.016597
   126  H   -0.005066
   127  H    0.045982
   128  H    0.028865
   129  H    0.025208
   130  H    0.045312
   131  H    0.027070
   132  H    0.030836
   133  H    0.034394
   134  H    0.044115
   135  H    0.052241
   136  H    0.062342
   137  H    0.037765
   138  H    0.061551
   139  H    0.050586
   140  H    0.063436
   141  H    0.049846
   142  H    0.039312
   143  H    0.036121
   144  H    0.056253
   145  H    0.049503
   146  H    0.029619
   147  H    0.044636
   148  H    0.027423
   149  H    0.033401
   150  H    0.043544
   151  H    0.047361
   152  H    0.057798
   153  H    0.044370
   154  H    0.045833
   155  H    0.075004
   156  H    0.071710
   157  H    0.047338
   158  H    0.040010
 Sum of Mulliken charges =  -0.00000

 Dipole moment (field-independent basis, Debye):
    X=             -1.1626    Y=              0.1089    Z=              2.0245  Tot=              2.3371
 Quadrupole moment (field-independent basis, Debye-Ang):
   XX=           -234.1911   YY=           -457.8585   ZZ=           -498.4735
   XY=             81.6559   XZ=            -54.4709   YZ=             12.1682

 Normal termination of Gaussian 16 at Mon Sep 20 16:35:39 2021.
