 Gaussian 16, Revision A.03,
 Gaussian 16:  ES64L-G16RevA.03 25-Dec-2016

 --------------------------------
 #p wB97XD/Def2SVP td=(nstates=5)
 --------------------------------

 --------------------------------
 TDDFT excited states in gaussian
 --------------------------------
 Symbolic Z-matrix:
 Charge =  0 Multiplicity = 1

                         Standard orientation:
 ---------------------------------------------------------------------
 Center     Atomic      Atomic             Coordinates (Angstroms)
 Number     Number       Type             X           Y           Z
 ---------------------------------------------------------------------
      1         12           0       20.018025   -0.671474    0.447909
      2          6           0       19.236062    2.003340   -1.723216
      3          6           0       21.081541    1.457693    2.730457
      4          6           0       21.526719   -3.307596    2.012368
      5          6           0       19.794939   -2.839387   -2.539662
      6          7           0       20.178742    1.499752    0.429671
      7          6           0       19.594517    2.365764   -0.423553
      8          6           0       19.575253    3.768385    0.215084
      9          6           0       20.120644    3.591833    1.595924
     10          6           0       20.538628    2.090267    1.611629
     11          6           0       21.201801    4.684122    1.977086
     12          6           0       18.244315    4.591138    0.169884
     13          6           0       17.795833    5.552772    1.352311
     14          1           0       17.251605    6.944368    0.997778
     15          7           0       20.932980   -0.900483    2.267652
     16          6           0       21.287733    0.144674    3.090367
     17          6           0       21.859243   -0.414302    4.282431
     18          6           0       22.057404   -1.840426    4.116952
     19          6           0       21.549547   -2.060410    2.744799
     20          6           0       22.281988    0.512140    5.349548
     21          6           0       22.582982   -2.910805    5.105129
     22          8           0       22.710394   -4.037128    4.753473
     23          6           0       22.695741   -2.602741    6.562709
     24          7           0       20.621377   -2.766546   -0.232782
     25          6           0       21.098174   -3.613636    0.706855
     26          6           0       21.297885   -5.058519    0.147472
     27          6           0       20.714041   -4.942309   -1.293752
     28          6           0       20.358161   -3.439317   -1.408508
     29          6           0       22.714668   -5.567985    0.149162
     30          6           0       19.482064   -5.838634   -1.667686
     31          6           0       18.124692   -5.446890   -1.190028
     32          7           0       19.602850   -0.582094   -1.698411
     33          6           0       19.505757   -1.515923   -2.689882
     34          6           0       19.009122   -0.888024   -3.889948
     35          6           0       18.878591    0.495487   -3.599157
     36          6           0       19.299393    0.631871   -2.260671
     37          6           0       18.848381   -1.497020   -5.238080
     38          6           0       18.543047    1.790286   -4.119069
     39          8           0       18.122498    2.179426   -5.202572
     40          6           0       18.710625    2.822700   -2.915574
     41          6           0       19.529927    4.045567   -3.292215
     42          8           0       20.697036    4.007463   -3.585379
     43          8           0       18.733268    5.175360   -3.195418
     44          6           0       19.427666    6.406222   -3.575084
     45          1           0       21.265176    2.074981    3.612763
     46          1           0       21.977873   -4.110807    2.598226
     47          1           0       19.625944   -3.494753   -3.396517
     48          1           0       20.256375    4.262354   -0.477873
     49          1           0       19.307084    3.786890    2.295160
     50          1           0       21.238116    5.444309    1.196938
     51          1           0       22.129041    4.161066    2.210889
     52          1           0       20.883964    5.270912    2.839120
     53          1           0       17.437284    3.867273    0.054019
     54          1           0       18.177324    5.205720   -0.728218
     55          1           0       18.687771    5.649431    1.971669
     56          1           0       17.043898    5.044099    1.955710
     57          1           0       23.189146    0.078033    5.769323
     58          1           0       21.512787    0.481559    6.120323
     59          1           0       22.477005    1.566943    5.155294
     60          1           0       23.724565   -2.254639    6.644806
     61          1           0       22.406398   -3.484168    7.135771
     62          1           0       22.100954   -1.755142    6.903871
     63          1           0       20.642492   -5.778112    0.638543
     64          1           0       21.375368   -5.048295   -2.153131
     65          1           0       23.371686   -4.917961    0.728458
     66          1           0       23.144562   -5.595195   -0.852463
     67          1           0       22.666575   -6.559922    0.597752
     68          1           0       19.650843   -6.856890   -1.317135
     69          1           0       19.507092   -5.997679   -2.745968
     70          1           0       18.214245   -4.808342   -0.310988
     71          1           0       17.413174   -6.194515   -0.838750
     72          1           0       17.648248   -4.982527   -2.054017
     73          1           0       19.763562   -1.900068   -5.670822
     74          1           0       18.715179   -0.655181   -5.917999
     75          1           0       18.032287   -2.219714   -5.261953
     76          1           0       17.698060    3.116291   -2.638046
     77          1           0       19.390809    6.749578   -2.541696
     78          1           0       18.713099    6.902824   -4.231073
     79          1           0       20.417368    6.229254   -3.996675
     80         12           0      -20.630474   -0.507557   -0.394922
     81          6           0      -18.461907    2.188270    0.107049
     82          6           0      -23.186197    1.464255    0.824493
     83          6           0      -22.621653   -3.272852   -0.196398
     84          6           0      -17.872349   -2.523834   -0.960917
     85          7           0      -20.761203    1.573876    0.266420
     86          6           0      -19.812799    2.515100    0.177299
     87          6           0      -20.317295    3.953778    0.361900
     88          6           0      -21.816612    3.705327    0.782290
     89          6           0      -22.011950    2.107694    0.528245
     90          6           0      -22.227771    4.119272    2.211727
     91          6           0      -20.149867    4.850576   -0.864903
     92          6           0      -20.038598    6.345629   -0.514881
     93          1           0      -20.127540    6.781679    0.954421
     94          7           0      -22.644228   -0.861476    0.112664
     95          6           0      -23.576814    0.112044    0.539176
     96          6           0      -24.861275   -0.535229    0.715877
     97          6           0      -24.702794   -1.952250    0.482955
     98          6           0      -23.303072   -2.086139    0.082337
     99          6           0      -26.100806    0.267564    1.000410
    100          6           0      -25.783357   -3.124476    0.458073
    101          8           0      -25.540826   -4.254023    0.108221
    102          6           0      -27.176846   -2.761365    0.923255
    103          7           0      -20.283287   -2.584452   -0.459969
    104          6           0      -21.255329   -3.539511   -0.396023
    105          6           0      -20.683378   -4.988409   -0.615702
    106          6           0      -19.216267   -4.686087   -0.916296
    107          6           0      -19.125552   -3.179494   -0.762800
    108          6           0      -20.929266   -6.142939    0.437298
    109          6           0      -18.827123   -5.156081   -2.337559
    110          6           0      -19.158311   -4.246475   -3.541443
    111          7           0      -18.557675   -0.274785   -0.587678
    112          6           0      -17.553839   -1.179032   -0.819665
    113          6           0      -16.281565   -0.539483   -0.860011
    114          6           0      -16.579587    0.846395   -0.482219
    115          6           0      -17.908489    0.913317   -0.319664
    116          6           0      -14.941400   -1.054502   -1.149074
    117          6           0      -16.007730    2.135058   -0.117104
    118          8           0      -14.840428    2.534292   -0.186606
    119          6           0      -17.180464    3.080608    0.276899
    120          6           0      -17.016594    3.602135    1.629963
    121          8           0      -17.251241    2.996859    2.670551
    122          8           0      -16.343206    4.796540    1.572860
    123          6           0      -15.687307    5.325193    2.784635
    124          1           0      -23.924046    2.152555    1.242455
    125          1           0      -23.283334   -4.133306   -0.315524
    126          1           0      -17.011389   -3.137320   -1.234343
    127          1           0      -19.876696    4.423606    1.240947
    128          1           0      -22.537548    4.104880    0.069946
    129          1           0      -23.091524    4.745926    1.990319
    130          1           0      -21.436796    4.698223    2.687864
    131          1           0      -22.449920    3.239305    2.815512
    132          1           0      -20.953326    4.710801   -1.587094
    133          1           0      -19.243547    4.579514   -1.407054
    134          1           0      -20.869526    6.746989   -1.095396
    135          1           0      -19.163599    6.807222   -0.974721
    136          1           0      -25.749141    1.275746    1.219803
    137          1           0      -26.623765   -0.175102    1.848416
    138          1           0      -26.802855    0.279631    0.165344
    139          1           0      -27.326384   -2.638478    1.996427
    140          1           0      -27.864758   -3.501527    0.514565
    141          1           0      -27.341857   -1.814473    0.409305
    142          1           0      -21.236844   -5.289862   -1.504737
    143          1           0      -18.634610   -5.213102   -0.160830
    144          1           0      -20.036603   -6.700513    0.718323
    145          1           0      -21.593244   -6.877283   -0.017633
    146          1           0      -21.447373   -5.705287    1.291120
    147          1           0      -19.302873   -6.128706   -2.457129
    148          1           0      -17.752180   -5.330907   -2.283728
    149          1           0      -19.513702   -4.932787   -4.309638
    150          1           0      -18.286052   -3.737951   -3.951493
    151          1           0      -19.855347   -3.439790   -3.317255
    152          1           0      -14.434729   -0.320551   -1.774760
    153          1           0      -14.905705   -2.028608   -1.636963
    154          1           0      -14.332366   -1.031398   -0.245209
    155          1           0      -17.152200    3.862994   -0.481355
    156          1           0      -15.869322    4.698395    3.658309
    157          1           0      -16.116302    6.306040    2.991053
    158          1           0      -14.644929    5.326654    2.467919
 ---------------------------------------------------------------------

 SCF Done:  E(RwB97XD) =  -4070.60924207     A.U. after   20 cycles

 Excitation energies and oscillator strengths:

 Excited State   1:      Singlet-A      1.6417 eV  755.23 nm  f=0.3885  <S**2>=0.000
     309 -> 315        0.19294
     312 -> 314        0.68134
     309 <- 315        0.11998
 This state for optimization and/or second-order correction.
 Total Energy, E(TD-HF/TD-DFT) =  -4070.54891125
 Copying the excited state density for this state as the 1-particle RhoCI density.

 Excited State   2:      Singlet-A      1.6570 eV  748.25 nm  f=0.4066  <S**2>=0.000
     310 -> 316        0.18724
     311 -> 313        0.68147
     310 <- 316        0.11628

 Excited State   3:      Singlet-A      2.0777 eV  596.75 nm  f=0.1506  <S**2>=0.000
     310 -> 313        0.65642
     311 -> 316       -0.23986

 Excited State   4:      Singlet-A      2.1319 eV  581.56 nm  f=0.1064  <S**2>=0.000
     309 -> 314        0.64023
     312 -> 315       -0.28532

 Excited State   5:      Singlet-A      3.1037 eV  399.47 nm  f=0.0053  <S**2>=0.000
     306 -> 313       -0.12861
     308 -> 313        0.67536

 The electronic state is 1-A.
 Alpha  occ. eigenvalues --  -46.96309 -46.94595 -19.29955 -19.29121 -19.24964
 Alpha  occ. eigenvalues --  -19.24930 -19.24576 -19.23931 -19.23770 -19.23653
 Alpha  occ. eigenvalues --  -14.46883 -14.46770 -14.46470 -14.46348 -14.44084
 Alpha  occ. eigenvalues --  -14.44065 -14.43365 -14.42779 -10.42938 -10.42514
 Alpha  occ. eigenvalues --  -10.40167 -10.39665 -10.39113 -10.38787 -10.35652
 Alpha  occ. eigenvalues --  -10.35118 -10.34966 -10.34943 -10.34925 -10.34915
 Alpha  occ. eigenvalues --  -10.34896 -10.34718 -10.34717 -10.34663 -10.34385
 Alpha  occ. eigenvalues --  -10.34325 -10.33903 -10.33581 -10.33457 -10.33004
 Alpha  occ. eigenvalues --  -10.32848 -10.32831 -10.32805 -10.32719 -10.32530
 Alpha  occ. eigenvalues --  -10.32299 -10.32293 -10.32272 -10.32154 -10.32055
 Alpha  occ. eigenvalues --  -10.32044 -10.31852 -10.31813 -10.31714 -10.31700
 Alpha  occ. eigenvalues --  -10.31696 -10.31670 -10.31646 -10.31463 -10.31376
 Alpha  occ. eigenvalues --  -10.31291 -10.31161 -10.30942 -10.30936 -10.30928
 Alpha  occ. eigenvalues --  -10.30883 -10.30731 -10.30727 -10.30647 -10.30421
 Alpha  occ. eigenvalues --  -10.30411 -10.30393 -10.30281 -10.30232 -10.30194
 Alpha  occ. eigenvalues --  -10.30024 -10.29976 -10.29840 -10.29701 -10.29666
 Alpha  occ. eigenvalues --  -10.29296 -10.29239 -10.28923 -10.28888 -10.28802
 Alpha  occ. eigenvalues --  -10.28747  -3.22102  -3.20557  -1.95654  -1.95225
 Alpha  occ. eigenvalues --   -1.95053  -1.94147  -1.93677  -1.93534  -1.18429
 Alpha  occ. eigenvalues --   -1.17260  -1.15103  -1.13806  -1.11415  -1.11107
 Alpha  occ. eigenvalues --   -1.10716  -1.08839  -1.06449  -1.06190  -1.05330
 Alpha  occ. eigenvalues --   -1.05108  -1.04490  -1.04480  -1.03847  -1.03063
 Alpha  occ. eigenvalues --   -0.94057  -0.93547  -0.91133  -0.91036  -0.90712
 Alpha  occ. eigenvalues --   -0.90649  -0.90163  -0.90078  -0.89279  -0.89089
 Alpha  occ. eigenvalues --   -0.89022  -0.88395  -0.88032  -0.88007  -0.86127
 Alpha  occ. eigenvalues --   -0.85853  -0.85568  -0.85330  -0.84427  -0.84225
 Alpha  occ. eigenvalues --   -0.83876  -0.83876  -0.82955  -0.82755  -0.82338
 Alpha  occ. eigenvalues --   -0.82136  -0.80238  -0.80097  -0.79048  -0.79033
 Alpha  occ. eigenvalues --   -0.78986  -0.78753  -0.77829  -0.77778  -0.76966
 Alpha  occ. eigenvalues --   -0.76573  -0.74425  -0.74292  -0.73404  -0.73073
 Alpha  occ. eigenvalues --   -0.71733  -0.71700  -0.71163  -0.70417  -0.70183
 Alpha  occ. eigenvalues --   -0.69655  -0.68908  -0.68070  -0.66902  -0.66715
 Alpha  occ. eigenvalues --   -0.66629  -0.66446  -0.66203  -0.66060  -0.65977
 Alpha  occ. eigenvalues --   -0.65735  -0.63660  -0.63398  -0.62018  -0.61781
 Alpha  occ. eigenvalues --   -0.61481  -0.61080  -0.61038  -0.60776  -0.60290
 Alpha  occ. eigenvalues --   -0.60282  -0.59951  -0.59661  -0.59403  -0.59361
 Alpha  occ. eigenvalues --   -0.58020  -0.57821  -0.57820  -0.57384  -0.57305
 Alpha  occ. eigenvalues --   -0.57120  -0.56964  -0.56613  -0.56501  -0.55971
 Alpha  occ. eigenvalues --   -0.55648  -0.55624  -0.55276  -0.55270  -0.54792
 Alpha  occ. eigenvalues --   -0.54684  -0.54619  -0.54266  -0.54251  -0.54058
 Alpha  occ. eigenvalues --   -0.53896  -0.53648  -0.53550  -0.53114  -0.52850
 Alpha  occ. eigenvalues --   -0.52737  -0.52733  -0.52583  -0.52491  -0.52208
 Alpha  occ. eigenvalues --   -0.52178  -0.51926  -0.51623  -0.51520  -0.51403
 Alpha  occ. eigenvalues --   -0.51314  -0.51081  -0.50972  -0.50913  -0.50908
 Alpha  occ. eigenvalues --   -0.50640  -0.50494  -0.50450  -0.50267  -0.50149
 Alpha  occ. eigenvalues --   -0.50032  -0.49620  -0.49554  -0.49150  -0.49051
 Alpha  occ. eigenvalues --   -0.49045  -0.48700  -0.48677  -0.48192  -0.48040
 Alpha  occ. eigenvalues --   -0.47940  -0.47786  -0.47727  -0.47563  -0.47435
 Alpha  occ. eigenvalues --   -0.47344  -0.47196  -0.46941  -0.46568  -0.46530
 Alpha  occ. eigenvalues --   -0.46484  -0.46241  -0.46221  -0.45979  -0.45884
 Alpha  occ. eigenvalues --   -0.45618  -0.45595  -0.45544  -0.45325  -0.45194
 Alpha  occ. eigenvalues --   -0.45153  -0.44985  -0.44953  -0.44880  -0.44743
 Alpha  occ. eigenvalues --   -0.44661  -0.44492  -0.44304  -0.44274  -0.43938
 Alpha  occ. eigenvalues --   -0.43924  -0.43742  -0.43410  -0.43390  -0.43016
 Alpha  occ. eigenvalues --   -0.42799  -0.42780  -0.42517  -0.42455  -0.42157
 Alpha  occ. eigenvalues --   -0.41995  -0.41821  -0.41073  -0.40817  -0.40435
 Alpha  occ. eigenvalues --   -0.40307  -0.40013  -0.39818  -0.39750  -0.39601
 Alpha  occ. eigenvalues --   -0.39309  -0.38973  -0.38777  -0.38051  -0.37891
 Alpha  occ. eigenvalues --   -0.37695  -0.37639  -0.36572  -0.36314  -0.35746
 Alpha  occ. eigenvalues --   -0.35536  -0.35509  -0.35346  -0.33729  -0.33565
 Alpha  occ. eigenvalues --   -0.33104  -0.33006  -0.32799  -0.32604  -0.31990
 Alpha  occ. eigenvalues --   -0.31794  -0.31481  -0.30840  -0.25712  -0.25424
 Alpha  occ. eigenvalues --   -0.23111  -0.22825
 Alpha virt. eigenvalues --   -0.07276  -0.06975   0.00319   0.00616   0.02495
 Alpha virt. eigenvalues --    0.02646   0.04275   0.04591   0.04663   0.05682
 Alpha virt. eigenvalues --    0.07037   0.07442   0.07773   0.07822   0.08468

 Mulliken charges:
               1
     1  Mg   0.948405
     2  C   -0.025620
     3  C   -0.065407
     4  C   -0.063889
     5  C   -0.102245
     6  N   -0.370926
     7  C   -0.015765
     8  C   -0.028542
     9  C   -0.134316
    10  C    0.098660
    11  C    0.020585
    12  C   -0.029937
    13  C   -0.123777
    14  H    0.053577
    15  N   -0.508234
    16  C    0.144461
    17  C   -0.142143
    18  C   -0.082442
    19  C    0.112964
    20  C    0.033135
    21  C    0.056503
    22  O   -0.199144
    23  C   -0.017921
    24  N   -0.306677
    25  C    0.065649
    26  C   -0.068811
    27  C   -0.047990
    28  C    0.007215
    29  C    0.036434
    30  C   -0.047554
    31  C   -0.031087
    32  N   -0.393650
    33  C    0.166259
    34  C   -0.184927
    35  C   -0.031392
    36  C    0.105979
    37  C    0.061920
    38  C    0.130926
    39  O   -0.210218
    40  C   -0.060718
    41  C    0.252730
    42  O   -0.228682
    43  O   -0.379409
    44  C    0.117925
    45  H   -0.017337
    46  H    0.026197
    47  H   -0.005174
    48  H    0.048811
    49  H    0.042172
    50  H    0.042685
    51  H    0.050086
    52  H    0.032129
    53  H    0.030208
    54  H    0.046378
    55  H    0.034888
    56  H    0.055893
    57  H    0.037107
    58  H    0.055378
    59  H    0.058277
    60  H    0.064521
    61  H    0.073666
    62  H    0.037376
    63  H    0.039940
    64  H    0.035198
    65  H    0.044155
    66  H    0.034833
    67  H    0.041307
    68  H    0.023703
    69  H    0.022402
    70  H    0.035773
    71  H    0.033360
    72  H    0.037207
    73  H    0.045431
    74  H    0.051372
    75  H    0.052657
    76  H    0.070966
    77  H    0.051489
    78  H    0.068795
    79  H    0.086246
    80  Mg   0.959931
    81  C   -0.000960
    82  C   -0.090112
    83  C   -0.073964
    84  C   -0.087011
    85  N   -0.357131
    86  C   -0.011271
    87  C   -0.047763
    88  C   -0.149017
    89  C    0.067828
    90  C    0.032209
    91  C    0.017155
    92  C   -0.110758
    93  H    0.046824
    94  N   -0.477723
    95  C    0.165503
    96  C   -0.178480
    97  C   -0.089937
    98  C    0.129251
    99  C    0.057100
   100  C    0.082249
   101  O   -0.208414
   102  C   -0.022457
   103  N   -0.338045
   104  C    0.039820
   105  C   -0.081596
   106  C   -0.049194
   107  C    0.051132
   108  C    0.022585
   109  C   -0.042567
   110  C   -0.033339
   111  N   -0.449860
   112  C    0.142096
   113  C   -0.165023
   114  C   -0.034730
   115  C    0.132453
   116  C    0.085473
   117  C    0.094066
   118  O   -0.220694
   119  C   -0.058993
   120  C    0.274356
   121  O   -0.254800
   122  O   -0.379423
   123  C    0.128389
   124  H    0.001320
   125  H    0.020127
   126  H   -0.015913
   127  H    0.038831
   128  H    0.031195
   129  H    0.040101
   130  H    0.043093
   131  H    0.055415
   132  H    0.031077
   133  H    0.031048
   134  H    0.040513
   135  H    0.054369
   136  H    0.029118
   137  H    0.047915
   138  H    0.067799
   139  H    0.082025
   140  H    0.053797
   141  H    0.031783
   142  H    0.039768
   143  H    0.036090
   144  H    0.039805
   145  H    0.035670
   146  H    0.050964
   147  H    0.030133
   148  H    0.031109
   149  H    0.040375
   150  H    0.037230
   151  H    0.046604
   152  H    0.052963
   153  H    0.034619
   154  H    0.057816
   155  H    0.073290
   156  H    0.066859
   157  H    0.054422
   158  H    0.073512
 Sum of Mulliken charges =  -0.00000

 Dipole moment (field-independent basis, Debye):
    X=             -4.2718    Y=              1.1361    Z=              3.7909  Tot=              5.8232
 Quadrupole moment (field-independent basis, Debye-Ang):
   XX=           -417.6751   YY=           -464.9625   ZZ=           -512.2746
   XY=            -29.5141   XZ=            131.9461   YZ=             32.9059

 Normal termination of Gaussian 16 at Sun Sep 19 02:18:35 2021.
