 Gaussian 16, Revision A.03,
 Gaussian 16:  ES64L-G16RevA.03 25-Dec-2016

 --------------------------------
 #p wB97XD/Def2SVP td=(nstates=5)
 --------------------------------

 --------------------------------
 TDDFT excited states in gaussian
 --------------------------------
 Symbolic Z-matrix:
 Charge =  0 Multiplicity = 1

                         Standard orientation:
 ---------------------------------------------------------------------
 Center     Atomic      Atomic             Coordinates (Angstroms)
 Number     Number       Type             X           Y           Z
 ---------------------------------------------------------------------
      1         12           0       -0.637433   -0.050895   -0.303206
      2          6           0        2.839932    0.025801    0.267002
      3          6           0       -0.493463   -3.364991    0.187388
      4          6           0       -3.902867    0.075189   -0.343941
      5          6           0       -0.529135    3.512791   -0.060548
      6          7           0        1.002057   -1.478942    0.218334
      7          6           0        2.337344   -1.282642    0.328856
      8          6           0        3.122554   -2.557316    0.562631
      9          6           0        2.005104   -3.630629    0.246031
     10          6           0        0.726362   -2.819249    0.219413
     11          6           0        2.218568   -4.439433   -1.099558
     12          6           0        3.851261   -2.852125    1.945729
     13          6           0        3.519128   -2.041905    3.226879
     14          1           0        3.594555   -2.787585    4.611451
     15          7           0       -1.996196   -1.538820   -0.230571
     16          6           0       -1.776789   -2.809421    0.079993
     17          6           0       -3.085006   -3.508132    0.204636
     18          6           0       -4.110379   -2.479514   -0.129594
     19          6           0       -3.336248   -1.242277   -0.233966
     20          6           0       -3.232150   -4.992196    0.406619
     21          6           0       -5.598712   -2.705172   -0.184215
     22          8           0       -6.028608   -3.843763   -0.016554
     23          6           0       -6.685315   -1.584136   -0.378393
     24          7           0       -2.092567    1.618439   -0.100661
     25          6           0       -3.320592    1.302648   -0.327276
     26          6           0       -4.149923    2.659285   -0.431581
     27          6           0       -3.065642    3.683200   -0.089375
     28          6           0       -1.774349    2.888537   -0.057756
     29          6           0       -4.909686    2.974917   -1.730776
     30          6           0       -3.212228    4.312051    1.391763
     31          6           0       -3.555950    5.810849    1.469957
     32          7           0        0.773780    1.488360    0.088533
     33          6           0        0.710019    2.855656    0.034108
     34          6           0        2.074706    3.443161    0.011299
     35          6           0        2.974807    2.362531    0.232111
     36          6           0        2.095548    1.197329    0.153777
     37          6           0        2.444889    4.943111   -0.003915
     38          6           0        4.320330    1.941612    0.438555
     39          8           0        5.389571    2.533151    0.665981
     40          6           0        4.310160    0.392352    0.394776
     41          6           0        5.238452   -0.024215   -0.749803
     42          8           0        6.341119   -0.502987   -0.772862
     43          8           0        4.503318    0.045011   -1.938207
     44          6           0        5.166205   -0.429268   -3.192596
     45          1           0       -0.417910   -4.440872    0.359447
     46          1           0       -4.994328    0.061497   -0.394256
     47          1           0       -0.495477    4.587125   -0.251357
     48          1           0        3.844905   -2.586256   -0.252934
     49          1           0        1.989838   -4.377289    1.040121
     50          1           0        3.096474   -4.079560   -1.635048
     51          1           0        1.370911   -4.097217   -1.692237
     52          1           0        2.239030   -5.508243   -0.885869
     53          1           0        4.921891   -2.771032    1.757458
     54          1           0        3.712107   -3.903890    2.198071
     55          1           0        2.499771   -1.681599    3.088158
     56          1           0        4.240097   -1.256070    3.450090
     57          1           0       -4.239632   -5.356106    0.206094
     58          1           0       -2.832209   -5.206241    1.398455
     59          1           0       -2.484196   -5.416642   -0.263901
     60          1           0       -6.627244   -0.880972   -1.210085
     61          1           0       -6.642916   -0.922826    0.487046
     62          1           0       -7.688758   -1.998452   -0.471760
     63          1           0       -4.964270    2.684157    0.291732
     64          1           0       -2.955170    4.564776   -0.721778
     65          1           0       -4.807090    2.175999   -2.465324
     66          1           0       -4.610647    3.936468   -2.149368
     67          1           0       -5.988760    3.048814   -1.595692
     68          1           0       -2.290841    4.214411    1.964250
     69          1           0       -3.986541    3.721188    1.881546
     70          1           0       -3.133850    6.345992    2.320939
     71          1           0       -4.637719    5.847271    1.598303
     72          1           0       -3.167449    6.204314    0.530542
     73          1           0        1.622421    5.623917    0.213063
     74          1           0        2.786251    5.118208   -1.023872
     75          1           0        3.309152    5.085259    0.644418
     76          1           0        4.694957    0.002682    1.336634
     77          1           0        6.247951   -0.330323   -3.280092
     78          1           0        4.756227    0.234554   -3.953520
     79          1           0        4.933335   -1.429671   -3.557944
 ---------------------------------------------------------------------

 SCF Done:  E(RwB97XD) =  -2035.28802585     A.U. after   19 cycles

 Excitation energies and oscillator strengths:

 Excited State   1:      Singlet-A      1.7163 eV  722.41 nm  f=0.4068  <S**2>=0.000
     155 ->158        -0.19080
     156 ->157         0.68126
     155 <-158        -0.11535
 This state for optimization and/or second-order correction.
 Total Energy, E(TD-HF/TD-DFT) =  -2035.22495473
 Copying the excited state density for this state as the 1-particle RhoCI density.

 Excited State   2:      Singlet-A      2.2310 eV  555.73 nm  f=0.0954  <S**2>=0.000
     155 ->157         0.63458
     156 ->158         0.29965

 Excited State   3:      Singlet-A      3.3957 eV  365.12 nm  f=0.0213  <S**2>=0.000
     150 ->157         0.19201
     150 ->159        -0.14730
     151 ->157         0.46736
     151 ->159        -0.33209
     151 ->160        -0.12887
     152 ->157         0.15174
     156 ->158         0.15179

 Excited State   4:      Singlet-A      3.4686 eV  357.45 nm  f=0.0050  <S**2>=0.000
     151 ->157         0.13322
     154 ->157         0.65144
     154 ->159         0.12407
     156 ->158        -0.11753

 Excited State   5:      Singlet-A      3.5412 eV  350.12 nm  f=0.5105  <S**2>=0.000
     152 ->157        -0.30111
     155 ->157        -0.25323
     156 ->158         0.55716
     155 <-157         0.10173

 The electronic state is 1-A.
 Alpha  occ. eigenvalues --  -46.96420 -19.29883 -19.25404 -19.24617 -19.23589
 Alpha  occ. eigenvalues --  -14.46927 -14.46383 -14.45078 -14.44728 -10.43793
 Alpha  occ. eigenvalues --  -10.39788 -10.39563 -10.35659 -10.35587 -10.35154
 Alpha  occ. eigenvalues --  -10.35135 -10.34772 -10.34701 -10.34436 -10.34187
 Alpha  occ. eigenvalues --  -10.34080 -10.33832 -10.33385 -10.33076 -10.32887
 Alpha  occ. eigenvalues --  -10.32873 -10.32075 -10.31972 -10.31951 -10.31693
 Alpha  occ. eigenvalues --  -10.31536 -10.31435 -10.31327 -10.31133 -10.31132
 Alpha  occ. eigenvalues --  -10.30983 -10.30460 -10.30430 -10.30351 -10.30333
 Alpha  occ. eigenvalues --  -10.30027 -10.29616 -10.29265  -3.22350  -1.95926
 Alpha  occ. eigenvalues --   -1.95470  -1.95317  -1.18267  -1.11751  -1.11645
 Alpha  occ. eigenvalues --   -1.09540  -1.08749  -1.06854  -1.06071  -1.05339
 Alpha  occ. eigenvalues --   -0.95629  -0.91740  -0.90739  -0.90491  -0.90216
 Alpha  occ. eigenvalues --   -0.88914  -0.87332  -0.86846  -0.85844  -0.84795
 Alpha  occ. eigenvalues --   -0.83722  -0.82788  -0.82485  -0.80486  -0.79653
 Alpha  occ. eigenvalues --   -0.78958  -0.78631  -0.77321  -0.75348  -0.74392
 Alpha  occ. eigenvalues --   -0.71615  -0.71211  -0.70609  -0.69517  -0.68792
 Alpha  occ. eigenvalues --   -0.67656  -0.67520  -0.66891  -0.65199  -0.62604
 Alpha  occ. eigenvalues --   -0.62222  -0.61461  -0.60546  -0.60103  -0.59270
 Alpha  occ. eigenvalues --   -0.58361  -0.57877  -0.57665  -0.57045  -0.56523
 Alpha  occ. eigenvalues --   -0.55926  -0.55603  -0.54911  -0.54730  -0.53978
 Alpha  occ. eigenvalues --   -0.53678  -0.53544  -0.53231  -0.53037  -0.52539
 Alpha  occ. eigenvalues --   -0.51969  -0.51761  -0.51472  -0.51004  -0.50812
 Alpha  occ. eigenvalues --   -0.50486  -0.50464  -0.50249  -0.49810  -0.49541
 Alpha  occ. eigenvalues --   -0.49385  -0.49219  -0.48888  -0.48591  -0.48245
 Alpha  occ. eigenvalues --   -0.48060  -0.47810  -0.47503  -0.47307  -0.46798
 Alpha  occ. eigenvalues --   -0.46133  -0.45922  -0.45532  -0.45268  -0.45098
 Alpha  occ. eigenvalues --   -0.44592  -0.44267  -0.44056  -0.44012  -0.43376
 Alpha  occ. eigenvalues --   -0.43123  -0.42864  -0.42608  -0.41892  -0.41157
 Alpha  occ. eigenvalues --   -0.40775  -0.40145  -0.39735  -0.38904  -0.38731
 Alpha  occ. eigenvalues --   -0.38288  -0.37076  -0.36271  -0.35875  -0.34105
 Alpha  occ. eigenvalues --   -0.33501  -0.33283  -0.32881  -0.31435  -0.26433
 Alpha  occ. eigenvalues --   -0.23357
 Alpha virt. eigenvalues --   -0.07275  -0.00140   0.01402   0.03839   0.04508
 Alpha virt. eigenvalues --    0.06800   0.07178   0.07958   0.09322   0.10168
 Alpha virt. eigenvalues --    0.11304   0.11759   0.12233   0.13127   0.13694

 Mulliken charges:
               1
     1  Mg   0.957702
     2  C   -0.036485
     3  C   -0.091664
     4  C   -0.036350
     5  C   -0.103684
     6  N   -0.341067
     7  C   -0.037799
     8  C    0.005254
     9  C   -0.158283
    10  C    0.057817
    11  C    0.033624
    12  C    0.002406
    13  C   -0.150023
    14  H    0.026864
    15  N   -0.476213
    16  C    0.164678
    17  C   -0.173368
    18  C   -0.081313
    19  C    0.167347
    20  C    0.085893
    21  C    0.055581
    22  O   -0.240356
    23  C   -0.027178
    24  N   -0.273872
    25  C    0.045880
    26  C   -0.055766
    27  C   -0.125989
    28  C    0.077300
    29  C    0.014296
    30  C   -0.041907
    31  C   -0.039878
    32  N   -0.401918
    33  C    0.127072
    34  C   -0.186095
    35  C   -0.008891
    36  C    0.160687
    37  C    0.075221
    38  C    0.093734
    39  O   -0.218093
    40  C   -0.083327
    41  C    0.279625
    42  O   -0.209531
    43  O   -0.398028
    44  C    0.134890
    45  H   -0.010893
    46  H   -0.053792
    47  H    0.002664
    48  H    0.040930
    49  H    0.037047
    50  H    0.035432
    51  H    0.038120
    52  H    0.054851
    53  H    0.045331
    54  H    0.044645
    55  H    0.072954
    56  H    0.074372
    57  H    0.077704
    58  H    0.041044
    59  H    0.036947
    60  H    0.056559
    61  H    0.057186
    62  H    0.052417
    63  H    0.035509
    64  H    0.023174
    65  H    0.033238
    66  H    0.036004
    67  H    0.027115
    68  H    0.043324
    69  H    0.025250
    70  H    0.043761
    71  H    0.037811
    72  H    0.028133
    73  H    0.042836
    74  H    0.054956
    75  H    0.069755
    76  H    0.068839
    77  H    0.065918
    78  H    0.044848
    79  H    0.047217
 Sum of Mulliken charges =  -0.00000

 Dipole moment (field-independent basis, Debye):
    X=             -2.7763    Y=              1.9414    Z=             -2.6675  Tot=              4.3119
 Quadrupole moment (field-independent basis, Debye-Ang):
   XX=           -297.2450   YY=           -246.1059   ZZ=           -248.6007
   XY=            -40.9991   XZ=             -7.4483   YZ=             -1.9717

 Normal termination of Gaussian 16 at Sun Sep 19 16:58:45 2021.
