 Gaussian 16, Revision A.03,
 Gaussian 16:  ES64L-G16RevA.03 25-Dec-2016

 --------------------------------
 #p wB97XD/Def2SVP td=(nstates=5)
 --------------------------------

 --------------------------------
 TDDFT excited states in gaussian
 --------------------------------
 Symbolic Z-matrix:
 Charge =  0 Multiplicity = 1

                         Standard orientation:
 ---------------------------------------------------------------------
 Center     Atomic      Atomic             Coordinates (Angstroms)
 Number     Number       Type             X           Y           Z
 ---------------------------------------------------------------------
      1         12           0        9.022093    0.276385    0.005335
      2          6           0        6.906523   -2.226372    1.168944
      3          6           0       10.621400   -2.045816   -1.942090
      4          6           0       11.259625    2.700768   -0.849094
      5          6           0        7.378482    2.445413    2.291640
      6          7           0        8.815578   -1.882412   -0.319163
      7          6           0        7.795316   -2.645983    0.183636
      8          6           0        7.946708   -4.035813   -0.439617
      9          6           0        9.281337   -4.020269   -1.163357
     10          6           0        9.577757   -2.524932   -1.172008
     11          6           0       10.422775   -4.856208   -0.649733
     12          6           0        6.711635   -4.529907   -1.333323
     13          6           0        6.942293   -5.842379   -2.149327
     14          1           0        6.556249   -7.197119   -1.499931
     15          7           0       10.604423    0.330754   -1.336344
     16          6           0       11.128633   -0.721146   -2.013289
     17          6           0       12.267243   -0.219038   -2.737528
     18          6           0       12.447152    1.156727   -2.408723
     19          6           0       11.447177    1.457275   -1.485647
     20          6           0       13.050346   -1.122409   -3.639443
     21          6           0       13.627424    2.065829   -2.859449
     22          8           0       13.899665    3.100079   -2.276542
     23          6           0       14.561828    1.707104   -3.914000
     24          7           0        9.245345    2.165988    0.606079
     25          6           0       10.214217    3.028458    0.094062
     26          6           0       10.104333    4.449232    0.674181
     27          6           0        8.726043    4.380971    1.415711
     28          6           0        8.409068    2.894728    1.393951
     29          6           0       11.294370    4.975665    1.363809
     30          6           0        7.497294    5.318868    0.905171
     31          6           0        6.852154    6.339879    1.847074
     32          7           0        7.449544    0.154674    1.533182
     33          6           0        6.938928    1.118346    2.356857
     34          6           0        5.902218    0.595458    3.181474
     35          6           0        5.784624   -0.760689    2.690050
     36          6           0        6.823293   -0.985416    1.743568
     37          6           0        5.136396    1.392825    4.167267
     38          6           0        4.982017   -1.958466    2.783677
     39          8           0        3.968036   -2.252024    3.385985
     40          6           0        5.731382   -2.994031    1.756126
     41          6           0        6.015097   -4.297993    2.408038
     42          8           0        6.805127   -4.438534    3.315690
     43          8           0        5.308691   -5.307579    1.869923
     44          6           0        5.696208   -6.714349    2.271154
     45          1           0       11.100720   -2.769588   -2.604972
     46          1           0       11.993639    3.456958   -1.134589
     47          1           0        6.989881    3.264957    2.900045
     48          1           0        7.988217   -4.640910    0.465945
     49          1           0        9.145577   -4.399354   -2.175948
     50          1           0       11.041538   -4.062977   -0.231314
     51          1           0       10.892760   -5.452165   -1.432202
     52          1           0       10.136848   -5.471195    0.203848
     53          1           0        6.582281   -3.684791   -2.009782
     54          1           0        5.831785   -4.664306   -0.705220
     55          1           0        7.992537   -5.978222   -2.404403
     56          1           0        6.400171   -5.748431   -3.090263
     57          1           0       12.686000   -2.138087   -3.796680
     58          1           0       14.014882   -1.256120   -3.150774
     59          1           0       13.274134   -0.671834   -4.606599
     60          1           0       15.023641    0.720335   -3.921851
     61          1           0       15.369392    2.418357   -4.086885
     62          1           0       13.948396    1.830220   -4.806304
     63          1           0        9.966078    4.975747   -0.270548
     64          1           0        9.070381    4.593901    2.427607
     65          1           0       11.782112    5.842666    0.917438
     66          1           0       12.025609    4.168483    1.414139
     67          1           0       11.103757    5.319956    2.380211
     68          1           0        6.695591    4.654847    0.582546
     69          1           0        7.667920    5.932031    0.019473
     70          1           0        5.883104    6.044625    2.250246
     71          1           0        6.846938    7.364840    1.477313
     72          1           0        7.454217    6.365861    2.755444
     73          1           0        5.838231    1.996573    4.742120
     74          1           0        4.499416    0.777639    4.802234
     75          1           0        4.620906    2.179092    3.614825
     76          1           0        5.004494   -3.193197    0.969348
     77          1           0        4.795693   -7.275122    2.021757
     78          1           0        5.921217   -6.722692    3.337454
     79          1           0        6.518594   -7.008466    1.618856
     80         12           0       -8.323878    0.973242   -0.523682
     81          6           0      -10.557057   -1.770491   -0.551848
     82          6           0       -5.687420   -1.254031   -0.527583
     83          6           0       -6.215963    3.606579   -0.201422
     84          6           0      -11.031825    3.188758   -0.304779
     85          7           0       -8.249449   -1.237758   -0.434490
     86          6           0       -9.263307   -2.161762   -0.676046
     87          6           0       -8.688604   -3.632245   -0.797745
     88          6           0       -7.180948   -3.409141   -0.504974
     89          6           0       -7.001241   -1.876491   -0.426938
     90          6           0       -6.559838   -4.106624    0.762651
     91          6           0       -9.078845   -4.442568   -2.101121
     92          6           0       -9.826650   -5.718804   -1.859519
     93          1           0       -9.482711   -6.918766   -2.828172
     94          7           0       -6.290674    1.095109   -0.381474
     95          6           0       -5.345632    0.093037   -0.468030
     96          6           0       -4.017290    0.666878   -0.320002
     97          6           0       -4.114157    2.083972   -0.223786
     98          6           0       -5.600679    2.336234   -0.289581
     99          6           0       -2.709862   -0.142391   -0.435696
    100          6           0       -3.018237    3.140180   -0.124364
    101          8           0       -3.228476    4.335606   -0.135728
    102          6           0       -1.468236    2.816141   -0.102484
    103          7           0       -8.601284    3.114178   -0.187574
    104          6           0       -7.586065    3.963099   -0.095133
    105          6           0       -8.072135    5.447552    0.066888
    106          6           0       -9.629904    5.320952   -0.164535
    107          6           0       -9.789096    3.773017   -0.253083
    108          6           0       -7.584599    6.078281    1.403278
    109          6           0      -10.094795    6.109614   -1.372766
    110          6           0      -11.405527    6.864287   -1.157883
    111          7           0      -10.391501    0.849224   -0.302605
    112          6           0      -11.376435    1.818024   -0.324583
    113          6           0      -12.631218    1.153305   -0.150866
    114          6           0      -12.397811   -0.238709   -0.275537
    115          6           0      -10.987812   -0.407404   -0.363968
    116          6           0      -13.947911    1.809599    0.025145
    117          6           0      -13.048829   -1.555543   -0.388759
    118          8           0      -14.210937   -1.925801   -0.249799
    119          6           0      -11.748154   -2.646992   -0.626755
    120          6           0      -11.769272   -3.649908    0.391874
    121          8           0      -11.010622   -3.690177    1.336119
    122          8           0      -12.677654   -4.638071    0.086347
    123          6           0      -12.774890   -5.673395    1.145285
    124          1           0       -4.826556   -1.914446   -0.652473
    125          1           0       -5.587087    4.485340   -0.047448
    126          1           0      -11.815494    3.949826   -0.324650
    127          1           0       -9.031301   -4.125374    0.111278
    128          1           0       -6.572517   -3.745800   -1.344415
    129          1           0       -5.573529   -4.465507    0.466893
    130          1           0       -7.219860   -4.918633    1.066808
    131          1           0       -6.433620   -3.447762    1.621990
    132          1           0       -8.143948   -4.611257   -2.635729
    133          1           0       -9.740096   -3.799691   -2.682368
    134          1           0      -10.897578   -5.543332   -1.969754
    135          1           0       -9.591544   -5.956228   -0.822379
    136          1           0       -2.238694    0.215336   -1.350504
    137          1           0       -2.955519   -1.182894   -0.649403
    138          1           0       -1.999698   -0.019239    0.382927
    139          1           0       -1.233551    2.243727   -1.000554
    140          1           0       -1.124822    2.456784    0.868035
    141          1           0       -0.989761    3.793688   -0.050819
    142          1           0       -7.718128    6.109386   -0.723272
    143          1           0      -10.094437    5.640814    0.768410
    144          1           0       -8.445061    6.519373    1.907215
    145          1           0       -6.761220    6.781402    1.275179
    146          1           0       -7.186546    5.298755    2.050820
    147          1           0      -10.197015    5.483177   -2.258292
    148          1           0       -9.370622    6.840373   -1.736193
    149          1           0      -11.885833    6.571469   -0.224197
    150          1           0      -12.061123    6.573742   -1.979265
    151          1           0      -11.287652    7.942952   -1.262466
    152          1           0      -13.966742    2.899238    0.043533
    153          1           0      -14.449290    1.268118    0.828247
    154          1           0      -14.410650    1.680056   -0.953509
    155          1           0      -11.854461   -3.115193   -1.605734
    156          1           0      -13.082562   -5.213576    2.084696
    157          1           0      -11.806260   -6.172736    1.166420
    158          1           0      -13.536804   -6.423494    0.936908
 ---------------------------------------------------------------------

 SCF Done:  E(RwB97XD) =  -4070.61230366     A.U. after   19 cycles

 Excitation energies and oscillator strengths:

 Excited State   1:      Singlet-A      1.6372 eV  757.29 nm  f=0.4618  <S**2>=0.000
     309 -> 315       -0.18364
     311 -> 313        0.68143
     309 <- 315       -0.11727
 This state for optimization and/or second-order correction.
 Total Energy, E(TD-HF/TD-DFT) =  -4070.55213768
 Copying the excited state density for this state as the 1-particle RhoCI density.

 Excited State   2:      Singlet-A      1.7657 eV  702.20 nm  f=0.3383  <S**2>=0.000
     310 -> 316        0.17791
     312 -> 314        0.68110
     310 <- 316        0.10710

 Excited State   3:      Singlet-A      2.1630 eV  573.20 nm  f=0.0816  <S**2>=0.000
     309 -> 313        0.63051
     311 -> 315        0.30236

 Excited State   4:      Singlet-A      2.2112 eV  560.72 nm  f=0.1139  <S**2>=0.000
     310 -> 314        0.63685
     312 -> 316       -0.28432

 Excited State   5:      Singlet-A      3.4517 eV  359.19 nm  f=0.0000  <S**2>=0.000
     312 -> 313        0.70662

 The electronic state is 1-A.
 Alpha  occ. eigenvalues --  -46.94439 -46.94433 -19.29881 -19.29361 -19.24804
 Alpha  occ. eigenvalues --  -19.24287 -19.24222 -19.23980 -19.23946 -19.23434
 Alpha  occ. eigenvalues --  -14.47542 -14.46833 -14.46750 -14.46191 -14.44862
 Alpha  occ. eigenvalues --  -14.43902 -14.43250 -14.43134 -10.42037 -10.41938
 Alpha  occ. eigenvalues --  -10.40291 -10.39833 -10.39732 -10.38936 -10.36522
 Alpha  occ. eigenvalues --  -10.36093 -10.36029 -10.35881 -10.35352 -10.35317
 Alpha  occ. eigenvalues --  -10.35232 -10.35130 -10.34842 -10.34674 -10.34291
 Alpha  occ. eigenvalues --  -10.34085 -10.33996 -10.33973 -10.33837 -10.33607
 Alpha  occ. eigenvalues --  -10.33192 -10.32908 -10.32675 -10.32550 -10.32440
 Alpha  occ. eigenvalues --  -10.32423 -10.32357 -10.32327 -10.32237 -10.31926
 Alpha  occ. eigenvalues --  -10.31854 -10.31803 -10.31750 -10.31741 -10.31737
 Alpha  occ. eigenvalues --  -10.31709 -10.31576 -10.31554 -10.31506 -10.31419
 Alpha  occ. eigenvalues --  -10.31401 -10.31344 -10.31283 -10.31184 -10.31179
 Alpha  occ. eigenvalues --  -10.31163 -10.31127 -10.31082 -10.31021 -10.30734
 Alpha  occ. eigenvalues --  -10.30566 -10.30464 -10.30444 -10.30367 -10.30178
 Alpha  occ. eigenvalues --  -10.30161 -10.29928 -10.29791 -10.29784 -10.29577
 Alpha  occ. eigenvalues --  -10.29553 -10.29534 -10.29490 -10.29001 -10.28795
 Alpha  occ. eigenvalues --  -10.28699  -3.20516  -3.20398  -1.94128  -1.93997
 Alpha  occ. eigenvalues --   -1.93642  -1.93514  -1.93493  -1.93377  -1.18256
 Alpha  occ. eigenvalues --   -1.17826  -1.13637  -1.13377  -1.12005  -1.11302
 Alpha  occ. eigenvalues --   -1.09426  -1.09162  -1.07456  -1.06347  -1.05945
 Alpha  occ. eigenvalues --   -1.05549  -1.04631  -1.04390  -1.03815  -1.02792
 Alpha  occ. eigenvalues --   -0.94630  -0.93613  -0.91292  -0.90870  -0.90762
 Alpha  occ. eigenvalues --   -0.90494  -0.90147  -0.89860  -0.89706  -0.89132
 Alpha  occ. eigenvalues --   -0.89081  -0.88863  -0.88677  -0.87333  -0.86742
 Alpha  occ. eigenvalues --   -0.86131  -0.85807  -0.85384  -0.84739  -0.84598
 Alpha  occ. eigenvalues --   -0.84281  -0.83564  -0.82932  -0.82830  -0.82518
 Alpha  occ. eigenvalues --   -0.81891  -0.80978  -0.80250  -0.79908  -0.79419
 Alpha  occ. eigenvalues --   -0.78712  -0.78202  -0.78062  -0.77517  -0.77302
 Alpha  occ. eigenvalues --   -0.76528  -0.74988  -0.74064  -0.74011  -0.73142
 Alpha  occ. eigenvalues --   -0.71517  -0.71022  -0.70935  -0.70632  -0.70455
 Alpha  occ. eigenvalues --   -0.69291  -0.69139  -0.69013  -0.67757  -0.67567
 Alpha  occ. eigenvalues --   -0.67409  -0.66838  -0.66595  -0.66451  -0.66424
 Alpha  occ. eigenvalues --   -0.66207  -0.63659  -0.62989  -0.62733  -0.61925
 Alpha  occ. eigenvalues --   -0.61924  -0.61185  -0.61030  -0.61013  -0.60618
 Alpha  occ. eigenvalues --   -0.60183  -0.59803  -0.59613  -0.59468  -0.58860
 Alpha  occ. eigenvalues --   -0.58551  -0.57948  -0.57785  -0.57528  -0.57528
 Alpha  occ. eigenvalues --   -0.56920  -0.56702  -0.56566  -0.56003  -0.55987
 Alpha  occ. eigenvalues --   -0.55487  -0.55314  -0.55094  -0.55056  -0.54987
 Alpha  occ. eigenvalues --   -0.54810  -0.54752  -0.54411  -0.54356  -0.54254
 Alpha  occ. eigenvalues --   -0.53902  -0.53475  -0.53472  -0.53197  -0.53138
 Alpha  occ. eigenvalues --   -0.52992  -0.52821  -0.52657  -0.52649  -0.52459
 Alpha  occ. eigenvalues --   -0.52360  -0.52032  -0.51923  -0.51598  -0.51488
 Alpha  occ. eigenvalues --   -0.51357  -0.51287  -0.51280  -0.51217  -0.51120
 Alpha  occ. eigenvalues --   -0.50784  -0.50472  -0.50376  -0.50375  -0.49829
 Alpha  occ. eigenvalues --   -0.49826  -0.49774  -0.49568  -0.49509  -0.49307
 Alpha  occ. eigenvalues --   -0.49259  -0.48985  -0.48723  -0.48711  -0.48563
 Alpha  occ. eigenvalues --   -0.48402  -0.48241  -0.48185  -0.47980  -0.47767
 Alpha  occ. eigenvalues --   -0.47312  -0.47295  -0.47252  -0.46972  -0.46956
 Alpha  occ. eigenvalues --   -0.46604  -0.46535  -0.46493  -0.46402  -0.46267
 Alpha  occ. eigenvalues --   -0.46125  -0.45870  -0.45821  -0.45725  -0.45469
 Alpha  occ. eigenvalues --   -0.45330  -0.45078  -0.45032  -0.45000  -0.44868
 Alpha  occ. eigenvalues --   -0.44803  -0.44167  -0.44156  -0.44080  -0.43927
 Alpha  occ. eigenvalues --   -0.43749  -0.43701  -0.43435  -0.43277  -0.43020
 Alpha  occ. eigenvalues --   -0.42985  -0.42509  -0.42315  -0.42281  -0.42083
 Alpha  occ. eigenvalues --   -0.41795  -0.41656  -0.41445  -0.41381  -0.41166
 Alpha  occ. eigenvalues --   -0.40900  -0.40476  -0.39993  -0.39503  -0.39414
 Alpha  occ. eigenvalues --   -0.39112  -0.39063  -0.38768  -0.38499  -0.38307
 Alpha  occ. eigenvalues --   -0.38093  -0.37709  -0.36439  -0.36260  -0.36027
 Alpha  occ. eigenvalues --   -0.35640  -0.35204  -0.35183  -0.33746  -0.33447
 Alpha  occ. eigenvalues --   -0.33391  -0.33330  -0.32729  -0.32487  -0.32117
 Alpha  occ. eigenvalues --   -0.32044  -0.31451  -0.30608  -0.26343  -0.25871
 Alpha  occ. eigenvalues --   -0.23146  -0.23010
 Alpha virt. eigenvalues --   -0.07378  -0.06675  -0.00176   0.00300   0.02252
 Alpha virt. eigenvalues --    0.02452   0.04358   0.04619   0.06145   0.06241
 Alpha virt. eigenvalues --    0.07047   0.07112   0.07707   0.08037   0.08205

 Mulliken charges:
               1
     1  Mg   0.969659
     2  C    0.026916
     3  C   -0.088575
     4  C   -0.071534
     5  C   -0.105556
     6  N   -0.331682
     7  C   -0.007106
     8  C   -0.043772
     9  C   -0.151879
    10  C    0.059961
    11  C    0.050635
    12  C    0.000204
    13  C   -0.115695
    14  H    0.029429
    15  N   -0.488287
    16  C    0.172562
    17  C   -0.166552
    18  C   -0.057293
    19  C    0.126103
    20  C    0.053424
    21  C    0.071901
    22  O   -0.233356
    23  C   -0.004857
    24  N   -0.422735
    25  C    0.060957
    26  C   -0.086658
    27  C   -0.053601
    28  C    0.048245
    29  C    0.042742
    30  C   -0.002751
    31  C   -0.069072
    32  N   -0.373581
    33  C    0.159685
    34  C   -0.167120
    35  C   -0.076904
    36  C    0.112922
    37  C    0.102218
    38  C    0.144473
    39  O   -0.194503
    40  C   -0.138146
    41  C    0.241227
    42  O   -0.253767
    43  O   -0.372966
    44  C    0.133509
    45  H   -0.015952
    46  H    0.029159
    47  H    0.001957
    48  H    0.035525
    49  H    0.021875
    50  H    0.039395
    51  H    0.043887
    52  H    0.038806
    53  H    0.034029
    54  H    0.060219
    55  H    0.044200
    56  H    0.058768
    57  H    0.039808
    58  H    0.050284
    59  H    0.047479
    60  H    0.056853
    61  H    0.050601
    62  H    0.049876
    63  H    0.038598
    64  H    0.032114
    65  H    0.040967
    66  H    0.046837
    67  H    0.028351
    68  H    0.035407
    69  H    0.035812
    70  H    0.039198
    71  H    0.046336
    72  H    0.018806
    73  H    0.035645
    74  H    0.072558
    75  H    0.043432
    76  H    0.065808
    77  H    0.062299
    78  H    0.082454
    79  H    0.059782
    80  Mg   0.955161
    81  C    0.013582
    82  C   -0.099698
    83  C   -0.066116
    84  C   -0.067233
    85  N   -0.380780
    86  C   -0.011874
    87  C   -0.052022
    88  C   -0.157116
    89  C    0.113235
    90  C    0.022858
    91  C    0.049764
    92  C   -0.135168
    93  H    0.029011
    94  N   -0.510188
    95  C    0.183992
    96  C   -0.167240
    97  C   -0.051685
    98  C    0.185126
    99  C    0.065658
   100  C    0.037337
   101  O   -0.219068
   102  C   -0.018698
   103  N   -0.318026
   104  C    0.037913
   105  C   -0.121215
   106  C   -0.060569
   107  C    0.021305
   108  C    0.018105
   109  C    0.000948
   110  C   -0.056919
   111  N   -0.463751
   112  C    0.166242
   113  C   -0.208839
   114  C   -0.042254
   115  C    0.161303
   116  C    0.091268
   117  C    0.152085
   118  O   -0.199533
   119  C   -0.162522
   120  C    0.269411
   121  O   -0.250260
   122  O   -0.372469
   123  C    0.150489
   124  H   -0.007743
   125  H    0.020027
   126  H   -0.018724
   127  H    0.051786
   128  H    0.032621
   129  H    0.037745
   130  H    0.043248
   131  H    0.051624
   132  H    0.038673
   133  H    0.034181
   134  H    0.065846
   135  H    0.050852
   136  H    0.051585
   137  H    0.034599
   138  H    0.070142
   139  H    0.061337
   140  H    0.057966
   141  H    0.045781
   142  H    0.039916
   143  H    0.034294
   144  H    0.035016
   145  H    0.050217
   146  H    0.041872
   147  H    0.030811
   148  H    0.027564
   149  H    0.041130
   150  H    0.030919
   151  H    0.040898
   152  H    0.018777
   153  H    0.070009
   154  H    0.044447
   155  H    0.079561
   156  H    0.060099
   157  H    0.049565
   158  H    0.051809
 Sum of Mulliken charges =  -0.00000

 Dipole moment (field-independent basis, Debye):
    X=              7.6373    Y=              0.6297    Z=             -6.3057  Tot=              9.9240
 Quadrupole moment (field-independent basis, Debye-Ang):
   XX=           -572.7995   YY=           -458.3910   ZZ=           -511.7276
   XY=            -38.4671   XZ=            -31.6794   YZ=             23.0257

 Normal termination of Gaussian 16 at Mon Sep 20 04:22:17 2021.
