 Gaussian 16, Revision A.03,
 Gaussian 16:  ES64L-G16RevA.03 25-Dec-2016

 --------------------------------
 #p wB97XD/Def2SVP td=(nstates=5)
 --------------------------------

 --------------------------------
 TDDFT excited states in gaussian
 --------------------------------
 Symbolic Z-matrix:
 Charge =  0 Multiplicity = 1

                         Standard orientation:
 ---------------------------------------------------------------------
 Center     Atomic      Atomic             Coordinates (Angstroms)
 Number     Number       Type             X           Y           Z
 ---------------------------------------------------------------------
      1         12           0       -0.729001   -0.036937    0.216630
      2          6           0        2.768552    0.211233   -0.202608
      3          6           0       -0.516530   -3.433356   -0.095389
      4          6           0       -4.013512   -0.103524   -0.062018
      5          6           0       -0.872536    3.503174    0.035344
      6          7           0        0.981945   -1.438120    0.001525
      7          6           0        2.250479   -1.103647   -0.129320
      8          6           0        3.095114   -2.345343    0.092447
      9          6           0        2.122053   -3.519167   -0.311365
     10          6           0        0.747316   -2.771660   -0.139581
     11          6           0        2.468592   -4.087763   -1.739777
     12          6           0        3.516826   -2.520363    1.573998
     13          6           0        4.778990   -3.456899    1.826480
     14          1           0        5.503688   -4.166374    0.679477
     15          7           0       -2.060273   -1.539569    0.166675
     16          6           0       -1.815299   -2.935772    0.114353
     17          6           0       -3.118706   -3.637199    0.179483
     18          6           0       -4.155836   -2.639423    0.104462
     19          6           0       -3.469111   -1.330010    0.066508
     20          6           0       -3.260027   -5.113741    0.297657
     21          6           0       -5.731593   -2.728119    0.097699
     22          8           0       -6.482640   -1.743541    0.121369
     23          6           0       -6.366730   -4.075833   -0.086709
     24          7           0       -2.252122    1.501485   -0.102784
     25          6           0       -3.527650    1.219531   -0.128933
     26          6           0       -4.445435    2.406134   -0.222502
     27          6           0       -3.433202    3.604972   -0.200694
     28          6           0       -2.085102    2.846907    0.016371
     29          6           0       -5.417817    2.282597   -1.399243
     30          6           0       -3.676000    4.624464    0.905121
     31          6           0       -3.479113    6.136081    0.526360
     32          7           0        0.644379    1.633640    0.038695
     33          6           0        0.421796    3.024537    0.023961
     34          6           0        1.678518    3.687958    0.087789
     35          6           0        2.645466    2.665984   -0.175611
     36          6           0        1.987485    1.462544   -0.146183
     37          6           0        1.887917    5.139424    0.411582
     38          6           0        4.069481    2.271861   -0.299270
     39          8           0        5.069841    2.958345   -0.321157
     40          6           0        4.117782    0.694280   -0.576199
     41          6           0        5.369816    0.098583   -0.020634
     42          8           0        5.707606    0.086219    1.126280
     43          8           0        6.203044   -0.388411   -1.045045
     44          6           0        7.658629   -0.344353   -0.790532
     45          1           0       -0.550544   -4.487893   -0.378415
     46          1           0       -5.099863   -0.011542   -0.010805
     47          1           0       -0.950112    4.592237    0.058275
     48          1           0        3.996483   -2.129572   -0.481109
     49          1           0        2.174223   -4.345521    0.398319
     50          1           0        3.306024   -3.540162   -2.170848
     51          1           0        1.612272   -3.788431   -2.344148
     52          1           0        2.742821   -5.142630   -1.757386
     53          1           0        2.645666   -2.976010    2.046480
     54          1           0        3.674405   -1.521628    1.981023
     55          1           0        4.425156   -4.199951    2.542785
     56          1           0        5.484210   -2.826988    2.369223
     57          1           0       -2.378488   -5.716464    0.513108
     58          1           0       -3.628234   -5.569055   -0.621272
     59          1           0       -3.944764   -5.239392    1.136745
     60          1           0       -6.517172   -4.627094    0.841382
     61          1           0       -5.633232   -4.522440   -0.759120
     62          1           0       -7.299814   -3.895337   -0.619740
     63          1           0       -4.985601    2.342266    0.721995
     64          1           0       -3.391541    4.165928   -1.133530
     65          1           0       -5.053141    1.650347   -2.209380
     66          1           0       -5.504036    3.290756   -1.802633
     67          1           0       -6.395214    1.903570   -1.099877
     68          1           0       -3.022219    4.442110    1.757841
     69          1           0       -4.649519    4.345044    1.307689
     70          1           0       -3.050731    6.245524   -0.469794
     71          1           0       -2.759603    6.504795    1.257126
     72          1           0       -4.338486    6.805943    0.570454
     73          1           0        1.191958    5.671932   -0.236807
     74          1           0        2.894239    5.508614    0.212966
     75          1           0        1.583233    5.337933    1.439628
     76          1           0        4.276811    0.536619   -1.642469
     77          1           0        8.022203   -1.371639   -0.761938
     78          1           0        7.902558    0.184938    0.131240
     79          1           0        8.080393    0.185313   -1.644701
 ---------------------------------------------------------------------

 SCF Done:  E(RwB97XD) =  -2035.29343392     A.U. after   19 cycles

 Excitation energies and oscillator strengths:

 Excited State   1:      Singlet-A      1.7665 eV  701.88 nm  f=0.3725  <S**2>=0.000
     155 ->158        -0.19135
     156 ->157         0.67831
     155 <-158        -0.11017
 This state for optimization and/or second-order correction.
 Total Energy, E(TD-HF/TD-DFT) =  -2035.22851764
 Copying the excited state density for this state as the 1-particle RhoCI density.

 Excited State   2:      Singlet-A      2.1197 eV  584.92 nm  f=0.0966  <S**2>=0.000
     155 ->157         0.63987
     156 ->158         0.27485

 Excited State   3:      Singlet-A      3.2682 eV  379.37 nm  f=0.0031  <S**2>=0.000
     152 ->157         0.16762
     153 ->157        -0.15650
     154 ->157         0.64095
     154 ->159         0.10638

 Excited State   4:      Singlet-A      3.4291 eV  361.57 nm  f=0.2608  <S**2>=0.000
     151 ->157        -0.23037
     152 ->157         0.26165
     153 ->157        -0.22269
     154 ->157        -0.10884
     155 ->157        -0.16824
     156 ->158         0.52295

 Excited State   5:      Singlet-A      3.5649 eV  347.79 nm  f=0.0101  <S**2>=0.000
     150 ->157         0.51422
     150 ->158        -0.12523
     150 ->159        -0.38522
     150 ->160         0.12323
     151 ->157        -0.14055

 The electronic state is 1-A.
 Alpha  occ. eigenvalues --  -46.94868 -19.28467 -19.25422 -19.24447 -19.23322
 Alpha  occ. eigenvalues --  -14.46521 -14.46315 -14.44439 -14.42562 -10.42362
 Alpha  occ. eigenvalues --  -10.40859 -10.38760 -10.36338 -10.35726 -10.34955
 Alpha  occ. eigenvalues --  -10.34900 -10.34649 -10.34581 -10.34059 -10.33662
 Alpha  occ. eigenvalues --  -10.33432 -10.32256 -10.32174 -10.31985 -10.31979
 Alpha  occ. eigenvalues --  -10.31950 -10.31808 -10.31736 -10.31656 -10.31652
 Alpha  occ. eigenvalues --  -10.31614 -10.31390 -10.30820 -10.30745 -10.30138
 Alpha  occ. eigenvalues --  -10.30124 -10.29955 -10.29918 -10.29717 -10.29692
 Alpha  occ. eigenvalues --  -10.29538 -10.29406 -10.28370  -3.20780  -1.94381
 Alpha  occ. eigenvalues --   -1.93902  -1.93740  -1.17306  -1.12779  -1.11699
 Alpha  occ. eigenvalues --   -1.09167  -1.07103  -1.06510  -1.03655  -1.03076
 Alpha  occ. eigenvalues --   -0.93730  -0.91155  -0.90849  -0.89668  -0.89538
 Alpha  occ. eigenvalues --   -0.89179  -0.87313  -0.85907  -0.85578  -0.84842
 Alpha  occ. eigenvalues --   -0.83598  -0.82572  -0.81799  -0.80618  -0.79081
 Alpha  occ. eigenvalues --   -0.78282  -0.77290  -0.77086  -0.74454  -0.73684
 Alpha  occ. eigenvalues --   -0.71744  -0.70603  -0.69229  -0.68635  -0.67946
 Alpha  occ. eigenvalues --   -0.67106  -0.66547  -0.65438  -0.63015  -0.62265
 Alpha  occ. eigenvalues --   -0.61084  -0.60571  -0.60013  -0.59532  -0.58770
 Alpha  occ. eigenvalues --   -0.58463  -0.57398  -0.57013  -0.56148  -0.55674
 Alpha  occ. eigenvalues --   -0.55132  -0.55055  -0.54752  -0.54134  -0.53921
 Alpha  occ. eigenvalues --   -0.53667  -0.53272  -0.53160  -0.52857  -0.52445
 Alpha  occ. eigenvalues --   -0.52066  -0.51935  -0.51176  -0.50833  -0.50636
 Alpha  occ. eigenvalues --   -0.50241  -0.49938  -0.49749  -0.49471  -0.49224
 Alpha  occ. eigenvalues --   -0.48928  -0.48549  -0.48435  -0.48080  -0.47492
 Alpha  occ. eigenvalues --   -0.47341  -0.46950  -0.46757  -0.46158  -0.45883
 Alpha  occ. eigenvalues --   -0.45640  -0.45319  -0.45010  -0.44708  -0.44529
 Alpha  occ. eigenvalues --   -0.44207  -0.43933  -0.43610  -0.43455  -0.43261
 Alpha  occ. eigenvalues --   -0.43057  -0.42897  -0.42018  -0.41887  -0.40966
 Alpha  occ. eigenvalues --   -0.40687  -0.39710  -0.39594  -0.38373  -0.37669
 Alpha  occ. eigenvalues --   -0.37344  -0.36213  -0.35778  -0.35207  -0.33918
 Alpha  occ. eigenvalues --   -0.33406  -0.32507  -0.32025  -0.30386  -0.25662
 Alpha  occ. eigenvalues --   -0.23151
 Alpha virt. eigenvalues --   -0.06812  -0.00092   0.01891   0.04887   0.06040
 Alpha virt. eigenvalues --    0.06991   0.08114   0.09050   0.09311   0.09962
 Alpha virt. eigenvalues --    0.11188   0.12362   0.12943   0.13580   0.13879

 Mulliken charges:
               1
     1  Mg   0.949527
     2  C    0.045838
     3  C   -0.095124
     4  C   -0.065675
     5  C   -0.086056
     6  N   -0.314059
     7  C    0.001052
     8  C   -0.120613
     9  C   -0.103240
    10  C    0.089408
    11  C    0.035012
    12  C   -0.006359
    13  C   -0.094850
    14  H    0.041432
    15  N   -0.554474
    16  C    0.176037
    17  C   -0.151006
    18  C   -0.082796
    19  C    0.208177
    20  C    0.035103
    21  C    0.082000
    22  O   -0.237306
    23  C   -0.013172
    24  N   -0.304516
    25  C   -0.029820
    26  C   -0.047677
    27  C   -0.103753
    28  C    0.058352
    29  C    0.030148
    30  C   -0.003897
    31  C   -0.057099
    32  N   -0.438181
    33  C    0.134112
    34  C   -0.193242
    35  C   -0.035325
    36  C    0.077348
    37  C    0.080538
    38  C    0.135378
    39  O   -0.202639
    40  C   -0.093416
    41  C    0.221063
    42  O   -0.208253
    43  O   -0.410317
    44  C    0.136736
    45  H    0.001477
    46  H    0.012946
    47  H   -0.022031
    48  H    0.032061
    49  H    0.036188
    50  H    0.038424
    51  H    0.032947
    52  H    0.048368
    53  H    0.023414
    54  H    0.054482
    55  H    0.041791
    56  H    0.065405
    57  H    0.043000
    58  H    0.065273
    59  H    0.060753
    60  H    0.080011
    61  H    0.041596
    62  H    0.065175
    63  H    0.042239
    64  H    0.040190
    65  H    0.046675
    66  H    0.033121
    67  H    0.056296
    68  H    0.030813
    69  H    0.022375
    70  H    0.035965
    71  H    0.038517
    72  H    0.045675
    73  H    0.035940
    74  H    0.058413
    75  H    0.050935
    76  H    0.080251
    77  H    0.051953
    78  H    0.069258
    79  H    0.055710
 Sum of Mulliken charges =  -0.00000

 Dipole moment (field-independent basis, Debye):
    X=             -4.4993    Y=             -3.9866    Z=             -0.5327  Tot=              6.0349
 Quadrupole moment (field-independent basis, Debye-Ang):
   XX=           -265.5851   YY=           -222.9808   ZZ=           -256.0894
   XY=            -13.5353   XZ=             -6.7692   YZ=              0.6992

 Normal termination of Gaussian 16 at Sun Sep 19 01:01:54 2021.
