 Gaussian 16, Revision A.03,
 Gaussian 16:  ES64L-G16RevA.03 25-Dec-2016

 --------------------------------
 #p wB97XD/Def2SVP td=(nstates=5)
 --------------------------------

 --------------------------------
 TDDFT excited states in gaussian
 --------------------------------
 Symbolic Z-matrix:
 Charge =  0 Multiplicity = 1

                         Standard orientation:
 ---------------------------------------------------------------------
 Center     Atomic      Atomic             Coordinates (Angstroms)
 Number     Number       Type             X           Y           Z
 ---------------------------------------------------------------------
      1         12           0      -25.207778   -0.372494   -0.260248
      2          6           0      -23.875268    2.779689   -0.665460
      3          6           0      -25.875467    0.474927    2.986769
      4          6           0      -26.248254   -3.547762    0.229132
      5          6           0      -23.960894   -1.302835   -3.369729
      6          7           0      -24.740820    1.453076    1.008676
      7          6           0      -24.404376    2.617715    0.606284
      8          6           0      -24.433200    3.798634    1.707638
      9          6           0      -24.806258    2.916336    2.963819
     10          6           0      -25.096438    1.473754    2.330554
     11          6           0      -23.626711    2.747124    4.057951
     12          6           0      -25.460995    4.977122    1.419348
     13          6           0      -25.084315    6.415203    1.923977
     14          1           0      -23.915215    6.515120    2.856632
     15          7           0      -26.007986   -1.356892    1.305422
     16          6           0      -26.308164   -0.810908    2.614990
     17          6           0      -26.964916   -1.861633    3.385664
     18          6           0      -26.978979   -3.066851    2.640209
     19          6           0      -26.438894   -2.682683    1.316448
     20          6           0      -27.487213   -1.488977    4.726403
     21          6           0      -27.534646   -4.469284    2.981795
     22          8           0      -27.406244   -5.452351    2.314480
     23          6           0      -28.147905   -4.598992    4.390752
     24          7           0      -25.051907   -2.251385   -1.331163
     25          6           0      -25.531130   -3.395482   -0.957447
     26          6           0      -25.067757   -4.547573   -1.893506
     27          6           0      -24.435530   -3.812508   -3.099655
     28          6           0      -24.485544   -2.346512   -2.608623
     29          6           0      -24.099507   -5.501396   -1.161926
     30          6           0      -25.190702   -4.094879   -4.434628
     31          6           0      -25.003925   -5.512580   -4.998914
     32          7           0      -24.122981    0.528488   -1.766280
     33          6           0      -23.784603    0.039805   -3.015652
     34          6           0      -23.165342    1.127054   -3.726867
     35          6           0      -23.113963    2.260265   -2.861010
     36          6           0      -23.766030    1.788527   -1.689232
     37          6           0      -22.637940    1.044185   -5.039281
     38          6           0      -22.785172    3.640344   -2.696375
     39          8           0      -22.158067    4.401009   -3.492432
     40          6           0      -23.171823    3.979938   -1.204729
     41          6           0      -21.961426    4.397228   -0.529753
     42          8           0      -21.123589    3.625541   -0.063622
     43          8           0      -21.876297    5.760124   -0.659339
     44          6           0      -20.564301    6.300929   -0.245436
     45          1           0      -26.077250    0.707602    4.033995
     46          1           0      -26.628500   -4.547612    0.451672
     47          1           0      -23.652188   -1.626042   -4.366532
     48          1           0      -23.390878    4.112881    1.767331
     49          1           0      -25.656766    3.351994    3.487789
     50          1           0      -22.680398    2.982423    3.570065
     51          1           0      -23.609434    1.720233    4.422721
     52          1           0      -23.702727    3.367887    4.951282
     53          1           0      -26.359837    4.664968    1.950419
     54          1           0      -25.897839    5.004999    0.420512
     55          1           0      -25.904840    6.937212    2.416113
     56          1           0      -24.764543    7.016000    1.072522
     57          1           0      -26.701137   -1.560773    5.478634
     58          1           0      -28.422314   -1.991362    4.974386
     59          1           0      -27.791254   -0.444333    4.664640
     60          1           0      -29.127176   -4.133143    4.505150
     61          1           0      -27.381031   -4.122517    5.000634
     62          1           0      -28.231457   -5.612847    4.781047
     63          1           0      -26.011902   -5.015886   -2.170643
     64          1           0      -23.383100   -4.084121   -3.181284
     65          1           0      -23.558775   -5.071778   -0.318352
     66          1           0      -23.254395   -5.902631   -1.722284
     67          1           0      -24.720623   -6.325753   -0.811686
     68          1           0      -24.809694   -3.421145   -5.200852
     69          1           0      -26.254350   -3.891490   -4.306055
     70          1           0      -24.432796   -6.084487   -4.267575
     71          1           0      -24.289911   -5.471114   -5.821587
     72          1           0      -25.874448   -6.051737   -5.371769
     73          1           0      -23.395435    0.498619   -5.602137
     74          1           0      -21.707538    0.487937   -5.152307
     75          1           0      -22.398019    2.052148   -5.379298
     76          1           0      -23.831414    4.840907   -1.316375
     77          1           0      -19.840422    5.917952   -0.965312
     78          1           0      -20.354568    6.101838    0.804982
     79          1           0      -20.612401    7.384077   -0.358662
     80         12           0       24.212207   -0.774110   -0.046475
     81          6           0       25.760996    2.288853   -0.721130
     82          6           0       22.611449    0.566179    2.485508
     83          6           0       23.334438   -3.922911    1.011057
     84          6           0       26.310463   -2.316990   -2.430245
     85          7           0       24.147136    1.205457    0.673530
     86          6           0       24.785512    2.350833    0.251260
     87          6           0       24.250580    3.589611    0.958005
     88          6           0       23.420566    2.952967    2.118563
     89          6           0       23.295274    1.531462    1.693117
     90          6           0       23.857938    3.158609    3.552765
     91          6           0       23.483846    4.591935    0.037296
     92          6           0       22.966203    5.854234    0.735449
     93          1           0       23.342140    7.178068    0.086118
     94          7           0       23.117494   -1.605371    1.651178
     95          6           0       22.412041   -0.834608    2.504980
     96          6           0       21.622546   -1.676970    3.360016
     97          6           0       21.911328   -3.006616    3.007639
     98          6           0       22.837983   -2.879577    1.850042
     99          6           0       20.724490   -1.155855    4.462062
    100          6           0       21.355637   -4.282201    3.550826
    101          8           0       21.763940   -5.444706    3.286764
    102          6           0       20.153689   -4.255337    4.487080
    103          7           0       24.763864   -2.784049   -0.603589
    104          6           0       24.312533   -3.890078    0.032527
    105          6           0       24.752971   -5.212428   -0.798574
    106          6           0       25.298347   -4.590655   -2.131971
    107          6           0       25.417403   -3.144671   -1.771239
    108          6           0       25.809972   -6.023976    0.047871
    109          6           0       24.222444   -4.686741   -3.274650
    110          6           0       22.813961   -4.174494   -3.016708
    111          7           0       25.740245   -0.155869   -1.416666
    112          6           0       26.460799   -0.920605   -2.292483
    113          6           0       27.321247   -0.064140   -2.967297
    114          6           0       27.157247    1.240439   -2.418946
    115          6           0       26.175919    1.132792   -1.468883
    116          6           0       28.349176   -0.386790   -3.993742
    117          6           0       27.589433    2.656490   -2.417741
    118          8           0       28.460205    3.273991   -3.020068
    119          6           0       26.606864    3.412890   -1.365628
    120          6           0       27.389337    4.306201   -0.470357
    121          8           0       28.552101    4.055436   -0.034426
    122          8           0       26.715413    5.444527   -0.376361
    123          6           0       27.517331    6.572461    0.057651
    124          1           0       21.968319    0.979282    3.265526
    125          1           0       23.036445   -4.930097    1.311997
    126          1           0       26.847324   -2.804684   -3.245390
    127          1           0       25.148887    4.134054    1.249705
    128          1           0       22.387042    3.300190    2.141921
    129          1           0       24.528812    3.995274    3.747648
    130          1           0       24.300300    2.234471    3.925734
    131          1           0       22.954761    3.146345    4.163187
    132          1           0       22.662249    4.076355   -0.460616
    133          1           0       24.142174    4.901927   -0.773594
    134          1           0       23.536672    6.069973    1.638670
    135          1           0       21.897479    5.784195    0.940131
    136          1           0       20.807639   -0.086100    4.653557
    137          1           0       20.960594   -1.499479    5.468880
    138          1           0       19.667369   -1.365845    4.296386
    139          1           0       20.477133   -3.819033    5.431725
    140          1           0       19.893336   -5.251025    4.845423
    141          1           0       19.267948   -3.804298    4.038264
    142          1           0       23.889375   -5.864058   -0.931642
    143          1           0       26.274260   -5.053863   -2.277204
    144          1           0       25.867397   -5.708915    1.089911
    145          1           0       26.833131   -5.942271   -0.319331
    146          1           0       25.577495   -7.084431    0.134057
    147          1           0       24.233384   -5.766425   -3.424218
    148          1           0       24.516993   -4.226529   -4.217324
    149          1           0       22.674926   -3.978945   -1.953227
    150          1           0       21.998653   -4.767798   -3.429242
    151          1           0       22.781001   -3.272311   -3.627561
    152          1           0       27.968324   -0.939951   -4.852633
    153          1           0       29.058632   -1.038329   -3.484395
    154          1           0       28.888840    0.495005   -4.337617
    155          1           0       25.983403    4.038675   -2.003690
    156          1           0       27.279225    7.452203   -0.541537
    157          1           0       28.597484    6.461229   -0.034144
    158          1           0       27.232972    6.758214    1.093895
 ---------------------------------------------------------------------

 SCF Done:  E(RwB97XD) =  -4070.63437611     A.U. after   20 cycles

 Excitation energies and oscillator strengths:

 Excited State   1:      Singlet-A      1.6680 eV  743.31 nm  f=0.3904  <S**2>=0.000
     309 -> 316       -0.17125
     311 -> 313        0.68674
     309 <- 316       -0.11161
 This state for optimization and/or second-order correction.
 Total Energy, E(TD-HF/TD-DFT) =  -4070.57307782
 Copying the excited state density for this state as the 1-particle RhoCI density.

 Excited State   2:      Singlet-A      1.7222 eV  719.91 nm  f=0.3812  <S**2>=0.000
     310 -> 315       -0.20374
     312 -> 314        0.67765
     310 <- 315       -0.11867

 Excited State   3:      Singlet-A      2.0911 eV  592.91 nm  f=0.1647  <S**2>=0.000
     309 -> 313        0.66094
     311 -> 316        0.23075

 Excited State   4:      Singlet-A      2.1614 eV  573.64 nm  f=0.1083  <S**2>=0.000
     310 -> 314        0.64085
     312 -> 315        0.28352

 Excited State   5:      Singlet-A      3.0723 eV  403.56 nm  f=0.0091  <S**2>=0.000
     308 -> 313        0.67870

 The electronic state is 1-A.
 Alpha  occ. eigenvalues --  -46.95713 -46.94761 -19.31845 -19.30026 -19.25218
 Alpha  occ. eigenvalues --  -19.24253 -19.24218 -19.24012 -19.23452 -19.23304
 Alpha  occ. eigenvalues --  -14.47509 -14.46806 -14.46416 -14.46126 -14.44361
 Alpha  occ. eigenvalues --  -14.44355 -14.43515 -14.42582 -10.43062 -10.42397
 Alpha  occ. eigenvalues --  -10.40285 -10.39798 -10.38820 -10.38796 -10.36197
 Alpha  occ. eigenvalues --  -10.35949 -10.35730 -10.35164 -10.35008 -10.35001
 Alpha  occ. eigenvalues --  -10.34873 -10.34827 -10.34781 -10.34740 -10.34482
 Alpha  occ. eigenvalues --  -10.34456 -10.34324 -10.34050 -10.33997 -10.33642
 Alpha  occ. eigenvalues --  -10.33212 -10.33168 -10.33080 -10.33021 -10.32899
 Alpha  occ. eigenvalues --  -10.32588 -10.32379 -10.32351 -10.32347 -10.32346
 Alpha  occ. eigenvalues --  -10.32260 -10.32149 -10.32133 -10.31885 -10.31863
 Alpha  occ. eigenvalues --  -10.31813 -10.31804 -10.31793 -10.31790 -10.31749
 Alpha  occ. eigenvalues --  -10.31657 -10.31601 -10.31167 -10.31166 -10.31162
 Alpha  occ. eigenvalues --  -10.31050 -10.31019 -10.30685 -10.30498 -10.30494
 Alpha  occ. eigenvalues --  -10.30440 -10.30409 -10.30376 -10.30212 -10.30182
 Alpha  occ. eigenvalues --  -10.30047 -10.30038 -10.29539 -10.29526 -10.29393
 Alpha  occ. eigenvalues --  -10.29238 -10.29213 -10.28695 -10.28484 -10.28476
 Alpha  occ. eigenvalues --  -10.28254  -3.21558  -3.20804  -1.95153  -1.94650
 Alpha  occ. eigenvalues --   -1.94538  -1.94388  -1.93935  -1.93778  -1.20277
 Alpha  occ. eigenvalues --   -1.17690  -1.14779  -1.10982  -1.10639  -1.09415
 Alpha  occ. eigenvalues --   -1.08959  -1.08089  -1.07500  -1.07410  -1.06378
 Alpha  occ. eigenvalues --   -1.06319  -1.05486  -1.05316  -1.04457  -1.02958
 Alpha  occ. eigenvalues --   -0.94507  -0.93781  -0.91482  -0.91209  -0.91189
 Alpha  occ. eigenvalues --   -0.90342  -0.90288  -0.89965  -0.89737  -0.89403
 Alpha  occ. eigenvalues --   -0.89052  -0.88908  -0.88810  -0.87582  -0.86707
 Alpha  occ. eigenvalues --   -0.85867  -0.85663  -0.85360  -0.84762  -0.84238
 Alpha  occ. eigenvalues --   -0.83807  -0.83661  -0.83292  -0.83003  -0.82628
 Alpha  occ. eigenvalues --   -0.82256  -0.80872  -0.80548  -0.79491  -0.79312
 Alpha  occ. eigenvalues --   -0.79250  -0.78304  -0.78051  -0.77678  -0.77177
 Alpha  occ. eigenvalues --   -0.76783  -0.74710  -0.74205  -0.73707  -0.73458
 Alpha  occ. eigenvalues --   -0.71875  -0.71326  -0.71081  -0.70747  -0.70350
 Alpha  occ. eigenvalues --   -0.70175  -0.69680  -0.69019  -0.67764  -0.67454
 Alpha  occ. eigenvalues --   -0.67322  -0.67193  -0.66782  -0.66669  -0.66502
 Alpha  occ. eigenvalues --   -0.66092  -0.64693  -0.63553  -0.63069  -0.62060
 Alpha  occ. eigenvalues --   -0.61735  -0.61382  -0.61216  -0.61098  -0.60529
 Alpha  occ. eigenvalues --   -0.60280  -0.59868  -0.59642  -0.59506  -0.59235
 Alpha  occ. eigenvalues --   -0.58215  -0.58003  -0.57950  -0.57715  -0.57608
 Alpha  occ. eigenvalues --   -0.57372  -0.57280  -0.57179  -0.56464  -0.56331
 Alpha  occ. eigenvalues --   -0.55901  -0.55329  -0.55237  -0.55130  -0.55094
 Alpha  occ. eigenvalues --   -0.54927  -0.54894  -0.54698  -0.54461  -0.54028
 Alpha  occ. eigenvalues --   -0.53816  -0.53638  -0.53508  -0.53263  -0.53087
 Alpha  occ. eigenvalues --   -0.52906  -0.52866  -0.52671  -0.52512  -0.52413
 Alpha  occ. eigenvalues --   -0.52373  -0.52029  -0.51522  -0.51336  -0.51078
 Alpha  occ. eigenvalues --   -0.51066  -0.50856  -0.50812  -0.50502  -0.50488
 Alpha  occ. eigenvalues --   -0.50442  -0.50390  -0.50253  -0.50145  -0.50011
 Alpha  occ. eigenvalues --   -0.49772  -0.49718  -0.49210  -0.49127  -0.48986
 Alpha  occ. eigenvalues --   -0.48685  -0.48589  -0.48439  -0.48384  -0.48279
 Alpha  occ. eigenvalues --   -0.48167  -0.47974  -0.47871  -0.47759  -0.47552
 Alpha  occ. eigenvalues --   -0.47355  -0.47090  -0.47075  -0.46783  -0.46613
 Alpha  occ. eigenvalues --   -0.46345  -0.46326  -0.46224  -0.46199  -0.46098
 Alpha  occ. eigenvalues --   -0.45792  -0.45754  -0.45633  -0.45475  -0.45348
 Alpha  occ. eigenvalues --   -0.45182  -0.45142  -0.44901  -0.44820  -0.44688
 Alpha  occ. eigenvalues --   -0.44571  -0.44561  -0.44309  -0.44231  -0.43989
 Alpha  occ. eigenvalues --   -0.43805  -0.43674  -0.43648  -0.43400  -0.43369
 Alpha  occ. eigenvalues --   -0.43139  -0.43105  -0.42762  -0.42541  -0.42378
 Alpha  occ. eigenvalues --   -0.42131  -0.41719  -0.41512  -0.41283  -0.41128
 Alpha  occ. eigenvalues --   -0.40605  -0.40149  -0.39905  -0.39843  -0.39547
 Alpha  occ. eigenvalues --   -0.39365  -0.39067  -0.38861  -0.38573  -0.38562
 Alpha  occ. eigenvalues --   -0.38330  -0.38248  -0.36306  -0.36119  -0.35942
 Alpha  occ. eigenvalues --   -0.35888  -0.35634  -0.35037  -0.34156  -0.33833
 Alpha  occ. eigenvalues --   -0.33361  -0.33176  -0.32958  -0.32457  -0.32287
 Alpha  occ. eigenvalues --   -0.32069  -0.31320  -0.30624  -0.25983  -0.25610
 Alpha  occ. eigenvalues --   -0.23587  -0.23070
 Alpha virt. eigenvalues --   -0.07715  -0.06780   0.00208   0.00650   0.01990
 Alpha virt. eigenvalues --    0.02011   0.04187   0.04539   0.04951   0.05688
 Alpha virt. eigenvalues --    0.06626   0.07152   0.07636   0.08274   0.08378

 Mulliken charges:
               1
     1  Mg   0.972801
     2  C    0.036619
     3  C   -0.076536
     4  C   -0.083416
     5  C   -0.099874
     6  N   -0.274824
     7  C   -0.097116
     8  C   -0.014410
     9  C   -0.137464
    10  C    0.065845
    11  C    0.000613
    12  C    0.023577
    13  C   -0.131668
    14  H    0.035184
    15  N   -0.532076
    16  C    0.160661
    17  C   -0.146803
    18  C   -0.100024
    19  C    0.147649
    20  C    0.050283
    21  C    0.084793
    22  O   -0.192563
    23  C   -0.045391
    24  N   -0.332452
    25  C    0.040094
    26  C   -0.054423
    27  C   -0.067582
    28  C    0.054817
    29  C    0.016559
    30  C   -0.022554
    31  C   -0.039117
    32  N   -0.427747
    33  C    0.163472
    34  C   -0.180245
    35  C    0.016123
    36  C    0.116987
    37  C    0.057406
    38  C    0.086166
    39  O   -0.253887
    40  C   -0.075452
    41  C    0.267814
    42  O   -0.262108
    43  O   -0.366858
    44  C    0.144986
    45  H   -0.003033
    46  H    0.012744
    47  H   -0.006254
    48  H    0.049133
    49  H    0.040275
    50  H    0.048155
    51  H    0.038258
    52  H    0.039839
    53  H    0.016314
    54  H    0.039564
    55  H    0.057665
    56  H    0.064721
    57  H    0.067824
    58  H    0.043858
    59  H    0.042661
    60  H    0.070941
    61  H    0.053295
    62  H    0.049691
    63  H    0.038244
    64  H    0.035319
    65  H    0.043591
    66  H    0.034027
    67  H    0.050554
    68  H    0.028771
    69  H    0.032107
    70  H    0.024446
    71  H    0.026121
    72  H    0.050589
    73  H    0.038292
    74  H    0.050007
    75  H    0.057904
    76  H    0.063380
    77  H    0.068073
    78  H    0.056045
    79  H    0.049017
    80  Mg   0.940675
    81  C    0.025563
    82  C   -0.076080
    83  C   -0.054393
    84  C   -0.071342
    85  N   -0.396438
    86  C   -0.020283
    87  C   -0.029504
    88  C   -0.089337
    89  C    0.104739
    90  C    0.044338
    91  C    0.022484
    92  C   -0.128871
    93  H    0.030697
    94  N   -0.379771
    95  C    0.094852
    96  C   -0.112303
    97  C   -0.048706
    98  C    0.101645
    99  C    0.053437
   100  C    0.041257
   101  O   -0.259351
   102  C   -0.009085
   103  N   -0.351604
   104  C    0.069022
   105  C   -0.145304
   106  C   -0.029805
   107  C    0.039171
   108  C    0.014281
   109  C   -0.014323
   110  C   -0.051440
   111  N   -0.418222
   112  C    0.151620
   113  C   -0.204273
   114  C   -0.041203
   115  C    0.088633
   116  C    0.077106
   117  C    0.161943
   118  O   -0.201891
   119  C   -0.129213
   120  C    0.263389
   121  O   -0.280590
   122  O   -0.330274
   123  C    0.127185
   124  H   -0.027667
   125  H    0.024838
   126  H   -0.001115
   127  H    0.031506
   128  H    0.031554
   129  H    0.056316
   130  H    0.033579
   131  H    0.025684
   132  H    0.024439
   133  H    0.044935
   134  H    0.046499
   135  H    0.062198
   136  H    0.028539
   137  H    0.048640
   138  H    0.055052
   139  H    0.043757
   140  H    0.044658
   141  H    0.064222
   142  H    0.043808
   143  H    0.030736
   144  H    0.043535
   145  H    0.032445
   146  H    0.040111
   147  H    0.029589
   148  H    0.030960
   149  H    0.055304
   150  H    0.043841
   151  H    0.033835
   152  H    0.035257
   153  H    0.042852
   154  H    0.057954
   155  H    0.082068
   156  H    0.053494
   157  H    0.078573
   158  H    0.049576
 Sum of Mulliken charges =  -0.00000

 Dipole moment (field-independent basis, Debye):
    X=             -9.7734    Y=              0.4400    Z=              5.6712  Tot=             11.3082
 Quadrupole moment (field-independent basis, Debye-Ang):
   XX=           -667.4954   YY=           -499.8905   ZZ=           -480.9069
   XY=              4.3569   XZ=            -36.9195   YZ=             55.2655

 Normal termination of Gaussian 16 at Mon Sep 20 09:02:06 2021.
