 Gaussian 16, Revision A.03,
 Gaussian 16:  ES64L-G16RevA.03 25-Dec-2016

 --------------------------------
 #p wB97XD/Def2SVP td=(nstates=5)
 --------------------------------

 --------------------------------
 TDDFT excited states in gaussian
 --------------------------------
 Symbolic Z-matrix:
 Charge =  0 Multiplicity = 1

                         Standard orientation:
 ---------------------------------------------------------------------
 Center     Atomic      Atomic             Coordinates (Angstroms)
 Number     Number       Type             X           Y           Z
 ---------------------------------------------------------------------
      1         12           0      -25.806702   -0.461774   -0.203703
      2          6           0      -24.463980    2.534222   -1.216087
      3          6           0      -26.488795    1.032311    2.952574
      4          6           0      -26.660837   -3.453971    1.117994
      5          6           0      -24.860687   -1.951301   -3.056246
      6          7           0      -25.499778    1.564626    0.753193
      7          6           0      -24.906676    2.616312    0.107788
      8          6           0      -24.943316    3.881160    0.968460
      9          6           0      -25.425475    3.275098    2.366521
     10          6           0      -25.830010    1.872532    2.018208
     11          6           0      -24.367475    3.402464    3.523290
     12          6           0      -25.936189    5.003550    0.416896
     13          6           0      -25.568089    6.467164    0.375338
     14          1           0      -24.951069    7.076364    1.583942
     15          7           0      -26.541431   -1.150158    1.761566
     16          6           0      -26.909476   -0.384322    2.812152
     17          6           0      -27.577825   -1.152628    3.808378
     18          6           0      -27.675708   -2.480350    3.284723
     19          6           0      -26.872906   -2.401269    2.027904
     20          6           0      -27.963139   -0.484788    5.088824
     21          6           0      -28.231397   -3.727339    3.951176
     22          8           0      -28.010056   -4.862814    3.518990
     23          6           0      -29.076881   -3.611241    5.207324
     24          7           0      -25.628376   -2.492104   -0.821721
     25          6           0      -26.177243   -3.532937   -0.141697
     26          6           0      -26.153796   -4.803960   -0.989034
     27          6           0      -25.729350   -4.252017   -2.402888
     28          6           0      -25.389769   -2.808155   -2.089670
     29          6           0      -25.374064   -6.069764   -0.525405
     30          6           0      -26.763422   -4.454220   -3.587885
     31          6           0      -27.772030   -3.374453   -3.918278
     32          7           0      -24.781815    0.093626   -1.766932
     33          6           0      -24.558914   -0.538646   -2.963771
     34          6           0      -23.830872    0.249199   -3.890313
     35          6           0      -23.807762    1.494648   -3.270481
     36          6           0      -24.416752    1.351930   -1.997158
     37          6           0      -23.281396   -0.021778   -5.284799
     38          6           0      -23.386854    2.823175   -3.370415
     39          8           0      -22.754762    3.346837   -4.269296
     40          6           0      -23.765324    3.627889   -2.003693
     41          6           0      -22.524039    4.111971   -1.412317
     42          8           0      -21.605351    3.402599   -0.956480
     43          8           0      -22.405257    5.465912   -1.436516
     44          6           0      -21.093205    6.066981   -1.171960
     45          1           0      -26.725888    1.618540    3.842426
     46          1           0      -27.185257   -4.367345    1.405694
     47          1           0      -24.874627   -2.284106   -4.095494
     48          1           0      -23.952326    4.336549    0.951386
     49          1           0      -26.283292    3.819882    2.761169
     50          1           0      -24.822005    3.985916    4.323234
     51          1           0      -23.488296    3.832290    3.042982
     52          1           0      -24.125237    2.472259    4.038132
     53          1           0      -26.789297    4.873108    1.082929
     54          1           0      -26.388580    4.695504   -0.525142
     55          1           0      -26.416373    7.054567    0.024022
     56          1           0      -24.762761    6.540570   -0.354632
     57          1           0      -28.983092   -0.817143    5.278576
     58          1           0      -28.011544    0.597014    4.962024
     59          1           0      -27.332251   -0.696079    5.952885
     60          1           0      -29.804460   -2.799562    5.179404
     61          1           0      -28.435364   -3.672867    6.087460
     62          1           0      -29.674443   -4.523346    5.208464
     63          1           0      -27.184687   -5.153904   -0.931040
     64          1           0      -24.891463   -4.798192   -2.834547
     65          1           0      -24.494464   -6.221376   -1.150873
     66          1           0      -26.053038   -6.911233   -0.662323
     67          1           0      -25.123205   -5.893844    0.520069
     68          1           0      -27.319566   -5.362029   -3.358018
     69          1           0      -26.225106   -4.623938   -4.520635
     70          1           0      -28.788818   -3.766267   -3.954060
     71          1           0      -27.572593   -2.864391   -4.861639
     72          1           0      -27.677278   -2.650444   -3.108978
     73          1           0      -23.558528   -1.032696   -5.586152
     74          1           0      -22.198561    0.104986   -5.273107
     75          1           0      -23.713809    0.704115   -5.972846
     76          1           0      -24.313808    4.470559   -2.425611
     77          1           0      -20.968603    7.064804   -1.592810
     78          1           0      -20.233477    5.433480   -1.388168
     79          1           0      -21.105039    6.301490   -0.107439
     80         12           0       24.918141   -0.681205    0.069913
     81          6           0       26.423741    2.342051   -0.503368
     82          6           0       23.277040    0.615039    2.682557
     83          6           0       23.710300   -3.774327    0.650322
     84          6           0       27.112984   -2.140610   -2.434498
     85          7           0       25.087361    1.247755    1.148041
     86          6           0       25.661111    2.364492    0.684071
     87          6           0       25.316667    3.620613    1.637597
     88          6           0       24.288660    2.941180    2.617677
     89          6           0       24.214155    1.467352    2.170384
     90          6           0       24.609096    3.169893    4.107630
     91          6           0       24.735565    4.845856    0.876405
     92          6           0       24.034490    5.970264    1.706534
     93          1           0       24.835734    7.304254    1.955066
     94          7           0       23.690343   -1.485707    1.519138
     95          6           0       23.039804   -0.795542    2.432615
     96          6           0       22.183840   -1.704807    3.179440
     97          6           0       22.352118   -3.037550    2.696998
     98          6           0       23.280256   -2.806908    1.568226
     99          6           0       21.364772   -1.338325    4.406009
    100          6           0       21.789728   -4.360171    3.207359
    101          8           0       22.270177   -5.432165    2.850951
    102          6           0       20.642718   -4.331528    4.155875
    103          7           0       25.393295   -2.686691   -0.752645
    104          6           0       24.719832   -3.766252   -0.373417
    105          6           0       25.045108   -4.987610   -1.249193
    106          6           0       25.942738   -4.350018   -2.306475
    107          6           0       26.184419   -2.988090   -1.771242
    108          6           0       25.643053   -6.226509   -0.566076
    109          6           0       25.448812   -4.523606   -3.720425
    110          6           0       26.369875   -5.359176   -4.679329
    111          7           0       26.380909   -0.073605   -1.222633
    112          6           0       27.138075   -0.735912   -2.246369
    113          6           0       27.939447    0.206482   -2.995870
    114          6           0       27.637529    1.417167   -2.312432
    115          6           0       26.725363    1.184881   -1.275334
    116          6           0       28.734228    0.054544   -4.244686
    117          6           0       27.840555    2.833920   -2.481271
    118          8           0       28.340856    3.536111   -3.372607
    119          6           0       27.208590    3.517829   -1.294785
    120          6           0       28.335300    4.028735   -0.369914
    121          8           0       29.376176    3.436485   -0.046120
    122          8           0       27.984286    5.275882    0.054303
    123          6           0       28.943461    6.004683    0.943560
    124          1           0       22.595829    0.940637    3.471489
    125          1           0       23.531127   -4.824895    0.888363
    126          1           0       27.637592   -2.623230   -3.261054
    127          1           0       26.262198    3.832892    2.135285
    128          1           0       23.305836    3.359537    2.400685
    129          1           0       23.665270    3.397878    4.601728
    130          1           0       25.256407    4.033994    4.257748
    131          1           0       25.069805    2.285089    4.547082
    132          1           0       23.902234    4.448011    0.297309
    133          1           0       25.521429    5.331792    0.298255
    134          1           0       23.910577    5.582568    2.718213
    135          1           0       23.111469    6.252084    1.201039
    136          1           0       21.465276   -0.280750    4.649902
    137          1           0       21.704755   -1.923448    5.260148
    138          1           0       20.306506   -1.555876    4.267320
    139          1           0       19.914876   -3.659408    3.700477
    140          1           0       20.736656   -4.008578    5.192242
    141          1           0       20.186663   -5.310896    4.296548
    142          1           0       24.115750   -5.314301   -1.714491
    143          1           0       26.896717   -4.876157   -2.276673
    144          1           0       25.157960   -7.062785   -1.068886
    145          1           0       25.491478   -6.181432    0.512294
    146          1           0       26.730609   -6.283771   -0.610181
    147          1           0       25.471200   -3.511952   -4.124337
    148          1           0       24.459729   -4.976074   -3.785679
    149          1           0       27.270796   -5.672310   -4.151030
    150          1           0       26.668026   -4.699347   -5.494667
    151          1           0       25.885625   -6.196817   -5.181487
    152          1           0       28.552172   -0.923889   -4.688455
    153          1           0       29.772992    0.023967   -3.917872
    154          1           0       28.408859    0.877905   -4.882180
    155          1           0       26.638271    4.336946   -1.733240
    156          1           0       29.348779    5.418059    1.768355
    157          1           0       28.562419    6.944338    1.342140
    158          1           0       29.808508    6.220477    0.316713
 ---------------------------------------------------------------------

 SCF Done:  E(RwB97XD) =  -4070.63329627     A.U. after   19 cycles

 Excitation energies and oscillator strengths:

 Excited State   1:      Singlet-A      1.6605 eV  746.68 nm  f=0.4017  <S**2>=0.000
     310 -> 316       -0.18406
     311 -> 313        0.68421
     310 <- 316       -0.11633
 This state for optimization and/or second-order correction.
 Total Energy, E(TD-HF/TD-DFT) =  -4070.57227534
 Copying the excited state density for this state as the 1-particle RhoCI density.

 Excited State   2:      Singlet-A      1.6636 eV  745.28 nm  f=0.4145  <S**2>=0.000
     309 -> 315        0.18168
     312 -> 314        0.68153
     309 <- 315        0.11251

 Excited State   3:      Singlet-A      2.1344 eV  580.89 nm  f=0.1699  <S**2>=0.000
     310 -> 313        0.66027
     311 -> 316        0.24163

 Excited State   4:      Singlet-A      2.2222 eV  557.93 nm  f=0.1096  <S**2>=0.000
     309 -> 314        0.63694
     312 -> 315       -0.28923

 Excited State   5:      Singlet-A      3.4420 eV  360.21 nm  f=0.0031  <S**2>=0.000
     305 -> 317       -0.16827
     306 -> 313        0.65333

 The electronic state is 1-A.
 Alpha  occ. eigenvalues --  -46.95517 -46.95469 -19.30818 -19.30302 -19.24560
 Alpha  occ. eigenvalues --  -19.24376 -19.23951 -19.23672 -19.23501 -19.22723
 Alpha  occ. eigenvalues --  -14.46731 -14.46647 -14.46251 -14.46142 -14.44669
 Alpha  occ. eigenvalues --  -14.44185 -14.44112 -14.43861 -10.43393 -10.42801
 Alpha  occ. eigenvalues --  -10.40061 -10.39380 -10.38557 -10.37335 -10.35907
 Alpha  occ. eigenvalues --  -10.35706 -10.35384 -10.35104 -10.34984 -10.34920
 Alpha  occ. eigenvalues --  -10.34469 -10.34426 -10.34417 -10.34332 -10.34171
 Alpha  occ. eigenvalues --  -10.34149 -10.34141 -10.34009 -10.33962 -10.33910
 Alpha  occ. eigenvalues --  -10.33325 -10.33015 -10.32773 -10.32717 -10.32552
 Alpha  occ. eigenvalues --  -10.32548 -10.32548 -10.32416 -10.32340 -10.32168
 Alpha  occ. eigenvalues --  -10.32140 -10.32137 -10.32113 -10.32109 -10.32069
 Alpha  occ. eigenvalues --  -10.31804 -10.31788 -10.31647 -10.31622 -10.31568
 Alpha  occ. eigenvalues --  -10.31559 -10.31378 -10.31033 -10.30954 -10.30883
 Alpha  occ. eigenvalues --  -10.30833 -10.30706 -10.30697 -10.30670 -10.30591
 Alpha  occ. eigenvalues --  -10.30390 -10.30311 -10.30226 -10.30173 -10.30170
 Alpha  occ. eigenvalues --  -10.30101 -10.30082 -10.30022 -10.29950 -10.29588
 Alpha  occ. eigenvalues --  -10.29523 -10.29492 -10.29263 -10.28860 -10.28662
 Alpha  occ. eigenvalues --  -10.28414  -3.21521  -3.21484  -1.95093  -1.95065
 Alpha  occ. eigenvalues --   -1.94607  -1.94598  -1.94535  -1.94467  -1.18050
 Alpha  occ. eigenvalues --   -1.17707  -1.12598  -1.12146  -1.11715  -1.10170
 Alpha  occ. eigenvalues --   -1.08705  -1.08046  -1.07716  -1.07422  -1.06718
 Alpha  occ. eigenvalues --   -1.06392  -1.06184  -1.05889  -1.05529  -1.04967
 Alpha  occ. eigenvalues --   -0.94610  -0.93222  -0.91760  -0.90972  -0.90569
 Alpha  occ. eigenvalues --   -0.90129  -0.90084  -0.90081  -0.89747  -0.89482
 Alpha  occ. eigenvalues --   -0.89391  -0.89066  -0.88932  -0.88392  -0.86239
 Alpha  occ. eigenvalues --   -0.86090  -0.85679  -0.85204  -0.84588  -0.84268
 Alpha  occ. eigenvalues --   -0.84043  -0.83795  -0.83133  -0.83016  -0.82301
 Alpha  occ. eigenvalues --   -0.81985  -0.80477  -0.80378  -0.79456  -0.79426
 Alpha  occ. eigenvalues --   -0.79055  -0.78650  -0.78184  -0.77996  -0.77452
 Alpha  occ. eigenvalues --   -0.77268  -0.75556  -0.74613  -0.73645  -0.73546
 Alpha  occ. eigenvalues --   -0.71569  -0.71345  -0.71234  -0.71045  -0.70115
 Alpha  occ. eigenvalues --   -0.69680  -0.69559  -0.69146  -0.67755  -0.67579
 Alpha  occ. eigenvalues --   -0.67129  -0.66875  -0.66748  -0.66396  -0.66227
 Alpha  occ. eigenvalues --   -0.65886  -0.64602  -0.64257  -0.62713  -0.62224
 Alpha  occ. eigenvalues --   -0.61827  -0.61603  -0.61084  -0.60851  -0.60599
 Alpha  occ. eigenvalues --   -0.60294  -0.59963  -0.59901  -0.59350  -0.59299
 Alpha  occ. eigenvalues --   -0.58292  -0.58259  -0.57624  -0.57353  -0.57063
 Alpha  occ. eigenvalues --   -0.57020  -0.56798  -0.56447  -0.56044  -0.56012
 Alpha  occ. eigenvalues --   -0.55665  -0.55328  -0.55248  -0.55113  -0.54765
 Alpha  occ. eigenvalues --   -0.54720  -0.54504  -0.54464  -0.54190  -0.54097
 Alpha  occ. eigenvalues --   -0.54038  -0.53605  -0.53420  -0.53107  -0.53029
 Alpha  occ. eigenvalues --   -0.52706  -0.52629  -0.52546  -0.52433  -0.52213
 Alpha  occ. eigenvalues --   -0.51843  -0.51820  -0.51715  -0.51582  -0.51483
 Alpha  occ. eigenvalues --   -0.51256  -0.51184  -0.51029  -0.50976  -0.50864
 Alpha  occ. eigenvalues --   -0.50751  -0.50692  -0.50524  -0.50462  -0.50188
 Alpha  occ. eigenvalues --   -0.50107  -0.49797  -0.49739  -0.49601  -0.49522
 Alpha  occ. eigenvalues --   -0.49219  -0.49116  -0.48819  -0.48715  -0.48445
 Alpha  occ. eigenvalues --   -0.48304  -0.48115  -0.48055  -0.47906  -0.47861
 Alpha  occ. eigenvalues --   -0.47823  -0.47254  -0.46975  -0.46892  -0.46656
 Alpha  occ. eigenvalues --   -0.46476  -0.46417  -0.46309  -0.46044  -0.45915
 Alpha  occ. eigenvalues --   -0.45879  -0.45851  -0.45755  -0.45574  -0.45517
 Alpha  occ. eigenvalues --   -0.45311  -0.45188  -0.44947  -0.44822  -0.44697
 Alpha  occ. eigenvalues --   -0.44207  -0.44157  -0.43956  -0.43927  -0.43876
 Alpha  occ. eigenvalues --   -0.43812  -0.43739  -0.43476  -0.43433  -0.43250
 Alpha  occ. eigenvalues --   -0.43083  -0.43053  -0.42704  -0.42514  -0.42330
 Alpha  occ. eigenvalues --   -0.41943  -0.41775  -0.41474  -0.41169  -0.40970
 Alpha  occ. eigenvalues --   -0.40430  -0.40169  -0.40163  -0.39765  -0.39295
 Alpha  occ. eigenvalues --   -0.39161  -0.38680  -0.38666  -0.38190  -0.38063
 Alpha  occ. eigenvalues --   -0.37867  -0.37699  -0.36567  -0.36252  -0.35975
 Alpha  occ. eigenvalues --   -0.35552  -0.35440  -0.35101  -0.33906  -0.33557
 Alpha  occ. eigenvalues --   -0.33313  -0.33267  -0.33051  -0.32772  -0.32470
 Alpha  occ. eigenvalues --   -0.32275  -0.31936  -0.31798  -0.25820  -0.25766
 Alpha  occ. eigenvalues --   -0.23294  -0.22901
 Alpha virt. eigenvalues --   -0.07480  -0.06885   0.00171   0.00707   0.02293
 Alpha virt. eigenvalues --    0.02643   0.04538   0.04631   0.04921   0.05090
 Alpha virt. eigenvalues --    0.06852   0.07496   0.07845   0.08535   0.08967

 Mulliken charges:
               1
     1  Mg   0.974528
     2  C   -0.004282
     3  C   -0.064885
     4  C   -0.065512
     5  C   -0.074951
     6  N   -0.330530
     7  C    0.000527
     8  C   -0.084482
     9  C   -0.117754
    10  C    0.051448
    11  C    0.025237
    12  C    0.010926
    13  C   -0.102356
    14  H    0.032735
    15  N   -0.356503
    16  C    0.129005
    17  C   -0.163743
    18  C   -0.075521
    19  C    0.100087
    20  C    0.082144
    21  C    0.043258
    22  O   -0.246910
    23  C   -0.017027
    24  N   -0.351569
    25  C    0.050115
    26  C   -0.080552
    27  C   -0.041512
    28  C    0.061674
    29  C    0.035307
    30  C   -0.057999
    31  C   -0.043057
    32  N   -0.478598
    33  C    0.099406
    34  C   -0.189128
    35  C    0.040950
    36  C    0.138149
    37  C    0.096939
    38  C    0.037793
    39  O   -0.207910
    40  C   -0.055934
    41  C    0.260085
    42  O   -0.281309
    43  O   -0.359706
    44  C    0.146697
    45  H   -0.010885
    46  H    0.017289
    47  H   -0.000391
    48  H    0.049020
    49  H    0.042637
    50  H    0.031659
    51  H    0.050417
    52  H    0.040568
    53  H    0.012389
    54  H    0.032284
    55  H    0.056015
    56  H    0.054327
    57  H    0.030650
    58  H    0.036855
    59  H    0.063563
    60  H    0.053813
    61  H    0.071492
    62  H    0.050428
    63  H    0.036353
    64  H    0.036883
    65  H    0.036515
    66  H    0.040361
    67  H    0.051416
    68  H    0.029694
    69  H    0.029350
    70  H    0.038466
    71  H    0.037292
    72  H    0.035900
    73  H    0.026413
    74  H    0.066810
    75  H    0.060972
    76  H    0.060688
    77  H    0.053406
    78  H    0.075451
    79  H    0.036618
    80  Mg   0.970528
    81  C   -0.074878
    82  C   -0.078887
    83  C   -0.049485
    84  C   -0.066325
    85  N   -0.355679
    86  C   -0.026059
    87  C   -0.008759
    88  C   -0.153551
    89  C    0.120079
    90  C    0.024354
    91  C   -0.009701
    92  C   -0.131304
    93  H    0.015003
    94  N   -0.438362
    95  C    0.116826
    96  C   -0.187054
    97  C   -0.059128
    98  C    0.130957
    99  C    0.069722
   100  C    0.087767
   101  O   -0.227314
   102  C   -0.033436
   103  N   -0.274230
   104  C   -0.007272
   105  C   -0.114740
   106  C   -0.055436
   107  C    0.009698
   108  C    0.036084
   109  C    0.000435
   110  C   -0.068104
   111  N   -0.457020
   112  C    0.123358
   113  C   -0.170456
   114  C   -0.076986
   115  C    0.206195
   116  C    0.109159
   117  C    0.102777
   118  O   -0.239434
   119  C   -0.055751
   120  C    0.293562
   121  O   -0.266036
   122  O   -0.365175
   123  C    0.138554
   124  H   -0.019848
   125  H    0.029553
   126  H    0.004079
   127  H    0.040427
   128  H    0.037117
   129  H    0.034014
   130  H    0.041460
   131  H    0.049644
   132  H    0.031958
   133  H    0.073432
   134  H    0.048320
   135  H    0.065661
   136  H    0.031745
   137  H    0.051435
   138  H    0.041213
   139  H    0.048836
   140  H    0.063188
   141  H    0.052486
   142  H    0.038883
   143  H    0.021323
   144  H    0.046531
   145  H    0.044282
   146  H    0.029762
   147  H    0.030514
   148  H    0.036937
   149  H    0.033075
   150  H    0.033428
   151  H    0.041975
   152  H    0.019323
   153  H    0.065400
   154  H    0.081076
   155  H    0.069658
   156  H    0.058567
   157  H    0.063578
   158  H    0.056471
 Sum of Mulliken charges =  -0.00000

 Dipole moment (field-independent basis, Debye):
    X=             -8.6070    Y=              0.5150    Z=              4.0993  Tot=              9.5473
 Quadrupole moment (field-independent basis, Debye-Ang):
   XX=           -541.8887   YY=           -500.6548   ZZ=           -485.7425
   XY=            -60.9698   XZ=             15.5200   YZ=             60.8056

 Normal termination of Gaussian 16 at Mon Sep 20 20:03:18 2021.
