 Gaussian 16, Revision A.03,
 Gaussian 16:  ES64L-G16RevA.03 25-Dec-2016

 --------------------------------
 #p wB97XD/Def2SVP td=(nstates=5)
 --------------------------------

 --------------------------------
 TDDFT excited states in gaussian
 --------------------------------
 Symbolic Z-matrix:
 Charge =  0 Multiplicity = 1

                         Standard orientation:
 ---------------------------------------------------------------------
 Center     Atomic      Atomic             Coordinates (Angstroms)
 Number     Number       Type             X           Y           Z
 ---------------------------------------------------------------------
      1         12           0       -8.823888    0.186790   -0.018724
      2          6           0       -6.092748   -1.933073    0.333986
      3          6           0       -6.775998    2.608850   -1.154189
      4          6           0      -11.312945    2.441001    0.384092
      5          6           0      -10.731174   -2.075155    1.930536
      6          7           0       -6.732795    0.200541   -0.414389
      7          6           0       -5.770107   -0.784237   -0.369997
      8          6           0       -4.395553   -0.222383   -0.826520
      9          6           0       -4.647889    1.313778   -0.727993
     10          6           0       -6.159287    1.398011   -0.882681
     11          6           0       -4.194869    1.968504    0.624304
     12          6           0       -4.031016   -0.896776   -2.161775
     13          6           0       -2.611383   -1.305802   -2.269907
     14          1           0       -2.338203   -2.323735   -3.282479
     15          7           0       -9.049587    2.164491   -0.555344
     16          6           0       -8.083773    2.967493   -1.071947
     17          6           0       -8.712569    4.147712   -1.609697
     18          6           0      -10.078014    4.094479   -1.150501
     19          6           0      -10.173204    2.888328   -0.322968
     20          6           0       -7.978846    5.210058   -2.346913
     21          6           0      -11.248194    5.123934   -1.274716
     22          8           0      -12.375616    4.912532   -0.823368
     23          6           0      -11.098054    6.380589   -2.085792
     24          7           0      -10.614489    0.265913    1.323272
     25          6           0      -11.558101    1.316534    1.159624
     26          6           0      -12.860268    1.057178    1.842192
     27          6           0      -12.675022   -0.471402    2.112499
     28          6           0      -11.246411   -0.812215    1.696746
     29          6           0      -13.104187    1.934220    3.116769
     30          6           0      -13.691159   -1.373898    1.321607
     31          6           0      -13.775658   -1.112675   -0.203844
     32          7           0       -8.555919   -1.676013    0.858454
     33          6           0       -9.435856   -2.499687    1.577472
     34          6           0       -8.714608   -3.672720    1.903078
     35          6           0       -7.429066   -3.489293    1.409143
     36          6           0       -7.391135   -2.275142    0.806711
     37          6           0       -9.277441   -4.874265    2.593122
     38          6           0       -6.165710   -4.061954    1.376158
     39          8           0       -5.775107   -5.143906    1.851189
     40          6           0       -5.160183   -3.112911    0.657092
     41          6           0       -4.668052   -3.961006   -0.557037
     42          8           0       -5.358661   -4.281890   -1.540595
     43          8           0       -3.335235   -4.291976   -0.337860
     44          6           0       -2.700285   -5.312714   -1.230881
     45          1           0       -6.003259    3.334644   -1.416310
     46          1           0      -12.260870    2.973785    0.491148
     47          1           0      -11.325536   -2.891783    2.345772
     48          1           0       -3.607189   -0.559422   -0.154317
     49          1           0       -4.197600    1.804708   -1.590229
     50          1           0       -3.680597    1.312817    1.327523
     51          1           0       -5.060749    2.281270    1.206453
     52          1           0       -3.485760    2.766414    0.404793
     53          1           0       -4.152035   -0.124386   -2.920005
     54          1           0       -4.709481   -1.738683   -2.302176
     55          1           0       -2.362838   -1.756359   -1.308867
     56          1           0       -2.001181   -0.409431   -2.378929
     57          1           0       -7.025280    4.845111   -2.728049
     58          1           0       -7.985793    6.113495   -1.736187
     59          1           0       -8.535538    5.470558   -3.247166
     60          1           0      -11.826473    7.067876   -1.654909
     61          1           0      -11.376415    6.207065   -3.125521
     62          1           0      -10.105345    6.819576   -1.981466
     63          1           0      -13.730718    1.184135    1.197006
     64          1           0      -12.787673   -0.652660    3.181890
     65          1           0      -12.144973    2.305534    3.478521
     66          1           0      -13.580842    1.444324    3.965976
     67          1           0      -13.730003    2.816076    2.976719
     68          1           0      -14.646087   -1.264027    1.835836
     69          1           0      -13.361168   -2.385779    1.556536
     70          1           0      -13.528548   -1.994558   -0.795214
     71          1           0      -13.089304   -0.292924   -0.417862
     72          1           0      -14.770756   -0.804156   -0.522908
     73          1           0       -8.647803   -5.032710    3.468606
     74          1           0       -9.260988   -5.701443    1.883486
     75          1           0      -10.286924   -4.758238    2.987757
     76          1           0       -4.320093   -2.937655    1.328604
     77          1           0       -3.279930   -6.226615   -1.102885
     78          1           0       -1.653011   -5.558653   -1.055561
     79          1           0       -2.881632   -4.792406   -2.171398
     80         12           0        8.739480    0.407677    0.316849
     81          6           0        7.047310   -1.354394   -2.158039
     82          6           0        8.094401    3.312160   -1.464032
     83          6           0        9.823740    2.255928    2.833506
     84          6           0        8.880495   -2.470972    2.233101
     85          7           0        7.563183    0.944941   -1.490904
     86          6           0        7.077548    0.044950   -2.417225
     87          6           0        6.605077    0.705291   -3.678583
     88          6           0        7.302542    2.132760   -3.572902
     89          6           0        7.648567    2.180322   -2.090585
     90          6           0        8.431866    2.606120   -4.606174
     91          6           0        5.021239    0.712509   -3.896336
     92          6           0        4.116173    0.790472   -2.630943
     93          1           0        2.922979    1.704118   -2.776342
     94          7           0        8.830122    2.508973    0.701381
     95          6           0        8.523905    3.549515   -0.184466
     96          6           0        8.688165    4.835660    0.435606
     97          6           0        9.183128    4.558245    1.732191
     98          6           0        9.283787    3.072584    1.844597
     99          6           0        8.598320    6.112435   -0.401776
    100          6           0        9.544584    5.687142    2.724195
    101          8           0        9.329152    6.876673    2.470485
    102          6           0       10.212174    5.264549    3.964708
    103          7           0        9.146381   -0.087626    2.282183
    104          6           0        9.848309    0.836499    3.037676
    105          6           0       10.412693    0.240902    4.346280
    106          6           0        9.858327   -1.233623    4.183070
    107          6           0        9.219804   -1.272135    2.866325
    108          6           0       11.886331    0.288330    4.600415
    109          6           0        8.775490   -1.625876    5.310913
    110          6           0        9.062216   -2.987590    5.887979
    111          7           0        8.281051   -1.607857    0.052792
    112          6           0        8.396958   -2.668725    0.931782
    113          6           0        7.882088   -3.905127    0.300091
    114          6           0        7.335180   -3.426198   -0.941006
    115          6           0        7.606483   -2.054852   -1.012453
    116          6           0        7.659573   -5.248400    0.866618
    117          6           0        6.557825   -3.745741   -2.157303
    118          8           0        6.028306   -4.784735   -2.477441
    119          6           0        6.380693   -2.441214   -2.999128
    120          6           0        6.902743   -2.635064   -4.352419
    121          8           0        6.324529   -2.588715   -5.438483
    122          8           0        8.201224   -3.191980   -4.214547
    123          6           0        8.934036   -3.413813   -5.479491
    124          1           0        8.097732    4.151733   -2.163023
    125          1           0       10.376921    2.735162    3.643779
    126          1           0        9.042235   -3.331288    2.884993
    127          1           0        6.976101    0.164469   -4.549118
    128          1           0        6.439924    2.781705   -3.726181
    129          1           0        8.625644    1.931029   -5.439534
    130          1           0        9.420157    2.711685   -4.158884
    131          1           0        8.080167    3.488766   -5.141059
    132          1           0        4.717425   -0.123994   -4.524811
    133          1           0        4.810094    1.574952   -4.528516
    134          1           0        4.699329    1.084872   -1.757850
    135          1           0        3.707629   -0.195034   -2.409106
    136          1           0        8.234690    6.978031    0.152857
    137          1           0        7.846482    5.977152   -1.178856
    138          1           0        9.612748    6.308600   -0.749788
    139          1           0       11.218502    4.927472    3.717934
    140          1           0        9.620857    4.491179    4.455960
    141          1           0       10.262001    6.165025    4.576818
    142          1           0        9.822295    0.646570    5.168174
    143          1           0       10.774000   -1.815012    4.075406
    144          1           0       12.059874   -0.364611    5.455940
    145          1           0       12.115276    1.292655    4.956860
    146          1           0       12.438627    0.019750    3.699115
    147          1           0        7.798249   -1.559231    4.832904
    148          1           0        8.628599   -0.916577    6.126401
    149          1           0        8.273177   -3.662287    5.556730
    150          1           0        8.888644   -3.027590    6.963841
    151          1           0        9.990408   -3.377424    5.470638
    152          1           0        7.958437   -5.381036    1.907484
    153          1           0        8.290067   -5.922580    0.287952
    154          1           0        6.570181   -5.278493    0.870509
    155          1           0        5.304715   -2.268803   -3.008994
    156          1           0        9.922773   -3.022784   -5.236777
    157          1           0        8.604762   -2.950197   -6.409447
    158          1           0        9.099361   -4.490967   -5.508650
 ---------------------------------------------------------------------

 SCF Done:  E(RwB97XD) =  -4070.61657483     A.U. after   19 cycles

 Excitation energies and oscillator strengths:

 Excited State   1:      Singlet-A      1.6032 eV  773.35 nm  f=0.3006  <S**2>=0.000
     310 -> 316       -0.16690
     312 -> 313        0.68297
     310 <- 316       -0.11273
 This state for optimization and/or second-order correction.
 Total Energy, E(TD-HF/TD-DFT) =  -4070.55765780
 Copying the excited state density for this state as the 1-particle RhoCI density.

 Excited State   2:      Singlet-A      1.6616 eV  746.16 nm  f=0.4262  <S**2>=0.000
     309 -> 315       -0.18690
     311 -> 314        0.67777
     309 <- 315       -0.11423

 Excited State   3:      Singlet-A      2.1478 eV  577.26 nm  f=0.0903  <S**2>=0.000
     309 -> 314        0.62440
     311 -> 315        0.30472

 Excited State   4:      Singlet-A      2.1613 eV  573.65 nm  f=0.1251  <S**2>=0.000
     310 -> 313        0.63750
     312 -> 316        0.27322

 Excited State   5:      Singlet-A      3.4515 eV  359.22 nm  f=0.0000  <S**2>=0.000
     312 -> 314        0.70684

 The electronic state is 1-A.
 Alpha  occ. eigenvalues --  -46.95560 -46.94512 -19.29703 -19.29683 -19.25602
 Alpha  occ. eigenvalues --  -19.24730 -19.24159 -19.23990 -19.23605 -19.22579
 Alpha  occ. eigenvalues --  -14.46958 -14.46886 -14.46394 -14.45919 -14.44365
 Alpha  occ. eigenvalues --  -14.43879 -14.43763 -14.42950 -10.43711 -10.43692
 Alpha  occ. eigenvalues --  -10.39259 -10.39175 -10.39104 -10.37490 -10.35782
 Alpha  occ. eigenvalues --  -10.35375 -10.35330 -10.35114 -10.34838 -10.34832
 Alpha  occ. eigenvalues --  -10.34779 -10.34385 -10.34237 -10.34187 -10.34187
 Alpha  occ. eigenvalues --  -10.34079 -10.34070 -10.33503 -10.33218 -10.33057
 Alpha  occ. eigenvalues --  -10.33001 -10.32903 -10.32749 -10.32681 -10.32604
 Alpha  occ. eigenvalues --  -10.32496 -10.32421 -10.32418 -10.32201 -10.32191
 Alpha  occ. eigenvalues --  -10.32187 -10.32145 -10.32044 -10.31795 -10.31756
 Alpha  occ. eigenvalues --  -10.31630 -10.31529 -10.31498 -10.31461 -10.31448
 Alpha  occ. eigenvalues --  -10.31308 -10.31154 -10.31133 -10.31098 -10.31047
 Alpha  occ. eigenvalues --  -10.30927 -10.30895 -10.30840 -10.30771 -10.30633
 Alpha  occ. eigenvalues --  -10.30365 -10.30207 -10.30188 -10.30147 -10.30056
 Alpha  occ. eigenvalues --  -10.30020 -10.29986 -10.29813 -10.29661 -10.29610
 Alpha  occ. eigenvalues --  -10.29572 -10.29551 -10.29496 -10.29415 -10.29276
 Alpha  occ. eigenvalues --  -10.27657  -3.21528  -3.20541  -1.95099  -1.94667
 Alpha  occ. eigenvalues --   -1.94490  -1.94110  -1.93671  -1.93513  -1.17080
 Alpha  occ. eigenvalues --   -1.16324  -1.12724  -1.11692  -1.11528  -1.10011
 Alpha  occ. eigenvalues --   -1.09219  -1.08604  -1.07158  -1.06701  -1.05835
 Alpha  occ. eigenvalues --   -1.05769  -1.05368  -1.05326  -1.04500  -1.04062
 Alpha  occ. eigenvalues --   -0.94545  -0.94371  -0.91583  -0.91268  -0.90857
 Alpha  occ. eigenvalues --   -0.90688  -0.90316  -0.90004  -0.89685  -0.89553
 Alpha  occ. eigenvalues --   -0.88922  -0.88915  -0.88321  -0.88261  -0.86828
 Alpha  occ. eigenvalues --   -0.86451  -0.86296  -0.85274  -0.84756  -0.84406
 Alpha  occ. eigenvalues --   -0.83888  -0.83382  -0.82902  -0.82725  -0.82225
 Alpha  occ. eigenvalues --   -0.82157  -0.80316  -0.80001  -0.79562  -0.78894
 Alpha  occ. eigenvalues --   -0.78826  -0.78646  -0.78245  -0.77809  -0.77749
 Alpha  occ. eigenvalues --   -0.77232  -0.75081  -0.74734  -0.74233  -0.73836
 Alpha  occ. eigenvalues --   -0.71557  -0.71501  -0.71306  -0.70571  -0.70198
 Alpha  occ. eigenvalues --   -0.69324  -0.68939  -0.68430  -0.68299  -0.67155
 Alpha  occ. eigenvalues --   -0.67013  -0.66625  -0.66391  -0.66277  -0.66107
 Alpha  occ. eigenvalues --   -0.65874  -0.64634  -0.63360  -0.62347  -0.61723
 Alpha  occ. eigenvalues --   -0.61584  -0.61505  -0.61039  -0.60960  -0.60385
 Alpha  occ. eigenvalues --   -0.60269  -0.59626  -0.59399  -0.59302  -0.58735
 Alpha  occ. eigenvalues --   -0.58394  -0.57855  -0.57798  -0.57451  -0.57380
 Alpha  occ. eigenvalues --   -0.57150  -0.57119  -0.56733  -0.56682  -0.56475
 Alpha  occ. eigenvalues --   -0.55899  -0.55204  -0.54955  -0.54788  -0.54747
 Alpha  occ. eigenvalues --   -0.54712  -0.54648  -0.54566  -0.54205  -0.54194
 Alpha  occ. eigenvalues --   -0.54003  -0.53690  -0.53639  -0.53451  -0.53237
 Alpha  occ. eigenvalues --   -0.53142  -0.52844  -0.52500  -0.52329  -0.52273
 Alpha  occ. eigenvalues --   -0.52125  -0.51660  -0.51588  -0.51362  -0.51326
 Alpha  occ. eigenvalues --   -0.51185  -0.50944  -0.50879  -0.50633  -0.50603
 Alpha  occ. eigenvalues --   -0.50513  -0.50267  -0.50265  -0.50199  -0.49855
 Alpha  occ. eigenvalues --   -0.49796  -0.49756  -0.49476  -0.49312  -0.49154
 Alpha  occ. eigenvalues --   -0.48972  -0.48834  -0.48568  -0.48333  -0.48318
 Alpha  occ. eigenvalues --   -0.48259  -0.48013  -0.47776  -0.47710  -0.47492
 Alpha  occ. eigenvalues --   -0.47428  -0.47233  -0.47156  -0.46989  -0.46983
 Alpha  occ. eigenvalues --   -0.46731  -0.46684  -0.46372  -0.46236  -0.45963
 Alpha  occ. eigenvalues --   -0.45922  -0.45492  -0.45451  -0.45270  -0.45231
 Alpha  occ. eigenvalues --   -0.45188  -0.45154  -0.44915  -0.44853  -0.44825
 Alpha  occ. eigenvalues --   -0.44557  -0.44443  -0.44173  -0.44120  -0.44060
 Alpha  occ. eigenvalues --   -0.43783  -0.43677  -0.43673  -0.43616  -0.43344
 Alpha  occ. eigenvalues --   -0.43247  -0.42889  -0.42654  -0.42514  -0.42351
 Alpha  occ. eigenvalues --   -0.41980  -0.41953  -0.41647  -0.41153  -0.40826
 Alpha  occ. eigenvalues --   -0.40553  -0.40077  -0.40004  -0.39770  -0.39506
 Alpha  occ. eigenvalues --   -0.39132  -0.39000  -0.38709  -0.38698  -0.38343
 Alpha  occ. eigenvalues --   -0.37813  -0.37760  -0.37256  -0.36881  -0.35946
 Alpha  occ. eigenvalues --   -0.35924  -0.35676  -0.35300  -0.33608  -0.33372
 Alpha  occ. eigenvalues --   -0.33239  -0.32910  -0.32600  -0.32275  -0.31936
 Alpha  occ. eigenvalues --   -0.31868  -0.31751  -0.31385  -0.26125  -0.25993
 Alpha  occ. eigenvalues --   -0.23126  -0.22841
 Alpha virt. eigenvalues --   -0.07195  -0.07114  -0.00416   0.00591   0.02611
 Alpha virt. eigenvalues --    0.02765   0.04457   0.04633   0.04760   0.05560
 Alpha virt. eigenvalues --    0.06097   0.07349   0.07370   0.07602   0.08454

 Mulliken charges:
               1
     1  Mg   0.955993
     2  C   -0.066705
     3  C   -0.119111
     4  C   -0.021094
     5  C   -0.103135
     6  N   -0.406785
     7  C    0.020274
     8  C   -0.101423
     9  C   -0.087783
    10  C    0.034040
    11  C    0.034902
    12  C    0.039807
    13  C   -0.124328
    14  H    0.055002
    15  N   -0.463945
    16  C    0.229545
    17  C   -0.175551
    18  C   -0.078539
    19  C    0.188112
    20  C    0.069150
    21  C    0.055777
    22  O   -0.248837
    23  C   -0.006197
    24  N   -0.316697
    25  C   -0.057384
    26  C   -0.058032
    27  C   -0.099649
    28  C    0.111992
    29  C    0.018318
    30  C   -0.021875
    31  C   -0.053803
    32  N   -0.435007
    33  C    0.117014
    34  C   -0.198080
    35  C    0.054111
    36  C    0.194137
    37  C    0.093023
    38  C    0.016597
    39  O   -0.242671
    40  C   -0.028719
    41  C    0.287835
    42  O   -0.268841
    43  O   -0.389826
    44  C    0.142031
    45  H   -0.000916
    46  H    0.018329
    47  H    0.002259
    48  H    0.020392
    49  H    0.019614
    50  H    0.035652
    51  H    0.052622
    52  H    0.043643
    53  H    0.021397
    54  H    0.065414
    55  H    0.040100
    56  H    0.040353
    57  H    0.041216
    58  H    0.067523
    59  H    0.042932
    60  H    0.054428
    61  H    0.074935
    62  H    0.027182
    63  H    0.045588
    64  H    0.030671
    65  H    0.039542
    66  H    0.032473
    67  H    0.042443
    68  H    0.030953
    69  H    0.022851
    70  H    0.046467
    71  H    0.045886
    72  H    0.042046
    73  H    0.057914
    74  H    0.068061
    75  H    0.019329
    76  H    0.066964
    77  H    0.067756
    78  H    0.071628
    79  H    0.058701
    80  Mg   0.956361
    81  C   -0.040931
    82  C   -0.110044
    83  C   -0.099555
    84  C   -0.098160
    85  N   -0.351204
    86  C    0.005268
    87  C   -0.079297
    88  C   -0.049847
    89  C    0.025255
    90  C    0.014933
    91  C   -0.014156
    92  C   -0.130150
    93  H    0.037781
    94  N   -0.438154
    95  C    0.180443
    96  C   -0.147566
    97  C   -0.106792
    98  C    0.207007
    99  C    0.079894
   100  C    0.051101
   101  O   -0.236330
   102  C   -0.010230
   103  N   -0.368965
   104  C    0.022528
   105  C   -0.081713
   106  C   -0.120668
   107  C    0.043028
   108  C    0.052765
   109  C   -0.004660
   110  C   -0.029316
   111  N   -0.431035
   112  C    0.160484
   113  C   -0.200096
   114  C   -0.051426
   115  C    0.127762
   116  C    0.085758
   117  C    0.113295
   118  O   -0.186557
   119  C   -0.040995
   120  C    0.283708
   121  O   -0.240042
   122  O   -0.406621
   123  C    0.140376
   124  H   -0.005463
   125  H   -0.020306
   126  H   -0.017212
   127  H    0.039367
   128  H    0.032868
   129  H    0.033535
   130  H    0.048081
   131  H    0.043508
   132  H    0.053486
   133  H    0.034302
   134  H    0.068250
   135  H    0.053402
   136  H    0.060176
   137  H    0.036386
   138  H    0.065068
   139  H    0.070973
   140  H    0.065173
   141  H    0.051462
   142  H    0.031831
   143  H    0.032613
   144  H    0.043115
   145  H    0.037408
   146  H    0.047671
   147  H    0.039899
   148  H    0.030881
   149  H    0.027626
   150  H    0.039074
   151  H    0.043376
   152  H    0.019612
   153  H    0.067021
   154  H    0.074738
   155  H    0.068693
   156  H    0.037552
   157  H    0.075567
   158  H    0.057031
 Sum of Mulliken charges =  -0.00000

 Dipole moment (field-independent basis, Debye):
    X=              6.1241    Y=              3.4500    Z=              1.7167  Tot=              7.2356
 Quadrupole moment (field-independent basis, Debye-Ang):
   XX=           -420.8406   YY=           -556.9003   ZZ=           -484.5865
   XY=            -21.9423   XZ=             11.0297   YZ=            -33.8891

 Normal termination of Gaussian 16 at Sun Sep 19 10:02:29 2021.
