 Gaussian 16, Revision A.03,
 Gaussian 16:  ES64L-G16RevA.03 25-Dec-2016

 --------------------------------
 #p wB97XD/Def2SVP td=(nstates=5)
 --------------------------------

 --------------------------------
 TDDFT excited states in gaussian
 --------------------------------
 Symbolic Z-matrix:
 Charge =  0 Multiplicity = 1

                         Standard orientation:
 ---------------------------------------------------------------------
 Center     Atomic      Atomic             Coordinates (Angstroms)
 Number     Number       Type             X           Y           Z
 ---------------------------------------------------------------------
      1         12           0       -0.674257    0.184628    0.305585
      2          6           0        2.819065    0.202028    0.126542
      3          6           0       -0.690133   -3.092698    0.136388
      4          6           0       -4.058884    0.273111   -0.277741
      5          6           0       -0.671079    3.699373   -0.029189
      6          7           0        0.897853   -1.217901    0.253492
      7          6           0        2.265731   -1.054735    0.250327
      8          6           0        2.993814   -2.381196    0.425276
      9          6           0        1.836725   -3.405320    0.194090
     10          6           0        0.618269   -2.556171    0.302201
     11          6           0        1.876835   -4.321875   -1.009586
     12          6           0        3.780039   -2.527372    1.767187
     13          6           0        4.537876   -3.848346    1.938886
     14          1           0        6.009096   -3.730709    2.309252
     15          7           0       -2.229959   -1.292996   -0.104089
     16          6           0       -2.018809   -2.619863    0.020641
     17          6           0       -3.274459   -3.310104   -0.083613
     18          6           0       -4.260971   -2.336272   -0.315929
     19          6           0       -3.518273   -1.048229   -0.251095
     20          6           0       -3.417650   -4.815991   -0.017523
     21          6           0       -5.738082   -2.490303   -0.475234
     22          8           0       -6.547673   -1.589563   -0.823212
     23          6           0       -6.405689   -3.824473   -0.164970
     24          7           0       -2.113756    1.735227   -0.116360
     25          6           0       -3.418927    1.495714   -0.382459
     26          6           0       -4.231636    2.899717   -0.422488
     27          6           0       -3.163884    3.908301    0.129463
     28          6           0       -1.911825    3.093332    0.071636
     29          6           0       -4.715151    3.172578   -1.900355
     30          6           0       -3.428316    4.227873    1.646192
     31          6           0       -3.597282    3.081147    2.630685
     32          7           0        0.793861    1.737975    0.143442
     33          6           0        0.599027    3.086487    0.022487
     34          6           0        1.855728    3.674913   -0.038624
     35          6           0        2.826657    2.632454   -0.029136
     36          6           0        2.125273    1.460796    0.082619
     37          6           0        2.210648    5.109300   -0.214392
     38          6           0        4.257945    2.260152   -0.098348
     39          8           0        5.290463    2.901440   -0.256479
     40          6           0        4.300815    0.647333    0.105373
     41          6           0        5.210205    0.019506   -0.889927
     42          8           0        5.358466    0.414160   -2.084584
     43          8           0        5.929225   -0.884902   -0.238890
     44          6           0        7.157252   -1.260959   -0.912838
     45          1           0       -0.755184   -4.181191    0.196777
     46          1           0       -5.140143    0.319936   -0.427651
     47          1           0       -0.707229    4.789522   -0.000996
     48          1           0        3.773986   -2.354939   -0.335712
     49          1           0        1.724134   -4.112109    1.016924
     50          1           0        2.846551   -4.467040   -1.485652
     51          1           0        1.151191   -3.974514   -1.745522
     52          1           0        1.367033   -5.241923   -0.723045
     53          1           0        3.102155   -2.373221    2.607111
     54          1           0        4.500286   -1.713659    1.845591
     55          1           0        4.758415   -4.307060    0.975180
     56          1           0        4.000261   -4.531228    2.597379
     57          1           0       -2.476607   -5.365827   -0.008631
     58          1           0       -3.851440   -5.290459   -0.897416
     59          1           0       -3.992652   -5.160077    0.842725
     60          1           0       -6.097832   -4.536728   -0.929984
     61          1           0       -7.474341   -3.805138   -0.377564
     62          1           0       -6.261766   -4.148749    0.866311
     63          1           0       -5.128271    2.819814    0.192156
     64          1           0       -3.150419    4.723867   -0.593538
     65          1           0       -4.643628    2.299904   -2.549765
     66          1           0       -4.149415    3.946643   -2.419134
     67          1           0       -5.769675    3.434949   -1.972325
     68          1           0       -4.349635    4.800350    1.538268
     69          1           0       -2.691734    4.884391    2.108382
     70          1           0       -3.715703    2.139960    2.093372
     71          1           0       -4.360626    3.208382    3.397521
     72          1           0       -2.673604    3.133793    3.207062
     73          1           0        1.756863    5.777446    0.517996
     74          1           0        1.804284    5.381009   -1.188203
     75          1           0        3.287300    5.274102   -0.241015
     76          1           0        4.747485    0.526747    1.091973
     77          1           0        7.975875   -1.315189   -0.194101
     78          1           0        7.513399   -0.578855   -1.684475
     79          1           0        6.977713   -2.254213   -1.325607
 ---------------------------------------------------------------------

 SCF Done:  E(RwB97XD) =  -2035.31618322     A.U. after   20 cycles

 Excitation energies and oscillator strengths:

 Excited State   1:      Singlet-A      1.6681 eV  743.28 nm  f=0.3910  <S**2>=0.000
     155 ->158         0.17136
     156 ->157         0.68672
     155 <-158         0.11164
 This state for optimization and/or second-order correction.
 Total Energy, E(TD-HF/TD-DFT) =  -2035.25488276
 Copying the excited state density for this state as the 1-particle RhoCI density.

 Excited State   2:      Singlet-A      2.0912 eV  592.89 nm  f=0.1653  <S**2>=0.000
     155 ->157         0.66094
     156 ->158        -0.23077

 Excited State   3:      Singlet-A      3.0724 eV  403.54 nm  f=0.0090  <S**2>=0.000
     154 ->157         0.67869

 Excited State   4:      Singlet-A      3.3603 eV  368.97 nm  f=0.0003  <S**2>=0.000
     151 ->157         0.43210
     151 ->158         0.10750
     151 ->159         0.32339
     152 ->157         0.31376
     152 ->159         0.22285

 Excited State   5:      Singlet-A      3.5549 eV  348.77 nm  f=0.0042  <S**2>=0.000
     150 ->157        -0.18939
     151 ->157         0.23068
     152 ->157        -0.24632
     153 ->157         0.48128
     153 ->159        -0.14012
     153 ->160         0.16740
     156 ->158        -0.17440

 The electronic state is 1-A.
 Alpha  occ. eigenvalues --  -46.95730 -19.31861 -19.24234 -19.24028 -19.23469
 Alpha  occ. eigenvalues --  -14.47525 -14.46430 -14.44376 -14.42602 -10.43078
 Alpha  occ. eigenvalues --  -10.39815 -10.38837 -10.36214 -10.35745 -10.35179
 Alpha  occ. eigenvalues --  -10.35017 -10.34889 -10.34756 -10.34066 -10.34014
 Alpha  occ. eigenvalues --  -10.33229 -10.32604 -10.32394 -10.32367 -10.32364
 Alpha  occ. eigenvalues --  -10.32362 -10.32150 -10.31901 -10.31831 -10.31821
 Alpha  occ. eigenvalues --  -10.31809 -10.31808 -10.31036 -10.30510 -10.30457
 Alpha  occ. eigenvalues --  -10.30426 -10.30392 -10.30228 -10.30055 -10.29541
 Alpha  occ. eigenvalues --  -10.29255 -10.28711 -10.28271  -3.21575  -1.95170
 Alpha  occ. eigenvalues --   -1.94667  -1.94555  -1.20293  -1.10999  -1.10655
 Alpha  occ. eigenvalues --   -1.08105  -1.07516  -1.06394  -1.05332  -1.04474
 Alpha  occ. eigenvalues --   -0.93797  -0.91498  -0.91205  -0.90358  -0.89981
 Alpha  occ. eigenvalues --   -0.89068  -0.87599  -0.86724  -0.85679  -0.84778
 Alpha  occ. eigenvalues --   -0.83824  -0.83309  -0.82644  -0.80889  -0.79507
 Alpha  occ. eigenvalues --   -0.79267  -0.78067  -0.77193  -0.74727  -0.73723
 Alpha  occ. eigenvalues --   -0.71892  -0.71097  -0.70367  -0.69696  -0.67470
 Alpha  occ. eigenvalues --   -0.67209  -0.66685  -0.66518  -0.64709  -0.63085
 Alpha  occ. eigenvalues --   -0.61751  -0.61232  -0.60545  -0.59522  -0.59252
 Alpha  occ. eigenvalues --   -0.58232  -0.57966  -0.57731  -0.57388  -0.57296
 Alpha  occ. eigenvalues --   -0.56348  -0.55254  -0.55110  -0.54910  -0.54477
 Alpha  occ. eigenvalues --   -0.53655  -0.53524  -0.52922  -0.52529  -0.52429
 Alpha  occ. eigenvalues --   -0.52045  -0.51539  -0.51083  -0.50828  -0.50504
 Alpha  occ. eigenvalues --   -0.50458  -0.50269  -0.50027  -0.49226  -0.49143
 Alpha  occ. eigenvalues --   -0.48702  -0.48456  -0.48296  -0.47888  -0.47775
 Alpha  occ. eigenvalues --   -0.47371  -0.47092  -0.46629  -0.46361  -0.46215
 Alpha  occ. eigenvalues --   -0.45808  -0.45649  -0.45364  -0.45158  -0.44837
 Alpha  occ. eigenvalues --   -0.44577  -0.44325  -0.44005  -0.43822  -0.43386
 Alpha  occ. eigenvalues --   -0.43155  -0.42779  -0.42394  -0.41528  -0.41144
 Alpha  occ. eigenvalues --   -0.40622  -0.39859  -0.39381  -0.38878  -0.38578
 Alpha  occ. eigenvalues --   -0.38346  -0.36135  -0.35959  -0.35054  -0.34173
 Alpha  occ. eigenvalues --   -0.33192  -0.32974  -0.32086  -0.30641  -0.25999
 Alpha  occ. eigenvalues --   -0.23603
 Alpha virt. eigenvalues --   -0.07732   0.00634   0.01973   0.04523   0.04932
 Alpha virt. eigenvalues --    0.06610   0.07135   0.08361   0.09784   0.10443
 Alpha virt. eigenvalues --    0.11177   0.11647   0.12857   0.13186   0.13516

 Mulliken charges:
               1
     1  Mg   0.940739
     2  C    0.025583
     3  C   -0.076096
     4  C   -0.054426
     5  C   -0.071294
     6  N   -0.396408
     7  C   -0.020367
     8  C   -0.029347
     9  C   -0.089435
    10  C    0.104762
    11  C    0.044373
    12  C    0.022448
    13  C   -0.128877
    14  H    0.030705
    15  N   -0.379695
    16  C    0.094821
    17  C   -0.112281
    18  C   -0.048689
    19  C    0.101720
    20  C    0.053375
    21  C    0.041134
    22  O   -0.259328
    23  C   -0.008875
    24  N   -0.351586
    25  C    0.069107
    26  C   -0.145184
    27  C   -0.029873
    28  C    0.038976
    29  C    0.014263
    30  C   -0.014322
    31  C   -0.051416
    32  N   -0.418307
    33  C    0.151682
    34  C   -0.204246
    35  C   -0.041229
    36  C    0.088638
    37  C    0.077098
    38  C    0.161932
    39  O   -0.201861
    40  C   -0.129385
    41  C    0.263386
    42  O   -0.280587
    43  O   -0.330237
    44  C    0.127198
    45  H   -0.027664
    46  H    0.024848
    47  H   -0.001105
    48  H    0.031510
    49  H    0.031541
    50  H    0.056319
    51  H    0.033581
    52  H    0.025676
    53  H    0.024425
    54  H    0.044935
    55  H    0.046512
    56  H    0.062182
    57  H    0.028542
    58  H    0.048642
    59  H    0.055040
    60  H    0.043732
    61  H    0.044639
    62  H    0.064145
    63  H    0.043768
    64  H    0.030756
    65  H    0.043543
    66  H    0.032455
    67  H    0.040113
    68  H    0.029597
    69  H    0.030955
    70  H    0.055279
    71  H    0.043818
    72  H    0.033825
    73  H    0.035252
    74  H    0.042869
    75  H    0.057966
    76  H    0.082080
    77  H    0.053491
    78  H    0.078567
    79  H    0.049575
 Sum of Mulliken charges =  -0.00000

 Dipole moment (field-independent basis, Debye):
    X=             -2.2292    Y=             -5.3432    Z=              3.5363  Tot=              6.7841
 Quadrupole moment (field-independent basis, Debye-Ang):
   XX=           -273.5642   YY=           -223.5081   ZZ=           -260.4781
   XY=            -25.0398   XZ=              1.6905   YZ=              3.9376

 Normal termination of Gaussian 16 at Sun Sep 19 02:39:32 2021.
