 Gaussian 16, Revision A.03,
 Gaussian 16:  ES64L-G16RevA.03 25-Dec-2016

 --------------------------------
 #p wB97XD/Def2SVP td=(nstates=5)
 --------------------------------

 --------------------------------
 TDDFT excited states in gaussian
 --------------------------------
 Symbolic Z-matrix:
 Charge =  0 Multiplicity = 1

                         Standard orientation:
 ---------------------------------------------------------------------
 Center     Atomic      Atomic             Coordinates (Angstroms)
 Number     Number       Type             X           Y           Z
 ---------------------------------------------------------------------
      1         12           0       30.284039    0.298656   -0.656288
      2          6           0       27.195687   -1.334791    0.372732
      3          6           0       28.499517    3.226400   -0.838973
      4          6           0       33.127759    1.975283   -0.122815
      5          6           0       31.856908   -2.711750   -0.556913
      6          7           0       28.102378    0.887025   -0.072178
      7          6           0       26.998669    0.018493    0.252488
      8          6           0       25.694421    0.820066    0.217937
      9          6           0       26.069785    2.139413   -0.519131
     10          6           0       27.661606    2.138886   -0.519590
     11          6           0       25.510770    2.218970   -2.018085
     12          6           0       24.934196    0.951291    1.505262
     13          6           0       25.692936    0.642557    2.817545
     14          1           0       25.147222    0.774387    4.251167
     15          7           0       30.777941    2.357093   -0.639367
     16          6           0       29.883862    3.402396   -0.711084
     17          6           0       30.664405    4.677795   -0.764225
     18          6           0       31.962491    4.290290   -0.441764
     19          6           0       32.035311    2.835607   -0.326994
     20          6           0       29.984013    5.982200   -0.985042
     21          6           0       33.146843    5.276409   -0.223698
     22          8           0       32.905696    6.470152   -0.253867
     23          6           0       34.528618    4.869338    0.167991
     24          7           0       32.181497   -0.355982   -0.224870
     25          6           0       33.211266    0.583734   -0.194766
     26          6           0       34.576909   -0.101362   -0.144283
     27          6           0       34.238453   -1.572682   -0.581239
     28          6           0       32.710621   -1.549732   -0.496759
     29          6           0       35.736560    0.497559   -0.981059
     30          6           0       34.902139   -2.710103    0.259511
     31          6           0       36.088919   -3.505114   -0.454514
     32          7           0       29.684264   -1.671294   -0.273730
     33          6           0       30.455616   -2.821372   -0.356825
     34          6           0       29.596314   -3.973831   -0.240187
     35          6           0       28.368130   -3.401640    0.118045
     36          6           0       28.492064   -1.991754    0.053696
     37          6           0       30.099267   -5.425738   -0.317799
     38          6           0       26.999142   -3.672499    0.433823
     39          8           0       26.483921   -4.807700    0.481555
     40          6           0       26.105452   -2.354874    0.482168
     41          6           0       25.390366   -2.444984    1.770834
     42          8           0       25.886351   -2.691973    2.875145
     43          8           0       24.108186   -2.079617    1.525897
     44          6           0       23.137095   -2.274588    2.647794
     45          1           0       27.934145    4.159250   -0.879652
     46          1           0       34.050629    2.537326    0.036542
     47          1           0       32.368821   -3.670924   -0.655127
     48          1           0       25.153573    0.171120   -0.470913
     49          1           0       25.838006    3.032291    0.061783
     50          1           0       24.775409    3.020811   -1.964929
     51          1           0       25.105834    1.248473   -2.305901
     52          1           0       26.358659    2.530933   -2.628930
     53          1           0       24.028614    0.357839    1.380742
     54          1           0       24.638662    1.999976    1.458965
     55          1           0       26.589635    1.261057    2.767690
     56          1           0       26.000771   -0.403250    2.822642
     57          1           0       30.063781    6.522534   -0.042214
     58          1           0       28.949322    5.782411   -1.261972
     59          1           0       30.447431    6.492550   -1.830096
     60          1           0       34.671955    4.405475    1.143151
     61          1           0       35.201927    5.719068    0.276864
     62          1           0       34.809591    4.270239   -0.698058
     63          1           0       34.749016    0.025872    0.925124
     64          1           0       34.519512   -1.614134   -1.633798
     65          1           0       36.427147    1.105230   -0.395435
     66          1           0       35.331391    1.177724   -1.729525
     67          1           0       36.228699   -0.329441   -1.494055
     68          1           0       34.202551   -3.459629    0.630548
     69          1           0       35.247279   -2.200849    1.159398
     70          1           0       36.826703   -3.569330    0.344874
     71          1           0       36.511622   -3.012755   -1.330433
     72          1           0       35.662008   -4.435740   -0.826689
     73          1           0       29.375220   -6.150234   -0.691231
     74          1           0       30.289303   -5.629397    0.735451
     75          1           0       30.900938   -5.507561   -1.051454
     76          1           0       25.438533   -2.341915   -0.381149
     77          1           0       22.149390   -1.938839    2.329968
     78          1           0       23.419453   -1.685862    3.520798
     79          1           0       23.192736   -3.350425    2.807805
     80         12           0      -30.215643    0.247624    0.339529
     81          6           0      -27.902437   -2.112972   -0.884756
     82          6           0      -30.621440    1.289231   -2.930793
     83          6           0      -32.386113    2.663138    1.392595
     84          6           0      -29.471380   -0.632707    3.492363
     85          7           0      -29.372189   -0.378734   -1.706227
     86          6           0      -28.543866   -1.456403   -1.995557
     87          6           0      -28.502706   -1.705941   -3.489813
     88          6           0      -29.088264   -0.381283   -4.101001
     89          6           0      -29.733837    0.186519   -2.856986
     90          6           0      -28.046093    0.559700   -4.823279
     91          6           0      -29.358824   -2.903715   -3.927483
     92          6           0      -28.781240   -3.741401   -5.073366
     93          1           0      -28.723890   -3.114272   -6.494102
     94          7           0      -31.411634    1.700310   -0.624292
     95          6           0      -31.360555    1.946528   -1.953676
     96          6           0      -32.180645    3.079023   -2.237942
     97          6           0      -32.863338    3.468271   -1.034011
     98          6           0      -32.195133    2.650298   -0.037267
     99          6           0      -32.293052    3.658575   -3.620718
    100          6           0      -33.895913    4.560347   -0.754049
    101          8           0      -34.498095    4.631223    0.339982
    102          6           0      -34.202490    5.674573   -1.748321
    103          7           0      -30.896615    0.846964    2.153388
    104          6           0      -31.748216    1.922094    2.388915
    105          6           0      -31.894012    2.113052    3.863738
    106          6           0      -31.033265    1.035876    4.616777
    107          6           0      -30.448390    0.323645    3.386396
    108          6           0      -31.704213    3.580605    4.352382
    109          6           0      -31.821771    0.071349    5.528972
    110          6           0      -31.830406    0.495142    7.010450
    111          7           0      -28.956396   -1.023404    1.181987
    112          6           0      -28.760470   -1.371635    2.517676
    113          6           0      -27.779026   -2.506809    2.684807
    114          6           0      -27.431269   -2.757243    1.347465
    115          6           0      -28.187410   -1.898359    0.486646
    116          6           0      -27.337475   -3.145300    3.989090
    117          6           0      -26.582232   -3.621262    0.541252
    118          8           0      -25.771325   -4.489226    0.867006
    119          6           0      -26.973866   -3.290089   -0.961197
    120          6           0      -25.636693   -3.012680   -1.675899
    121          8           0      -24.691913   -2.397924   -1.225734
    122          8           0      -25.616139   -3.728748   -2.871246
    123          6           0      -24.379267   -3.539204   -3.629312
    124          1           0      -30.785628    1.539475   -3.980790
    125          1           0      -33.064840    3.392935    1.838384
    126          1           0      -29.197396   -0.771592    4.539934
    127          1           0      -27.502516   -1.843972   -3.899772
    128          1           0      -29.841742   -0.531128   -4.874299
    129          1           0      -27.039095    0.154415   -4.926374
    130          1           0      -27.856593    1.526231   -4.356977
    131          1           0      -28.347530    0.748803   -5.853572
    132          1           0      -30.357852   -2.588358   -4.227589
    133          1           0      -29.466599   -3.618905   -3.111769
    134          1           0      -29.264136   -4.715602   -5.148549
    135          1           0      -27.757439   -4.048546   -4.860849
    136          1           0      -31.245314    3.749614   -3.907566
    137          1           0      -32.723040    4.655139   -3.720022
    138          1           0      -32.789501    3.015839   -4.347359
    139          1           0      -33.284014    6.144747   -2.100047
    140          1           0      -34.820866    6.344230   -1.150776
    141          1           0      -34.717631    5.286370   -2.626964
    142          1           0      -32.958761    2.027404    4.082825
    143          1           0      -30.186235    1.430067    5.179731
    144          1           0      -31.428843    4.184144    3.487231
    145          1           0      -30.883160    3.608505    5.068259
    146          1           0      -32.683748    3.854565    4.745671
    147          1           0      -31.451761   -0.934529    5.331706
    148          1           0      -32.885930    0.098018    5.293528
    149          1           0      -31.658178    1.568847    7.087791
    150          1           0      -31.041810    0.083916    7.640891
    151          1           0      -32.826152    0.298593    7.408996
    152          1           0      -28.174993   -3.739249    4.355419
    153          1           0      -27.080527   -2.452306    4.789993
    154          1           0      -26.492023   -3.783104    3.731666
    155          1           0      -27.502493   -4.078830   -1.496162
    156          1           0      -24.396139   -2.705282   -4.331666
    157          1           0      -24.239331   -4.493729   -4.136467
    158          1           0      -23.453504   -3.330455   -3.093159
 ---------------------------------------------------------------------

 SCF Done:  E(RwB97XD) =  -4070.60576534     A.U. after   19 cycles

 Excitation energies and oscillator strengths:

 Excited State   1:      Singlet-A      1.6105 eV  769.87 nm  f=0.3563  <S**2>=0.000
     309 -> 315       -0.16149
     312 -> 314        0.68856
     309 <- 315       -0.10999
 This state for optimization and/or second-order correction.
 Total Energy, E(TD-HF/TD-DFT) =  -4070.54658232
 Copying the excited state density for this state as the 1-particle RhoCI density.

 Excited State   2:      Singlet-A      1.6477 eV  752.47 nm  f=0.3755  <S**2>=0.000
     310 -> 316        0.19178
     311 -> 313        0.68144
     310 <- 316        0.11858

 Excited State   3:      Singlet-A      2.1798 eV  568.78 nm  f=0.0973  <S**2>=0.000
     310 -> 313        0.63418
     311 -> 316       -0.30018

 Excited State   4:      Singlet-A      2.2277 eV  556.57 nm  f=0.0763  <S**2>=0.000
     309 -> 314        0.61811
     312 -> 315        0.32525

 Excited State   5:      Singlet-A      3.4330 eV  361.16 nm  f=0.1155  <S**2>=0.000
     304 -> 313        0.16757
     306 -> 313        0.56578
     310 -> 313        0.11129
     311 -> 316        0.34320

 The electronic state is 1-A.
 Alpha  occ. eigenvalues --  -46.95645 -46.93986 -19.30976 -19.30552 -19.25330
 Alpha  occ. eigenvalues --  -19.24338 -19.24263 -19.24136 -19.24128 -19.22085
 Alpha  occ. eigenvalues --  -14.47283 -14.47061 -14.46188 -14.45871 -14.44485
 Alpha  occ. eigenvalues --  -14.44358 -14.44097 -14.43257 -10.43531 -10.42951
 Alpha  occ. eigenvalues --  -10.39856 -10.39518 -10.39090 -10.37516 -10.36053
 Alpha  occ. eigenvalues --  -10.35852 -10.35739 -10.35448 -10.35218 -10.35001
 Alpha  occ. eigenvalues --  -10.34957 -10.34942 -10.34898 -10.34827 -10.34790
 Alpha  occ. eigenvalues --  -10.34518 -10.34310 -10.34277 -10.33650 -10.33188
 Alpha  occ. eigenvalues --  -10.33076 -10.33056 -10.32943 -10.32915 -10.32881
 Alpha  occ. eigenvalues --  -10.32831 -10.32797 -10.32693 -10.32582 -10.32550
 Alpha  occ. eigenvalues --  -10.32442 -10.32431 -10.32389 -10.31956 -10.31892
 Alpha  occ. eigenvalues --  -10.31871 -10.31846 -10.31683 -10.31674 -10.31661
 Alpha  occ. eigenvalues --  -10.31542 -10.31385 -10.31298 -10.31269 -10.31220
 Alpha  occ. eigenvalues --  -10.31217 -10.31159 -10.31103 -10.31017 -10.30816
 Alpha  occ. eigenvalues --  -10.30786 -10.30697 -10.30474 -10.30312 -10.30252
 Alpha  occ. eigenvalues --  -10.30242 -10.30228 -10.30212 -10.30029 -10.29969
 Alpha  occ. eigenvalues --  -10.29879 -10.29859 -10.29713 -10.29521 -10.29366
 Alpha  occ. eigenvalues --  -10.27936  -3.21586  -3.20180  -1.95144  -1.94730
 Alpha  occ. eigenvalues --   -1.94534  -1.93774  -1.93285  -1.93198  -1.18454
 Alpha  occ. eigenvalues --   -1.18217  -1.12946  -1.11441  -1.11161  -1.10371
 Alpha  occ. eigenvalues --   -1.09626  -1.08844  -1.06820  -1.06720  -1.06023
 Alpha  occ. eigenvalues --   -1.05740  -1.05070  -1.04917  -1.03442  -1.02344
 Alpha  occ. eigenvalues --   -0.94535  -0.93870  -0.91290  -0.91253  -0.90912
 Alpha  occ. eigenvalues --   -0.90876  -0.90491  -0.90207  -0.89394  -0.88985
 Alpha  occ. eigenvalues --   -0.88793  -0.88637  -0.88079  -0.87990  -0.86320
 Alpha  occ. eigenvalues --   -0.86284  -0.85589  -0.85431  -0.84658  -0.84250
 Alpha  occ. eigenvalues --   -0.84211  -0.83664  -0.82912  -0.82905  -0.82105
 Alpha  occ. eigenvalues --   -0.82040  -0.80428  -0.80017  -0.79650  -0.79379
 Alpha  occ. eigenvalues --   -0.79193  -0.78411  -0.78083  -0.77912  -0.77182
 Alpha  occ. eigenvalues --   -0.76998  -0.74993  -0.74669  -0.73678  -0.73628
 Alpha  occ. eigenvalues --   -0.71553  -0.71346  -0.70957  -0.70731  -0.70156
 Alpha  occ. eigenvalues --   -0.69556  -0.69322  -0.68912  -0.68133  -0.67717
 Alpha  occ. eigenvalues --   -0.67440  -0.67367  -0.66674  -0.66483  -0.66158
 Alpha  occ. eigenvalues --   -0.65506  -0.64549  -0.64101  -0.62358  -0.62146
 Alpha  occ. eigenvalues --   -0.61658  -0.61109  -0.61020  -0.60935  -0.60471
 Alpha  occ. eigenvalues --   -0.59925  -0.59698  -0.59517  -0.59492  -0.59181
 Alpha  occ. eigenvalues --   -0.58754  -0.58150  -0.58031  -0.57455  -0.57091
 Alpha  occ. eigenvalues --   -0.57079  -0.56533  -0.56520  -0.56171  -0.55750
 Alpha  occ. eigenvalues --   -0.55620  -0.55433  -0.55423  -0.55082  -0.54817
 Alpha  occ. eigenvalues --   -0.54738  -0.54511  -0.54506  -0.54237  -0.54113
 Alpha  occ. eigenvalues --   -0.53774  -0.53728  -0.53693  -0.53369  -0.53161
 Alpha  occ. eigenvalues --   -0.53137  -0.52978  -0.52570  -0.52389  -0.52192
 Alpha  occ. eigenvalues --   -0.51994  -0.51888  -0.51721  -0.51538  -0.51525
 Alpha  occ. eigenvalues --   -0.51264  -0.51008  -0.50844  -0.50831  -0.50707
 Alpha  occ. eigenvalues --   -0.50398  -0.50252  -0.50187  -0.50062  -0.50002
 Alpha  occ. eigenvalues --   -0.49690  -0.49577  -0.49554  -0.49322  -0.49111
 Alpha  occ. eigenvalues --   -0.48850  -0.48775  -0.48771  -0.48589  -0.48469
 Alpha  occ. eigenvalues --   -0.48449  -0.48209  -0.48139  -0.47829  -0.47654
 Alpha  occ. eigenvalues --   -0.47448  -0.47406  -0.47107  -0.46882  -0.46833
 Alpha  occ. eigenvalues --   -0.46583  -0.46457  -0.46322  -0.46291  -0.46257
 Alpha  occ. eigenvalues --   -0.45925  -0.45835  -0.45515  -0.45393  -0.45367
 Alpha  occ. eigenvalues --   -0.45302  -0.45136  -0.44956  -0.44861  -0.44644
 Alpha  occ. eigenvalues --   -0.44631  -0.44480  -0.44297  -0.44226  -0.44053
 Alpha  occ. eigenvalues --   -0.43901  -0.43853  -0.43728  -0.43671  -0.43520
 Alpha  occ. eigenvalues --   -0.43109  -0.42971  -0.42951  -0.42772  -0.42395
 Alpha  occ. eigenvalues --   -0.42158  -0.41815  -0.41596  -0.41238  -0.40987
 Alpha  occ. eigenvalues --   -0.40598  -0.40438  -0.40235  -0.39857  -0.39348
 Alpha  occ. eigenvalues --   -0.39291  -0.39229  -0.38846  -0.38715  -0.38555
 Alpha  occ. eigenvalues --   -0.38277  -0.37788  -0.37147  -0.36952  -0.36305
 Alpha  occ. eigenvalues --   -0.35806  -0.35093  -0.34914  -0.33738  -0.33502
 Alpha  occ. eigenvalues --   -0.33160  -0.33153  -0.32936  -0.32679  -0.32315
 Alpha  occ. eigenvalues --   -0.32203  -0.31536  -0.31140  -0.26390  -0.25870
 Alpha  occ. eigenvalues --   -0.22885  -0.22571
 Alpha virt. eigenvalues --   -0.06914  -0.06913   0.00137   0.00140   0.02047
 Alpha virt. eigenvalues --    0.03154   0.03852   0.04479   0.04646   0.06783
 Alpha virt. eigenvalues --    0.07089   0.07116   0.07424   0.07781   0.08331

 Mulliken charges:
               1
     1  Mg   0.954349
     2  C   -0.033069
     3  C   -0.082943
     4  C   -0.079731
     5  C   -0.083002
     6  N   -0.368550
     7  C   -0.053244
     8  C   -0.005037
     9  C   -0.142324
    10  C    0.044521
    11  C    0.037067
    12  C    0.030652
    13  C   -0.102178
    14  H    0.037290
    15  N   -0.470968
    16  C    0.144909
    17  C   -0.159856
    18  C   -0.079529
    19  C    0.169675
    20  C    0.104791
    21  C    0.036076
    22  O   -0.227578
    23  C    0.002096
    24  N   -0.386294
    25  C    0.091512
    26  C   -0.126913
    27  C   -0.015499
    28  C    0.025750
    29  C    0.031687
    30  C   -0.022259
    31  C   -0.061808
    32  N   -0.378218
    33  C    0.092478
    34  C   -0.180527
    35  C   -0.010793
    36  C    0.118857
    37  C    0.073261
    38  C    0.083857
    39  O   -0.250538
    40  C   -0.041284
    41  C    0.265174
    42  O   -0.260777
    43  O   -0.368571
    44  C    0.138631
    45  H    0.004094
    46  H   -0.041788
    47  H   -0.008987
    48  H    0.025765
    49  H    0.039993
    50  H    0.048691
    51  H    0.050486
    52  H    0.040807
    53  H    0.031528
    54  H    0.017647
    55  H    0.047097
    56  H    0.072033
    57  H    0.073554
    58  H    0.022214
    59  H    0.060934
    60  H    0.076670
    61  H    0.048871
    62  H    0.056576
    63  H    0.052205
    64  H    0.031505
    65  H    0.041494
    66  H    0.036512
    67  H    0.042376
    68  H    0.044466
    69  H    0.024546
    70  H    0.051164
    71  H    0.034937
    72  H    0.047436
    73  H    0.051628
    74  H    0.071755
    75  H    0.038744
    76  H    0.074322
    77  H    0.059723
    78  H    0.067127
    79  H    0.072735
    80  Mg   1.001386
    81  C   -0.064967
    82  C   -0.110807
    83  C   -0.083477
    84  C   -0.100661
    85  N   -0.307696
    86  C    0.022484
    87  C   -0.031737
    88  C   -0.097725
    89  C    0.019012
    90  C    0.007950
    91  C    0.023195
    92  C   -0.123404
    93  H    0.016991
    94  N   -0.428032
    95  C    0.224075
    96  C   -0.180489
    97  C   -0.042754
    98  C    0.127562
    99  C    0.061897
   100  C    0.049188
   101  O   -0.257561
   102  C   -0.023819
   103  N   -0.456662
   104  C    0.108924
   105  C   -0.100390
   106  C   -0.055409
   107  C    0.059347
   108  C    0.015935
   109  C    0.000257
   110  C   -0.055618
   111  N   -0.483259
   112  C    0.140237
   113  C   -0.167162
   114  C   -0.071796
   115  C    0.182813
   116  C    0.080917
   117  C    0.161308
   118  O   -0.208543
   119  C   -0.105818
   120  C    0.266244
   121  O   -0.223768
   122  O   -0.369651
   123  C    0.126394
   124  H   -0.009045
   125  H    0.016354
   126  H   -0.010448
   127  H    0.030615
   128  H    0.039912
   129  H    0.034303
   130  H    0.041861
   131  H    0.034273
   132  H    0.040668
   133  H    0.036927
   134  H    0.048537
   135  H    0.050360
   136  H    0.046114
   137  H    0.026860
   138  H    0.058692
   139  H    0.061392
   140  H    0.063745
   141  H    0.063653
   142  H    0.042770
   143  H    0.042940
   144  H    0.043668
   145  H    0.034118
   146  H    0.043582
   147  H    0.037027
   148  H    0.028022
   149  H    0.024567
   150  H    0.041184
   151  H    0.040909
   152  H    0.050547
   153  H    0.047765
   154  H    0.066176
   155  H    0.072899
   156  H    0.043190
   157  H    0.055699
   158  H    0.065251
 Sum of Mulliken charges =  -0.00000

 Dipole moment (field-independent basis, Debye):
    X=              0.3476    Y=              4.0291    Z=             -6.3648  Tot=              7.5409
 Quadrupole moment (field-independent basis, Debye-Ang):
   XX=           -216.1363   YY=           -554.8403   ZZ=           -469.9723
   XY=             -5.2184   XZ=            -10.1693   YZ=              5.4225

 Normal termination of Gaussian 16 at Sat Sep 18 16:13:26 2021.
