 Gaussian 16, Revision A.03,
 Gaussian 16:  ES64L-G16RevA.03 25-Dec-2016

 --------------------------------
 #p wB97XD/Def2SVP td=(nstates=5)
 --------------------------------

 --------------------------------
 TDDFT excited states in gaussian
 --------------------------------
 Symbolic Z-matrix:
 Charge =  0 Multiplicity = 1

                         Standard orientation:
 ---------------------------------------------------------------------
 Center     Atomic      Atomic             Coordinates (Angstroms)
 Number     Number       Type             X           Y           Z
 ---------------------------------------------------------------------
      1         12           0       14.803491   -0.348889   -0.298518
      2          6           0       11.481198   -1.327241   -1.075469
      3          6           0       14.515234    2.070722   -2.794417
      4          6           0       17.274016    1.224159    1.204203
      5          6           0       14.631161   -2.771807    2.440778
      6          7           0       13.021227    0.453619   -1.627174
      7          6           0       11.921066   -0.281201   -1.925168
      8          6           0       11.256541    0.289459   -3.165173
      9          6           0       12.414994    0.882739   -3.967188
     10          6           0       13.377747    1.215838   -2.716128
     11          6           0       13.154629   -0.018317   -4.957835
     12          6           0       10.089446    1.281791   -2.736215
     13          6           0        8.855044    1.071365   -3.521646
     14          1           0        8.084989    2.321674   -3.989313
     15          7           0       15.786284    1.474701   -0.687130
     16          6           0       15.564296    2.287378   -1.826547
     17          6           0       16.528224    3.356567   -1.756921
     18          6           0       17.421661    3.133133   -0.675867
     19          6           0       16.862061    1.930027    0.037050
     20          6           0       16.524372    4.475957   -2.793205
     21          6           0       18.546879    4.004179   -0.277469
     22          8           0       18.767720    5.017682   -0.928752
     23          6           0       19.428680    3.846172    0.917523
     24          7           0       15.757588   -0.718348    1.690720
     25          6           0       16.878717    0.002523    1.891177
     26          6           0       17.660752   -0.533993    3.103783
     27          6           0       16.906180   -1.939622    3.442908
     28          6           0       15.711592   -1.860551    2.457398
     29          6           0       19.240688   -0.601197    2.896764
     30          6           0       16.507160   -2.145400    4.937742
     31          6           0       15.028245   -1.830022    5.347864
     32          7           0       13.440919   -1.722043    0.512466
     33          6           0       13.554078   -2.664956    1.573583
     34          6           0       12.354923   -3.609465    1.512739
     35          6           0       11.557221   -3.048984    0.527973
     36          6           0       12.265570   -1.934247   -0.047997
     37          6           0       11.968921   -4.857980    2.329097
     38          6           0       10.334416   -3.206431   -0.193523
     39          8           0        9.481368   -4.093508   -0.134393
     40          6           0       10.243650   -2.022974   -1.089309
     41          6           0        9.127657   -1.177229   -0.434427
     42          8           0        9.226302   -0.449830    0.551539
     43          8           0        7.924193   -1.451437   -1.141648
     44          6           0        6.726876   -0.891459   -0.660820
     45          1           0       14.528376    2.785987   -3.619608
     46          1           0       18.193175    1.719550    1.523201
     47          1           0       14.553777   -3.618326    3.125244
     48          1           0       10.840476   -0.474471   -3.821813
     49          1           0       12.263528    1.767131   -4.585002
     50          1           0       12.592173   -0.904144   -5.251471
     51          1           0       14.191148   -0.177634   -4.659592
     52          1           0       13.190114    0.606147   -5.851275
     53          1           0       10.416015    2.304075   -2.927285
     54          1           0        9.912089    1.326394   -1.661614
     55          1           0        8.266564    0.456792   -2.841344
     56          1           0        9.112249    0.501783   -4.414561
     57          1           0       17.333287    4.386376   -3.518017
     58          1           0       16.520401    5.432477   -2.272612
     59          1           0       15.601814    4.450482   -3.373334
     60          1           0       20.045239    2.959222    0.769606
     61          1           0       18.918813    3.767304    1.878469
     62          1           0       20.215473    4.599291    0.937433
     63          1           0       17.402159    0.174306    3.890606
     64          1           0       17.522462   -2.759448    3.075425
     65          1           0       19.566961    0.106406    2.134692
     66          1           0       19.715763   -1.572011    2.750705
     67          1           0       19.614856   -0.416059    3.904869
     68          1           0       17.158993   -1.600791    5.620351
     69          1           0       16.656808   -3.217204    5.065638
     70          1           0       15.266146   -1.504209    6.360730
     71          1           0       14.319350   -2.657161    5.391333
     72          1           0       14.688506   -0.994981    4.734835
     73          1           0       11.840950   -5.724413    1.681177
     74          1           0       10.958995   -4.535564    2.580672
     75          1           0       12.633760   -4.904599    3.191327
     76          1           0        9.912390   -2.340553   -2.078066
     77          1           0        5.839234   -1.149808   -1.239610
     78          1           0        6.840100    0.191483   -0.691252
     79          1           0        6.628832   -1.272185    0.356205
     80         12           0      -13.942555    0.899908    0.064656
     81          6           0      -14.126686   -2.441750   -0.748570
     82          6           0      -10.404739    0.712342   -0.401134
     83          6           0      -13.637494    3.972969    1.171863
     84          6           0      -17.376390    0.986254    0.668692
     85          7           0      -12.516260   -0.724711   -0.518344
     86          6           0      -12.821894   -1.987045   -0.832474
     87          6           0      -11.523437   -2.719587   -1.303708
     88          6           0      -10.343315   -1.677671   -1.033570
     89          6           0      -11.145003   -0.451758   -0.555180
     90          6           0       -9.377000   -2.006544    0.088134
     91          6           0      -11.578984   -3.273724   -2.735315
     92          6           0      -11.167203   -4.735609   -2.780276
     93          1           0      -10.558927   -5.348972   -4.049884
     94          7           0      -12.253546    2.176560    0.264134
     95          6           0      -10.933366    1.963475   -0.010219
     96          6           0      -10.156866    3.102705    0.199812
     97          6           0      -11.040200    4.074738    0.786503
     98          6           0      -12.398992    3.431281    0.751775
     99          6           0       -8.666384    3.186386   -0.095710
    100          6           0      -10.709682    5.439632    1.368027
    101          8           0      -11.602142    6.053540    1.984453
    102          6           0       -9.345457    5.996925    1.327256
    103          7           0      -15.309989    2.234426    0.761221
    104          6           0      -14.977970    3.523141    1.125580
    105          6           0      -16.186071    4.389650    1.641964
    106          6           0      -17.384920    3.453923    1.183860
    107          6           0      -16.661295    2.132167    0.867868
    108          6           0      -16.315788    4.803725    3.160892
    109          6           0      -18.412435    4.008511    0.095745
    110          6           0      -17.924851    3.985050   -1.328832
    111          7           0      -15.439557   -0.411082    0.129987
    112          6           0      -16.792328   -0.289178    0.384518
    113          6           0      -17.475174   -1.509165    0.238464
    114          6           0      -16.464426   -2.351624   -0.238669
    115          6           0      -15.223391   -1.653297   -0.300810
    116          6           0      -18.928404   -1.622089    0.423722
    117          6           0      -16.277026   -3.714551   -0.557668
    118          8           0      -17.098521   -4.629210   -0.468393
    119          6           0      -14.716376   -3.876892   -0.948812
    120          6           0      -14.112157   -4.876083   -0.085242
    121          8           0      -13.811753   -4.742855    1.079062
    122          8           0      -14.023170   -6.039954   -0.717145
    123          6           0      -13.566786   -7.189911    0.003357
    124          1           0       -9.320216    0.631885   -0.495674
    125          1           0      -13.693442    4.990350    1.563802
    126          1           0      -18.447260    1.056541    0.870802
    127          1           0      -11.470660   -3.509874   -0.555545
    128          1           0       -9.737654   -1.691904   -1.940391
    129          1           0       -9.522588   -2.988795    0.538675
    130          1           0       -9.502628   -1.303222    0.910896
    131          1           0       -8.354224   -1.813438   -0.236908
    132          1           0      -10.988848   -2.720781   -3.466342
    133          1           0      -12.603539   -3.163561   -3.089859
    134          1           0      -12.089334   -5.306660   -2.666306
    135          1           0      -10.466405   -4.873474   -1.957098
    136          1           0       -8.323856    2.335313   -0.684400
    137          1           0       -8.117987    3.078103    0.840303
    138          1           0       -8.399892    4.163330   -0.497294
    139          1           0       -9.216322    6.762568    2.093082
    140          1           0       -9.239062    6.499745    0.365532
    141          1           0       -8.608874    5.207984    1.477370
    142          1           0      -16.346927    5.280060    1.033347
    143          1           0      -18.063954    3.328565    2.026324
    144          1           0      -15.448861    4.405786    3.686846
    145          1           0      -17.113008    4.216092    3.617850
    146          1           0      -16.455652    5.858288    3.400212
    147          1           0      -18.552446    5.063692    0.329182
    148          1           0      -19.407458    3.569798    0.159822
    149          1           0      -18.801293    3.834336   -1.958132
    150          1           0      -17.135606    3.302876   -1.642300
    151          1           0      -17.482552    4.963484   -1.516352
    152          1           0      -19.554127   -0.760390    0.192630
    153          1           0      -19.258239   -2.087450    1.351781
    154          1           0      -19.163989   -2.404414   -0.297335
    155          1           0      -14.668272   -4.211127   -1.985008
    156          1           0      -12.482768   -7.302156   -0.038068
    157          1           0      -13.980499   -8.062268   -0.502207
    158          1           0      -13.866889   -7.115103    1.048667
 ---------------------------------------------------------------------

 SCF Done:  E(RwB97XD) =  -4070.57839322     A.U. after   20 cycles

 Excitation energies and oscillator strengths:

 Excited State   1:      Singlet-A      1.6239 eV  763.52 nm  f=0.3669  <S**2>=0.000
     309 -> 315       -0.20429
     312 -> 314        0.67788
     309 <- 315       -0.12288
 This state for optimization and/or second-order correction.
 Total Energy, E(TD-HF/TD-DFT) =  -4070.51871744
 Copying the excited state density for this state as the 1-particle RhoCI density.

 Excited State   2:      Singlet-A      1.6477 eV  752.49 nm  f=0.4035  <S**2>=0.000
     310 -> 316        0.17808
     311 -> 313        0.68430
     310 <- 316        0.11438

 Excited State   3:      Singlet-A      2.1337 eV  581.07 nm  f=0.0547  <S**2>=0.000
     309 -> 314        0.61272
     312 -> 315        0.34223

 Excited State   4:      Singlet-A      2.1651 eV  572.65 nm  f=0.1555  <S**2>=0.000
     310 -> 313        0.65106
     311 -> 316       -0.25705

 Excited State   5:      Singlet-A      3.7000 eV  335.10 nm  f=0.0000  <S**2>=0.000
     312 -> 313        0.70705

 The electronic state is 1-A.
 Alpha  occ. eigenvalues --  -46.97724 -46.94008 -19.30053 -19.29981 -19.26438
 Alpha  occ. eigenvalues --  -19.24069 -19.23622 -19.23506 -19.23265 -19.22634
 Alpha  occ. eigenvalues --  -14.47060 -14.46866 -14.46757 -14.46584 -14.44908
 Alpha  occ. eigenvalues --  -14.44410 -14.44294 -14.43532 -10.44595 -10.42060
 Alpha  occ. eigenvalues --  -10.38813 -10.38661 -10.38497 -10.38121 -10.35916
 Alpha  occ. eigenvalues --  -10.35534 -10.35530 -10.35524 -10.35430 -10.35212
 Alpha  occ. eigenvalues --  -10.35128 -10.35114 -10.34932 -10.34894 -10.34890
 Alpha  occ. eigenvalues --  -10.34776 -10.34185 -10.34110 -10.33641 -10.33562
 Alpha  occ. eigenvalues --  -10.33385 -10.33020 -10.32949 -10.32895 -10.32632
 Alpha  occ. eigenvalues --  -10.32586 -10.32533 -10.32521 -10.32451 -10.32407
 Alpha  occ. eigenvalues --  -10.32375 -10.32328 -10.32275 -10.32269 -10.32025
 Alpha  occ. eigenvalues --  -10.31986 -10.31846 -10.31711 -10.31706 -10.31681
 Alpha  occ. eigenvalues --  -10.31619 -10.31605 -10.31587 -10.31529 -10.31357
 Alpha  occ. eigenvalues --  -10.31241 -10.31203 -10.31137 -10.31097 -10.30722
 Alpha  occ. eigenvalues --  -10.30694 -10.30491 -10.30296 -10.30265 -10.30257
 Alpha  occ. eigenvalues --  -10.30230 -10.30136 -10.29996 -10.29682 -10.29596
 Alpha  occ. eigenvalues --  -10.29569 -10.29386 -10.29246 -10.29111 -10.28742
 Alpha  occ. eigenvalues --  -10.28637  -3.23429  -3.20199  -1.96945  -1.96592
 Alpha  occ. eigenvalues --   -1.96339  -1.93794  -1.93347  -1.93177  -1.20064
 Alpha  occ. eigenvalues --   -1.18087  -1.11926  -1.11607  -1.11054  -1.10954
 Alpha  occ. eigenvalues --   -1.10694  -1.09926  -1.06576  -1.06278  -1.05724
 Alpha  occ. eigenvalues --   -1.05511  -1.05301  -1.04936  -1.04551  -1.03363
 Alpha  occ. eigenvalues --   -0.96480  -0.94016  -0.91246  -0.91111  -0.90688
 Alpha  occ. eigenvalues --   -0.90616  -0.90179  -0.89744  -0.89549  -0.89416
 Alpha  occ. eigenvalues --   -0.89274  -0.88856  -0.88698  -0.87574  -0.86766
 Alpha  occ. eigenvalues --   -0.86488  -0.85722  -0.85638  -0.84804  -0.84680
 Alpha  occ. eigenvalues --   -0.84291  -0.83626  -0.83115  -0.82881  -0.82536
 Alpha  occ. eigenvalues --   -0.82308  -0.80281  -0.80052  -0.79264  -0.79222
 Alpha  occ. eigenvalues --   -0.78873  -0.78801  -0.78045  -0.77851  -0.77215
 Alpha  occ. eigenvalues --   -0.77183  -0.75407  -0.74811  -0.73896  -0.73392
 Alpha  occ. eigenvalues --   -0.71898  -0.71531  -0.70798  -0.70788  -0.69715
 Alpha  occ. eigenvalues --   -0.69332  -0.69056  -0.68896  -0.67385  -0.67307
 Alpha  occ. eigenvalues --   -0.66979  -0.66886  -0.66764  -0.66622  -0.66540
 Alpha  occ. eigenvalues --   -0.66321  -0.64303  -0.64269  -0.62390  -0.61995
 Alpha  occ. eigenvalues --   -0.61955  -0.61835  -0.61341  -0.60962  -0.60946
 Alpha  occ. eigenvalues --   -0.60464  -0.60334  -0.60273  -0.59635  -0.59077
 Alpha  occ. eigenvalues --   -0.58472  -0.58177  -0.58063  -0.58002  -0.57690
 Alpha  occ. eigenvalues --   -0.57063  -0.56926  -0.56591  -0.56558  -0.56264
 Alpha  occ. eigenvalues --   -0.55713  -0.55420  -0.55364  -0.55099  -0.55047
 Alpha  occ. eigenvalues --   -0.54669  -0.54645  -0.54416  -0.54208  -0.54166
 Alpha  occ. eigenvalues --   -0.53983  -0.53953  -0.53678  -0.53640  -0.53403
 Alpha  occ. eigenvalues --   -0.53326  -0.53251  -0.52547  -0.52237  -0.52186
 Alpha  occ. eigenvalues --   -0.52148  -0.51972  -0.51895  -0.51571  -0.51475
 Alpha  occ. eigenvalues --   -0.51386  -0.51229  -0.51128  -0.51043  -0.50972
 Alpha  occ. eigenvalues --   -0.50837  -0.50488  -0.50296  -0.50237  -0.50031
 Alpha  occ. eigenvalues --   -0.49773  -0.49679  -0.49468  -0.49255  -0.49179
 Alpha  occ. eigenvalues --   -0.48841  -0.48778  -0.48422  -0.48280  -0.48077
 Alpha  occ. eigenvalues --   -0.47963  -0.47917  -0.47907  -0.47861  -0.47431
 Alpha  occ. eigenvalues --   -0.47407  -0.47317  -0.47301  -0.47139  -0.47025
 Alpha  occ. eigenvalues --   -0.46828  -0.46556  -0.46484  -0.46430  -0.46264
 Alpha  occ. eigenvalues --   -0.46096  -0.45875  -0.45806  -0.45528  -0.45507
 Alpha  occ. eigenvalues --   -0.45405  -0.45275  -0.45169  -0.45056  -0.44578
 Alpha  occ. eigenvalues --   -0.44455  -0.44413  -0.44033  -0.43892  -0.43566
 Alpha  occ. eigenvalues --   -0.43491  -0.43391  -0.43367  -0.43300  -0.43056
 Alpha  occ. eigenvalues --   -0.42978  -0.42948  -0.42877  -0.42385  -0.42347
 Alpha  occ. eigenvalues --   -0.42021  -0.41119  -0.41079  -0.40831  -0.40578
 Alpha  occ. eigenvalues --   -0.40238  -0.40070  -0.39958  -0.39696  -0.39629
 Alpha  occ. eigenvalues --   -0.39136  -0.38677  -0.38598  -0.38399  -0.38300
 Alpha  occ. eigenvalues --   -0.38082  -0.37800  -0.37267  -0.36293  -0.36196
 Alpha  occ. eigenvalues --   -0.35764  -0.35678  -0.35351  -0.33640  -0.33603
 Alpha  occ. eigenvalues --   -0.33051  -0.32781  -0.32685  -0.32522  -0.32202
 Alpha  occ. eigenvalues --   -0.32189  -0.31912  -0.31693  -0.26030  -0.26014
 Alpha  occ. eigenvalues --   -0.23257  -0.22897
 Alpha virt. eigenvalues --   -0.07433  -0.06946  -0.00793   0.00529   0.01784
 Alpha virt. eigenvalues --    0.02567   0.02864   0.04252   0.04614   0.06246
 Alpha virt. eigenvalues --    0.06766   0.07498   0.07957   0.08279   0.08321

 Mulliken charges:
               1
     1  Mg   0.936814
     2  C    0.010743
     3  C   -0.075249
     4  C   -0.029656
     5  C   -0.064385
     6  N   -0.298332
     7  C   -0.021605
     8  C   -0.051991
     9  C   -0.134169
    10  C    0.044069
    11  C    0.038296
    12  C    0.033872
    13  C   -0.116964
    14  H    0.034534
    15  N   -0.490238
    16  C    0.145875
    17  C   -0.165518
    18  C   -0.024955
    19  C    0.111556
    20  C    0.096193
    21  C   -0.007008
    22  O   -0.246379
    23  C    0.013962
    24  N   -0.325666
    25  C    0.062915
    26  C   -0.098297
    27  C   -0.020518
    28  C    0.007432
    29  C    0.005935
    30  C   -0.047077
    31  C   -0.048207
    32  N   -0.423102
    33  C    0.106679
    34  C   -0.210712
    35  C   -0.023487
    36  C    0.162108
    37  C    0.090984
    38  C    0.075721
    39  O   -0.216405
    40  C   -0.054887
    41  C    0.276257
    42  O   -0.229394
    43  O   -0.374845
    44  C    0.144953
    45  H    0.004509
    46  H   -0.047321
    47  H   -0.000818
    48  H    0.012622
    49  H    0.029536
    50  H    0.042111
    51  H    0.047120
    52  H    0.028403
    53  H    0.032664
    54  H    0.056401
    55  H    0.045177
    56  H    0.046308
    57  H    0.058425
    58  H    0.061412
    59  H    0.009430
    60  H    0.040949
    61  H    0.071662
    62  H    0.047016
    63  H    0.050817
    64  H    0.037901
    65  H    0.052419
    66  H    0.033950
    67  H    0.031617
    68  H    0.040301
    69  H    0.031066
    70  H    0.035700
    71  H    0.046447
    72  H    0.060450
    73  H    0.072967
    74  H    0.067918
    75  H    0.039044
    76  H    0.060944
    77  H    0.057660
    78  H    0.041699
    79  H    0.053643
    80  Mg   0.992235
    81  C   -0.044688
    82  C   -0.105185
    83  C   -0.051577
    84  C   -0.104119
    85  N   -0.349896
    86  C   -0.028293
    87  C   -0.021249
    88  C   -0.162839
    89  C    0.116069
    90  C    0.006199
    91  C    0.037851
    92  C   -0.145880
    93  H    0.028828
    94  N   -0.425406
    95  C    0.160259
    96  C   -0.175126
    97  C   -0.074179
    98  C    0.171332
    99  C    0.066575
   100  C    0.038220
   101  O   -0.260173
   102  C    0.004507
   103  N   -0.396098
   104  C    0.027619
   105  C   -0.070170
   106  C   -0.076085
   107  C    0.087225
   108  C    0.029242
   109  C   -0.031225
   110  C   -0.058208
   111  N   -0.470244
   112  C    0.132046
   113  C   -0.134439
   114  C   -0.037927
   115  C    0.195277
   116  C    0.072339
   117  C    0.096073
   118  O   -0.219452
   119  C   -0.078133
   120  C    0.235462
   121  O   -0.251476
   122  O   -0.328074
   123  C    0.135812
   124  H   -0.002040
   125  H    0.021847
   126  H   -0.004781
   127  H    0.033233
   128  H    0.042979
   129  H    0.043876
   130  H    0.040445
   131  H    0.035270
   132  H    0.039542
   133  H    0.029993
   134  H    0.063157
   135  H    0.056211
   136  H    0.042427
   137  H    0.057150
   138  H    0.056348
   139  H    0.055942
   140  H    0.067026
   141  H    0.045085
   142  H    0.038399
   143  H    0.027384
   144  H    0.039920
   145  H    0.027316
   146  H    0.056770
   147  H    0.029162
   148  H    0.032928
   149  H    0.037756
   150  H    0.047641
   151  H    0.028742
   152  H    0.045988
   153  H    0.055554
   154  H    0.045366
   155  H    0.065518
   156  H    0.042609
   157  H    0.055508
   158  H    0.066704
 Sum of Mulliken charges =  -0.00000

 Dipole moment (field-independent basis, Debye):
    X=              5.5132    Y=             -0.4309    Z=             -2.0910  Tot=              5.9121
 Quadrupole moment (field-independent basis, Debye-Ang):
   XX=           -484.6304   YY=           -541.0336   ZZ=           -490.9345
   XY=           -129.3935   XZ=             41.8282   YZ=             -7.9848

 Normal termination of Gaussian 16 at Sun Sep 19 12:30:58 2021.
