 Gaussian 16, Revision A.03,
 Gaussian 16:  ES64L-G16RevA.03 25-Dec-2016

 --------------------------------
 #p wB97XD/Def2SVP td=(nstates=5)
 --------------------------------

 --------------------------------
 TDDFT excited states in gaussian
 --------------------------------
 Symbolic Z-matrix:
 Charge =  0 Multiplicity = 1

                         Standard orientation:
 ---------------------------------------------------------------------
 Center     Atomic      Atomic             Coordinates (Angstroms)
 Number     Number       Type             X           Y           Z
 ---------------------------------------------------------------------
      1         12           0       28.106902    0.343034   -0.198104
      2          6           0       25.606566   -1.938347    0.167435
      3          6           0       25.656833    2.790791   -0.384899
      4          6           0       30.575700    2.618343   -0.173602
      5          6           0       30.486054   -2.101199    0.668574
      6          7           0       25.878282    0.426744    0.145723
      7          6           0       25.109398   -0.677193    0.232422
      8          6           0       23.673845   -0.356681    0.436960
      9          6           0       23.674978    1.193192   -0.137841
     10          6           0       25.180876    1.530529   -0.138731
     11          6           0       22.967773    1.326452   -1.518818
     12          6           0       23.338101   -0.427124    1.918201
     13          6           0       24.185790    0.447139    2.953973
     14          1           0       23.496233    1.143866    4.120369
     15          7           0       28.127305    2.403691   -0.267177
     16          6           0       27.007388    3.245798   -0.483786
     17          6           0       27.512157    4.553203   -0.740786
     18          6           0       28.897972    4.571794   -0.643231
     19          6           0       29.300540    3.177530   -0.393144
     20          6           0       26.515608    5.654396   -1.040874
     21          6           0       29.809176    5.774526   -0.701303
     22          8           0       29.238634    6.880903   -0.870500
     23          6           0       31.196950    5.792081   -0.380661
     24          7           0       30.205963    0.278944    0.412703
     25          6           0       31.018172    1.363717    0.258139
     26          6           0       32.480529    1.028230    0.637166
     27          6           0       32.415747   -0.512914    0.906726
     28          6           0       30.934259   -0.797963    0.726896
     29          6           0       33.486555    1.432346   -0.419317
     30          6           0       32.983565   -0.874792    2.381232
     31          6           0       33.866998   -2.126976    2.420768
     32          7           0       28.134985   -1.689027    0.330526
     33          6           0       29.143264   -2.590761    0.452549
     34          6           0       28.542387   -3.896445    0.420783
     35          6           0       27.120174   -3.751906    0.266154
     36          6           0       26.937437   -2.379099    0.244767
     37          6           0       29.232107   -5.169851    0.772911
     38          6           0       25.834440   -4.370587    0.219607
     39          8           0       25.644897   -5.593437    0.227979
     40          6           0       24.831818   -3.235924    0.118820
     41          6           0       24.045155   -3.410361   -1.126382
     42          8           0       23.431026   -4.444638   -1.299835
     43          8           0       24.021270   -2.319190   -1.940234
     44          6           0       23.228601   -2.471372   -3.161885
     45          1           0       24.905396    3.510024   -0.716965
     46          1           0       31.373621    3.327060   -0.404158
     47          1           0       31.177316   -2.941767    0.761829
     48          1           0       22.930864   -0.981104   -0.059303
     49          1           0       23.034000    1.833191    0.469896
     50          1           0       22.143028    2.034624   -1.447714
     51          1           0       22.546051    0.348375   -1.751887
     52          1           0       23.625307    1.607400   -2.342532
     53          1           0       23.323497   -1.482675    2.190455
     54          1           0       22.267894   -0.220695    1.917922
     55          1           0       24.750406    1.274452    2.523813
     56          1           0       24.825700   -0.310828    3.404810
     57          1           0       26.194168    6.025447   -0.067503
     58          1           0       25.650509    5.220170   -1.540466
     59          1           0       26.875790    6.480206   -1.655128
     60          1           0       31.508090    6.757250    0.020262
     61          1           0       31.835928    5.425409   -1.185037
     62          1           0       31.285384    5.143137    0.489577
     63          1           0       32.625128    1.579966    1.566683
     64          1           0       32.918066   -1.042876    0.097685
     65          1           0       33.057779    1.994893   -1.248221
     66          1           0       34.193896    0.713363   -0.831754
     67          1           0       34.041466    2.227439    0.079537
     68          1           0       32.204898   -1.035287    3.126973
     69          1           0       33.533569   -0.044135    2.823147
     70          1           0       34.898428   -1.806697    2.565464
     71          1           0       33.839187   -2.593436    1.435783
     72          1           0       33.585920   -2.821740    3.212373
     73          1           0       29.988288   -5.541012    0.082202
     74          1           0       28.432556   -5.902491    0.889016
     75          1           0       29.772133   -5.096511    1.716950
     76          1           0       24.170214   -3.340370    0.979242
     77          1           0       22.210203   -2.726260   -2.867228
     78          1           0       23.651547   -3.186684   -3.867436
     79          1           0       23.284711   -1.569179   -3.770807
     80         12           0      -28.255280    0.427808    0.275554
     81          6           0      -26.404678   -2.285515   -1.043419
     82          6           0      -27.799945    2.038124   -2.655114
     83          6           0      -29.855073    2.960625    1.596086
     84          6           0      -27.960728   -1.146058    3.485543
     85          7           0      -27.115248   -0.012876   -1.650588
     86          6           0      -26.681681   -1.282062   -1.995495
     87          6           0      -26.435522   -1.269562   -3.465551
     88          6           0      -26.340973    0.211734   -3.832487
     89          6           0      -27.153526    0.833333   -2.669098
     90          6           0      -24.846773    0.707162   -3.792215
     91          6           0      -27.515529   -2.047033   -4.393834
     92          6           0      -27.040711   -2.936268   -5.583652
     93          1           0      -26.015143   -2.301580   -6.566933
     94          7           0      -28.737832    2.272471   -0.473721
     95          6           0      -28.479182    2.710185   -1.670627
     96          6           0      -28.980786    4.091396   -1.775214
     97          6           0      -29.787128    4.336872   -0.622695
     98          6           0      -29.464318    3.175127    0.253542
     99          6           0      -28.757245    5.133178   -2.931123
    100          6           0      -30.742068    5.478028   -0.273815
    101          8           0      -31.293491    5.616798    0.834713
    102          6           0      -30.865850    6.585211   -1.209380
    103          7           0      -28.675126    0.902352    2.362219
    104          6           0      -29.480892    2.009148    2.616228
    105          6           0      -29.970746    1.950520    4.114512
    106          6           0      -29.458026    0.572631    4.602480
    107          6           0      -28.674748    0.039682    3.400673
    108          6           0      -29.560540    3.179716    4.925918
    109          6           0      -30.525159   -0.386175    5.187919
    110          6           0      -30.136022   -1.227942    6.425560
    111          7           0      -27.372178   -1.322942    1.108222
    112          6           0      -27.286054   -1.803820    2.410925
    113          6           0      -26.706586   -3.122491    2.375084
    114          6           0      -26.297489   -3.322284    1.055740
    115          6           0      -26.727580   -2.207795    0.284014
    116          6           0      -26.595319   -4.027735    3.442054
    117          6           0      -25.680844   -4.267781    0.113520
    118          8           0      -25.232923   -5.395871    0.244530
    119          6           0      -25.755210   -3.622448   -1.308941
    120          6           0      -24.338104   -3.559823   -1.850354
    121          8           0      -23.428273   -2.773938   -1.711795
    122          8           0      -24.317896   -4.628324   -2.699504
    123          6           0      -23.209781   -4.708605   -3.680892
    124          1           0      -27.737198    2.535409   -3.625676
    125          1           0      -30.556860    3.727031    1.931411
    126          1           0      -28.058564   -1.736579    4.398367
    127          1           0      -25.509341   -1.738047   -3.799363
    128          1           0      -26.901645    0.458827   -4.733652
    129          1           0      -24.621103    1.489435   -4.516151
    130          1           0      -24.130539   -0.062018   -4.082168
    131          1           0      -24.719056    1.126485   -2.794824
    132          1           0      -28.282300   -1.344315   -4.718281
    133          1           0      -28.116390   -2.712295   -3.772647
    134          1           0      -27.958373   -3.051922   -6.161526
    135          1           0      -26.673808   -3.820428   -5.062305
    136          1           0      -29.641267    5.372151   -3.521873
    137          1           0      -27.990215    4.718357   -3.585705
    138          1           0      -28.485469    6.137293   -2.605451
    139          1           0      -31.133648    6.227096   -2.203781
    140          1           0      -29.936325    7.152019   -1.263901
    141          1           0      -31.748723    7.150195   -0.911933
    142          1           0      -31.054102    1.838173    4.069284
    143          1           0      -28.640753    0.697867    5.312485
    144          1           0      -28.582932    3.000030    5.374450
    145          1           0      -30.201049    3.393054    5.781091
    146          1           0      -29.332357    3.995701    4.240998
    147          1           0      -30.979682   -1.048026    4.450882
    148          1           0      -31.421060    0.162113    5.482278
    149          1           0      -29.858345   -2.196523    6.009555
    150          1           0      -31.067853   -1.352899    6.978018
    151          1           0      -29.318762   -0.749255    6.964351
    152          1           0      -25.843209   -4.815815    3.412865
    153          1           0      -27.589644   -4.446524    3.600249
    154          1           0      -26.309664   -3.422571    4.301689
    155          1           0      -26.399150   -4.218175   -1.955634
    156          1           0      -23.691114   -5.002293   -4.613278
    157          1           0      -22.432155   -5.442534   -3.470888
    158          1           0      -22.760428   -3.725083   -3.815721
 ---------------------------------------------------------------------

 SCF Done:  E(RwB97XD) =  -4070.60318797     A.U. after   20 cycles

 Excitation energies and oscillator strengths:

 Excited State   1:      Singlet-A      1.6742 eV  740.56 nm  f=0.3708  <S**2>=0.000
     310 -> 315        0.19695
     312 -> 314        0.67919
     310 <- 315        0.11757
 This state for optimization and/or second-order correction.
 Total Energy, E(TD-HF/TD-DFT) =  -4070.54166280
 Copying the excited state density for this state as the 1-particle RhoCI density.

 Excited State   2:      Singlet-A      1.6885 eV  734.31 nm  f=0.4014  <S**2>=0.000
     309 -> 316       -0.18193
     311 -> 313        0.68304
     309 <- 316       -0.11273

 Excited State   3:      Singlet-A      2.1632 eV  573.14 nm  f=0.1261  <S**2>=0.000
     309 -> 313        0.64779
     311 -> 316        0.25632

 Excited State   4:      Singlet-A      2.2066 eV  561.89 nm  f=0.0672  <S**2>=0.000
     310 -> 314        0.62036
     312 -> 315       -0.32386

 Excited State   5:      Singlet-A      3.2086 eV  386.41 nm  f=0.0008  <S**2>=0.000
     306 -> 313       -0.33648
     308 -> 313        0.59950

 The electronic state is 1-A.
 Alpha  occ. eigenvalues --  -46.95701 -46.95458 -19.31581 -19.29597 -19.24966
 Alpha  occ. eigenvalues --  -19.24407 -19.24297 -19.23721 -19.23301 -19.23230
 Alpha  occ. eigenvalues --  -14.46660 -14.46647 -14.46361 -14.45995 -14.44439
 Alpha  occ. eigenvalues --  -14.44428 -14.43547 -14.43165 -10.43285 -10.43079
 Alpha  occ. eigenvalues --  -10.39489 -10.38825 -10.38811 -10.38428 -10.36474
 Alpha  occ. eigenvalues --  -10.35770 -10.35733 -10.35329 -10.35226 -10.35192
 Alpha  occ. eigenvalues --  -10.34825 -10.34815 -10.34493 -10.34470 -10.34321
 Alpha  occ. eigenvalues --  -10.34175 -10.34037 -10.33985 -10.33829 -10.33645
 Alpha  occ. eigenvalues --  -10.33556 -10.33157 -10.33022 -10.32586 -10.32500
 Alpha  occ. eigenvalues --  -10.32449 -10.32430 -10.32411 -10.32193 -10.32158
 Alpha  occ. eigenvalues --  -10.32083 -10.31956 -10.31923 -10.31826 -10.31802
 Alpha  occ. eigenvalues --  -10.31635 -10.31611 -10.31576 -10.31574 -10.31519
 Alpha  occ. eigenvalues --  -10.31432 -10.31362 -10.31343 -10.31292 -10.31258
 Alpha  occ. eigenvalues --  -10.31246 -10.31179 -10.30924 -10.30772 -10.30761
 Alpha  occ. eigenvalues --  -10.30562 -10.30419 -10.30337 -10.30297 -10.30222
 Alpha  occ. eigenvalues --  -10.30206 -10.29915 -10.29626 -10.29555 -10.29513
 Alpha  occ. eigenvalues --  -10.29464 -10.29416 -10.29085 -10.28831 -10.28805
 Alpha  occ. eigenvalues --  -10.28546  -3.21546  -3.21365  -1.95129  -1.94926
 Alpha  occ. eigenvalues --   -1.94667  -1.94503  -1.94503  -1.94314  -1.19567
 Alpha  occ. eigenvalues --   -1.18281  -1.11818  -1.11576  -1.11226  -1.10628
 Alpha  occ. eigenvalues --   -1.10192  -1.09959  -1.07181  -1.06974  -1.06535
 Alpha  occ. eigenvalues --   -1.05939  -1.05042  -1.04733  -1.04085  -1.03592
 Alpha  occ. eigenvalues --   -0.96041  -0.94738  -0.91231  -0.90903  -0.90758
 Alpha  occ. eigenvalues --   -0.90625  -0.90359  -0.89870  -0.89702  -0.89481
 Alpha  occ. eigenvalues --   -0.89067  -0.88800  -0.88334  -0.87774  -0.87011
 Alpha  occ. eigenvalues --   -0.86131  -0.86001  -0.85475  -0.85283  -0.84694
 Alpha  occ. eigenvalues --   -0.84605  -0.84400  -0.83438  -0.83384  -0.82847
 Alpha  occ. eigenvalues --   -0.82560  -0.80562  -0.80339  -0.79964  -0.79365
 Alpha  occ. eigenvalues --   -0.78965  -0.78944  -0.78050  -0.77778  -0.77041
 Alpha  occ. eigenvalues --   -0.76923  -0.74487  -0.74470  -0.74108  -0.73782
 Alpha  occ. eigenvalues --   -0.72071  -0.71068  -0.70854  -0.70782  -0.70660
 Alpha  occ. eigenvalues --   -0.69687  -0.69318  -0.69159  -0.68473  -0.67421
 Alpha  occ. eigenvalues --   -0.67338  -0.67278  -0.67198  -0.66960  -0.66353
 Alpha  occ. eigenvalues --   -0.66318  -0.65797  -0.63929  -0.62480  -0.62215
 Alpha  occ. eigenvalues --   -0.61700  -0.61551  -0.61326  -0.61223  -0.60723
 Alpha  occ. eigenvalues --   -0.60369  -0.60283  -0.60021  -0.59887  -0.59489
 Alpha  occ. eigenvalues --   -0.58737  -0.58570  -0.58153  -0.57850  -0.57766
 Alpha  occ. eigenvalues --   -0.57127  -0.57085  -0.56459  -0.56396  -0.56207
 Alpha  occ. eigenvalues --   -0.55692  -0.55632  -0.55501  -0.55437  -0.55176
 Alpha  occ. eigenvalues --   -0.55129  -0.55017  -0.54869  -0.54452  -0.54325
 Alpha  occ. eigenvalues --   -0.54027  -0.53802  -0.53708  -0.53597  -0.53497
 Alpha  occ. eigenvalues --   -0.53333  -0.53144  -0.53010  -0.52807  -0.52711
 Alpha  occ. eigenvalues --   -0.52339  -0.52316  -0.51890  -0.51587  -0.51570
 Alpha  occ. eigenvalues --   -0.51424  -0.51322  -0.51040  -0.50925  -0.50725
 Alpha  occ. eigenvalues --   -0.50691  -0.50578  -0.50408  -0.50093  -0.50058
 Alpha  occ. eigenvalues --   -0.49564  -0.49540  -0.49304  -0.49025  -0.49022
 Alpha  occ. eigenvalues --   -0.48848  -0.48650  -0.48566  -0.48407  -0.48371
 Alpha  occ. eigenvalues --   -0.48183  -0.47999  -0.47850  -0.47665  -0.47549
 Alpha  occ. eigenvalues --   -0.47457  -0.47133  -0.46960  -0.46813  -0.46808
 Alpha  occ. eigenvalues --   -0.46598  -0.46578  -0.46512  -0.46468  -0.46296
 Alpha  occ. eigenvalues --   -0.45993  -0.45759  -0.45687  -0.45610  -0.45500
 Alpha  occ. eigenvalues --   -0.44939  -0.44883  -0.44739  -0.44679  -0.44319
 Alpha  occ. eigenvalues --   -0.44224  -0.44220  -0.44180  -0.44082  -0.43914
 Alpha  occ. eigenvalues --   -0.43827  -0.43732  -0.43493  -0.43297  -0.43194
 Alpha  occ. eigenvalues --   -0.43067  -0.42926  -0.42791  -0.42430  -0.42341
 Alpha  occ. eigenvalues --   -0.42118  -0.41755  -0.41475  -0.41421  -0.41089
 Alpha  occ. eigenvalues --   -0.40664  -0.40651  -0.39788  -0.39695  -0.39683
 Alpha  occ. eigenvalues --   -0.39462  -0.39321  -0.38983  -0.38567  -0.38464
 Alpha  occ. eigenvalues --   -0.37882  -0.37829  -0.36709  -0.36641  -0.35969
 Alpha  occ. eigenvalues --   -0.35906  -0.35305  -0.35287  -0.33985  -0.33678
 Alpha  occ. eigenvalues --   -0.33356  -0.32812  -0.32724  -0.32427  -0.32386
 Alpha  occ. eigenvalues --   -0.32302  -0.31414  -0.31126  -0.26214  -0.25883
 Alpha  occ. eigenvalues --   -0.23468  -0.22767
 Alpha virt. eigenvalues --   -0.07488  -0.06614  -0.00138   0.00059   0.01934
 Alpha virt. eigenvalues --    0.02225   0.04131   0.04293   0.04474   0.05027
 Alpha virt. eigenvalues --    0.07370   0.07861   0.08033   0.08051   0.08313

 Mulliken charges:
               1
     1  Mg   0.931791
     2  C   -0.001147
     3  C   -0.065815
     4  C   -0.091567
     5  C   -0.077513
     6  N   -0.307329
     7  C    0.004234
     8  C   -0.074432
     9  C   -0.126287
    10  C    0.080326
    11  C    0.020500
    12  C    0.007954
    13  C   -0.131065
    14  H    0.036930
    15  N   -0.514541
    16  C    0.149000
    17  C   -0.151921
    18  C   -0.055477
    19  C    0.178001
    20  C    0.087483
    21  C    0.034441
    22  O   -0.271060
    23  C    0.017115
    24  N   -0.324834
    25  C    0.043670
    26  C   -0.057453
    27  C   -0.088557
    28  C    0.105884
    29  C    0.017443
    30  C   -0.009881
    31  C   -0.055795
    32  N   -0.439716
    33  C    0.094728
    34  C   -0.179705
    35  C    0.011881
    36  C    0.117473
    37  C    0.048054
    38  C    0.070968
    39  O   -0.201888
    40  C   -0.081146
    41  C    0.257062
    42  O   -0.227834
    43  O   -0.352629
    44  C    0.138894
    45  H   -0.003845
    46  H   -0.037256
    47  H   -0.005212
    48  H    0.022122
    49  H    0.037579
    50  H    0.038118
    51  H    0.026479
    52  H    0.039064
    53  H    0.025050
    54  H    0.032746
    55  H    0.077985
    56  H    0.066407
    57  H    0.053631
    58  H    0.029926
    59  H    0.063877
    60  H    0.061090
    61  H    0.077262
    62  H    0.047614
    63  H    0.049737
    64  H    0.040755
    65  H    0.036108
    66  H    0.051909
    67  H    0.027108
    68  H    0.036493
    69  H    0.027980
    70  H    0.034945
    71  H    0.031358
    72  H    0.047292
    73  H    0.038316
    74  H    0.058177
    75  H    0.037797
    76  H    0.089653
    77  H    0.063443
    78  H    0.059058
    79  H    0.050995
    80  Mg   0.942152
    81  C   -0.052033
    82  C   -0.101164
    83  C   -0.067659
    84  C   -0.090897
    85  N   -0.320445
    86  C    0.052438
    87  C   -0.094402
    88  C   -0.080847
    89  C   -0.006005
    90  C    0.041948
    91  C   -0.020883
    92  C   -0.113921
    93  H    0.029610
    94  N   -0.428235
    95  C    0.194978
    96  C   -0.167241
    97  C   -0.071105
    98  C    0.113817
    99  C    0.058715
   100  C    0.066957
   101  O   -0.250769
   102  C   -0.004158
   103  N   -0.356357
   104  C    0.033194
   105  C   -0.062115
   106  C   -0.056367
   107  C    0.068729
   108  C    0.048394
   109  C   -0.039087
   110  C   -0.040941
   111  N   -0.439384
   112  C    0.135294
   113  C   -0.196870
   114  C   -0.015683
   115  C    0.167578
   116  C    0.061260
   117  C    0.109501
   118  O   -0.199653
   119  C   -0.077038
   120  C    0.279411
   121  O   -0.226419
   122  O   -0.373830
   123  C    0.131564
   124  H   -0.012455
   125  H    0.026171
   126  H   -0.012803
   127  H    0.024519
   128  H    0.020068
   129  H    0.029348
   130  H    0.045933
   131  H    0.057427
   132  H    0.021565
   133  H    0.024524
   134  H    0.065211
   135  H    0.071819
   136  H    0.043681
   137  H    0.040993
   138  H    0.041508
   139  H    0.037683
   140  H    0.075181
   141  H    0.054586
   142  H    0.039203
   143  H    0.033357
   144  H    0.015967
   145  H    0.046695
   146  H    0.047936
   147  H    0.025311
   148  H    0.022966
   149  H    0.043272
   150  H    0.039861
   151  H    0.045446
   152  H    0.060022
   153  H    0.054166
   154  H    0.037943
   155  H    0.081384
   156  H    0.047548
   157  H    0.063834
   158  H    0.058097
 Sum of Mulliken charges =  -0.00000

 Dipole moment (field-independent basis, Debye):
    X=              0.0890    Y=              5.1299    Z=             -4.0570  Tot=              6.5409
 Quadrupole moment (field-independent basis, Debye-Ang):
   XX=           -144.5180   YY=           -591.1167   ZZ=           -462.4188
   XY=             34.9800   XZ=             44.0589   YZ=             -6.1195

 Normal termination of Gaussian 16 at Sun Sep 19 19:19:19 2021.
