 Gaussian 16, Revision A.03,
 Gaussian 16:  ES64L-G16RevA.03 25-Dec-2016

 --------------------------------
 #p wB97XD/Def2SVP td=(nstates=5)
 --------------------------------

 --------------------------------
 TDDFT excited states in gaussian
 --------------------------------
 Symbolic Z-matrix:
 Charge =  0 Multiplicity = 1

                         Standard orientation:
 ---------------------------------------------------------------------
 Center     Atomic      Atomic             Coordinates (Angstroms)
 Number     Number       Type             X           Y           Z
 ---------------------------------------------------------------------
      1         12           0       16.984656    0.652558   -0.202484
      2          6           0       16.235318   -2.041070    1.909459
      3          6           0       13.857312    2.067077    0.666335
      4          6           0       17.522788    3.096863   -2.497102
      5          6           0       19.612361   -1.178338   -1.492450
      6          7           0       15.384575    0.132317    1.240085
      7          6           0       15.423086   -0.954286    2.118612
      8          6           0       14.382453   -0.720331    3.272308
      9          6           0       13.616042    0.514356    2.783948
     10          6           0       14.299878    0.921263    1.432191
     11          6           0       12.112847    0.177327    2.591466
     12          6           0       15.138942   -0.570098    4.586520
     13          6           0       14.429990   -0.972954    5.869206
     14          1           0       12.903089   -1.206223    5.818720
     15          7           0       15.890281    2.365554   -0.851663
     16          6           0       14.616537    2.751692   -0.392814
     17          6           0       14.161598    3.941822   -1.089967
     18          6           0       15.222516    4.346104   -1.992540
     19          6           0       16.263455    3.244167   -1.818760
     20          6           0       12.878565    4.708767   -0.745202
     21          6           0       15.339709    5.545083   -2.913927
     22          8           0       16.347547    5.709518   -3.588408
     23          6           0       14.317948    6.612507   -2.822435
     24          7           0       18.442435    0.923795   -1.734624
     25          6           0       18.497458    2.062844   -2.479573
     26          6           0       19.794388    2.069442   -3.330430
     27          6           0       20.520137    0.716045   -2.967719
     28          6           0       19.546477    0.127963   -1.913870
     29          6           0       19.453905    2.213173   -4.824595
     30          6           0       21.932922    0.877826   -2.346448
     31          6           0       22.985234    0.594367   -3.413971
     32          7           0       17.774620   -1.274028    0.002126
     33          6           0       18.786269   -1.934271   -0.611575
     34          6           0       18.717747   -3.350748   -0.177220
     35          6           0       17.834582   -3.421616    0.860060
     36          6           0       17.252952   -2.128521    0.894855
     37          6           0       19.677425   -4.395213   -0.722054
     38          6           0       17.245763   -4.259513    1.913231
     39          8           0       17.446828   -5.441511    2.164816
     40          6           0       16.278337   -3.354812    2.651727
     41          6           0       15.011097   -4.100218    2.711699
     42          8           0       14.144796   -4.277492    1.844616
     43          8           0       14.938349   -4.691117    3.956527
     44          6           0       13.792605   -5.537712    4.208874
     45          1           0       12.924854    2.511492    1.019920
     46          1           0       17.668501    3.973725   -3.131454
     47          1           0       20.403443   -1.721986   -2.013258
     48          1           0       13.800736   -1.640014    3.199143
     49          1           0       13.619738    1.214769    3.619062
     50          1           0       11.772660    0.169161    1.555804
     51          1           0       11.562361    1.048575    2.945291
     52          1           0       11.848443   -0.788182    3.022287
     53          1           0       15.466776    0.469878    4.586787
     54          1           0       16.078921   -1.115950    4.514431
     55          1           0       14.664060   -0.239612    6.639723
     56          1           0       14.961259   -1.891255    6.121818
     57          1           0       12.237545    4.198172   -0.026281
     58          1           0       12.289785    4.871026   -1.649025
     59          1           0       13.151515    5.713099   -0.423451
     60          1           0       14.389205    7.076825   -1.838537
     61          1           0       13.344381    6.253608   -3.156205
     62          1           0       14.537240    7.441449   -3.495460
     63          1           0       20.361229    2.958785   -3.055954
     64          1           0       20.474188    0.118262   -3.878957
     65          1           0       19.818539    1.427875   -5.486118
     66          1           0       20.017507    3.120519   -5.040743
     67          1           0       18.387537    2.225773   -5.048233
     68          1           0       22.138915    0.056274   -1.660126
     69          1           0       22.109563    1.858889   -1.905115
     70          1           0       23.684795    1.423584   -3.309669
     71          1           0       22.629915    0.716317   -4.436903
     72          1           0       23.503891   -0.360054   -3.319350
     73          1           0       20.246632   -4.092097   -1.601201
     74          1           0       19.181639   -5.334592   -0.963641
     75          1           0       20.482543   -4.525922    0.001855
     76          1           0       16.691908   -3.168026    3.642240
     77          1           0       13.719750   -6.246644    3.383729
     78          1           0       12.852861   -4.989539    4.279363
     79          1           0       14.124493   -6.219958    4.990756
     80         12           0      -16.731748    0.317313    0.633913
     81          6           0      -16.648556   -2.164781   -1.751159
     82          6           0      -13.367517   -0.081937    1.066161
     83          6           0      -16.673090    3.382834    1.863488
     84          6           0      -20.177174    0.621501    0.030596
     85          7           0      -15.158772   -0.688209   -0.622960
     86          6           0      -15.381674   -1.807420   -1.358959
     87          6           0      -14.115911   -2.529554   -1.715027
     88          6           0      -13.222817   -2.117792   -0.500169
     89          6           0      -13.988391   -0.934875    0.074023
     90          6           0      -12.964691   -3.288463    0.491248
     91          6           0      -13.491587   -2.014517   -3.107470
     92          6           0      -12.768313   -3.133936   -3.990800
     93          1           0      -11.326566   -2.726211   -4.167335
     94          7           0      -15.247538    1.397028    1.541978
     95          6           0      -13.918355    1.156194    1.570778
     96          6           0      -13.213083    2.239359    2.244227
     97          6           0      -14.171067    3.239103    2.510699
     98          6           0      -15.436973    2.683599    1.955024
     99          6           0      -11.683327    2.179227    2.473365
    100          6           0      -13.804733    4.606218    3.017338
    101          8           0      -12.658161    4.850043    3.289672
    102          6           0      -14.795090    5.775479    3.177395
    103          7           0      -18.240240    1.798999    1.050843
    104          6           0      -17.954365    2.929944    1.523125
    105          6           0      -19.104358    3.867548    1.549970
    106          6           0      -20.276440    2.983984    0.967313
    107          6           0      -19.560137    1.741462    0.659428
    108          6           0      -19.318776    4.481960    2.974519
    109          6           0      -20.942600    3.646504   -0.326120
    110          6           0      -22.369894    3.142947   -0.743952
    111          7           0      -18.179711   -0.598234   -0.516979
    112          6           0      -19.551485   -0.430472   -0.571772
    113          6           0      -20.154162   -1.454019   -1.379913
    114          6           0      -19.025323   -2.217260   -1.841997
    115          6           0      -17.879768   -1.597230   -1.381700
    116          6           0      -21.607047   -1.663852   -1.661772
    117          6           0      -18.658214   -3.360713   -2.603840
    118          8           0      -19.274485   -4.213753   -3.255443
    119          6           0      -17.102404   -3.264073   -2.738507
    120          6           0      -16.567910   -4.636792   -2.499462
    121          8           0      -16.318165   -5.463495   -3.387943
    122          8           0      -16.451665   -4.860323   -1.155278
    123          6           0      -15.963350   -6.250813   -0.936302
    124          1           0      -12.330452   -0.213442    1.383040
    125          1           0      -16.610817    4.412611    2.219891
    126          1           0      -21.215911    0.800766   -0.257262
    127          1           0      -14.390374   -3.582073   -1.656881
    128          1           0      -12.233685   -1.840537   -0.865027
    129          1           0      -11.900672   -3.523046    0.501346
    130          1           0      -13.462701   -4.168481    0.082924
    131          1           0      -13.389511   -3.002089    1.452830
    132          1           0      -12.842371   -1.140892   -3.051171
    133          1           0      -14.276716   -1.611962   -3.746679
    134          1           0      -13.254493   -3.057126   -4.963453
    135          1           0      -12.861135   -4.184646   -3.715801
    136          1           0      -11.118828    2.995379    2.022588
    137          1           0      -11.225460    1.236124    2.172950
    138          1           0      -11.528541    2.183119    3.551798
    139          1           0      -15.567410    5.586571    3.922289
    140          1           0      -15.261320    6.086343    2.242127
    141          1           0      -14.163710    6.638764    3.389825
    142          1           0      -18.819754    4.629673    0.824648
    143          1           0      -21.069261    2.662896    1.642488
    144          1           0      -19.238149    5.563314    2.865921
    145          1           0      -18.592718    4.104076    3.694567
    146          1           0      -20.345102    4.421845    3.336321
    147          1           0      -20.295842    3.505875   -1.192420
    148          1           0      -20.979607    4.713532   -0.111550
    149          1           0      -23.217390    3.826392   -0.788705
    150          1           0      -22.729018    2.390191   -0.043509
    151          1           0      -22.330293    2.674579   -1.727411
    152          1           0      -22.309170   -1.063675   -1.083389
    153          1           0      -21.673709   -2.728271   -1.440305
    154          1           0      -21.607299   -1.525019   -2.742971
    155          1           0      -16.757997   -2.884486   -3.701076
    156          1           0      -16.747705   -6.955677   -1.210234
    157          1           0      -15.838494   -6.492364    0.119261
    158          1           0      -15.033388   -6.364155   -1.493851
 ---------------------------------------------------------------------

 SCF Done:  E(RwB97XD) =  -4070.59385515     A.U. after   19 cycles

 Excitation energies and oscillator strengths:

 Excited State   1:      Singlet-A      1.6258 eV  762.62 nm  f=0.3929  <S**2>=0.000
     310 -> 316       -0.17879
     312 -> 314        0.68432
     310 <- 316       -0.11338
 This state for optimization and/or second-order correction.
 Total Energy, E(TD-HF/TD-DFT) =  -4070.53410909
 Copying the excited state density for this state as the 1-particle RhoCI density.

 Excited State   2:      Singlet-A      1.6573 eV  748.10 nm  f=0.3603  <S**2>=0.000
     309 -> 315       -0.16760
     311 -> 313        0.68528
     309 <- 315       -0.10878

 Excited State   3:      Singlet-A      2.1420 eV  578.82 nm  f=0.1185  <S**2>=0.000
     310 -> 314        0.64309
     312 -> 316        0.27659

 Excited State   4:      Singlet-A      2.1682 eV  571.82 nm  f=0.1040  <S**2>=0.000
     309 -> 313        0.63808
     311 -> 315        0.28222

 Excited State   5:      Singlet-A      3.4141 eV  363.15 nm  f=0.0013  <S**2>=0.000
     304 -> 313       -0.19842
     308 -> 313        0.62657
     308 -> 318        0.11457

 The electronic state is 1-A.
 Alpha  occ. eigenvalues --  -46.95585 -46.95453 -19.30744 -19.29677 -19.24732
 Alpha  occ. eigenvalues --  -19.24625 -19.24314 -19.24283 -19.23988 -19.22896
 Alpha  occ. eigenvalues --  -14.46791 -14.46696 -14.46516 -14.46333 -14.44981
 Alpha  occ. eigenvalues --  -14.44761 -14.43750 -14.43153 -10.43206 -10.42502
 Alpha  occ. eigenvalues --  -10.39814 -10.39484 -10.39384 -10.38031 -10.36465
 Alpha  occ. eigenvalues --  -10.36082 -10.35894 -10.35447 -10.35313 -10.35274
 Alpha  occ. eigenvalues --  -10.35174 -10.35114 -10.34705 -10.34687 -10.34662
 Alpha  occ. eigenvalues --  -10.34183 -10.34042 -10.33942 -10.33781 -10.33666
 Alpha  occ. eigenvalues --  -10.33295 -10.33010 -10.32739 -10.32537 -10.32456
 Alpha  occ. eigenvalues --  -10.32420 -10.32291 -10.32281 -10.32268 -10.32246
 Alpha  occ. eigenvalues --  -10.32189 -10.32127 -10.31870 -10.31862 -10.31829
 Alpha  occ. eigenvalues --  -10.31813 -10.31762 -10.31755 -10.31703 -10.31641
 Alpha  occ. eigenvalues --  -10.31610 -10.31597 -10.31524 -10.31444 -10.31398
 Alpha  occ. eigenvalues --  -10.31316 -10.31259 -10.30907 -10.30719 -10.30683
 Alpha  occ. eigenvalues --  -10.30672 -10.30619 -10.30615 -10.30524 -10.30398
 Alpha  occ. eigenvalues --  -10.30332 -10.30206 -10.30119 -10.30102 -10.30026
 Alpha  occ. eigenvalues --  -10.29404 -10.29323 -10.29124 -10.28804 -10.28754
 Alpha  occ. eigenvalues --  -10.28393  -3.21597  -3.21304  -1.95173  -1.94904
 Alpha  occ. eigenvalues --   -1.94734  -1.94559  -1.94383  -1.94302  -1.18089
 Alpha  occ. eigenvalues --   -1.17950  -1.14267  -1.12719  -1.12210  -1.10274
 Alpha  occ. eigenvalues --   -1.09071  -1.09045  -1.08607  -1.06703  -1.06300
 Alpha  occ. eigenvalues --   -1.05990  -1.04825  -1.04795  -1.04642  -1.03700
 Alpha  occ. eigenvalues --   -0.95325  -0.94436  -0.91622  -0.91120  -0.90629
 Alpha  occ. eigenvalues --   -0.90628  -0.90146  -0.89908  -0.89257  -0.89039
 Alpha  occ. eigenvalues --   -0.88954  -0.88802  -0.88538  -0.87516  -0.86254
 Alpha  occ. eigenvalues --   -0.86227  -0.85752  -0.85690  -0.84623  -0.84337
 Alpha  occ. eigenvalues --   -0.84192  -0.83763  -0.82843  -0.82838  -0.82294
 Alpha  occ. eigenvalues --   -0.81992  -0.80363  -0.80099  -0.79838  -0.79189
 Alpha  occ. eigenvalues --   -0.78730  -0.78709  -0.77882  -0.77855  -0.77460
 Alpha  occ. eigenvalues --   -0.76486  -0.74659  -0.74511  -0.74233  -0.72989
 Alpha  occ. eigenvalues --   -0.72399  -0.71345  -0.71040  -0.70401  -0.70152
 Alpha  occ. eigenvalues --   -0.69872  -0.69690  -0.69084  -0.68763  -0.67324
 Alpha  occ. eigenvalues --   -0.67318  -0.66877  -0.66833  -0.66649  -0.66475
 Alpha  occ. eigenvalues --   -0.65887  -0.64394  -0.64108  -0.62593  -0.62155
 Alpha  occ. eigenvalues --   -0.61602  -0.61582  -0.61202  -0.61058  -0.60785
 Alpha  occ. eigenvalues --   -0.60750  -0.60338  -0.60009  -0.59646  -0.58985
 Alpha  occ. eigenvalues --   -0.58595  -0.58121  -0.57852  -0.57716  -0.57662
 Alpha  occ. eigenvalues --   -0.57021  -0.56942  -0.56721  -0.56083  -0.55564
 Alpha  occ. eigenvalues --   -0.55559  -0.55491  -0.55319  -0.55242  -0.54947
 Alpha  occ. eigenvalues --   -0.54856  -0.54756  -0.54678  -0.54346  -0.53955
 Alpha  occ. eigenvalues --   -0.53813  -0.53663  -0.53626  -0.53317  -0.53132
 Alpha  occ. eigenvalues --   -0.53126  -0.52696  -0.52544  -0.52432  -0.52324
 Alpha  occ. eigenvalues --   -0.52186  -0.51862  -0.51834  -0.51675  -0.51556
 Alpha  occ. eigenvalues --   -0.51221  -0.51195  -0.51074  -0.50958  -0.50855
 Alpha  occ. eigenvalues --   -0.50617  -0.50564  -0.50256  -0.50073  -0.49791
 Alpha  occ. eigenvalues --   -0.49719  -0.49581  -0.49371  -0.49346  -0.49108
 Alpha  occ. eigenvalues --   -0.48904  -0.48754  -0.48643  -0.48306  -0.48219
 Alpha  occ. eigenvalues --   -0.48177  -0.47958  -0.47826  -0.47825  -0.47694
 Alpha  occ. eigenvalues --   -0.47343  -0.47166  -0.47100  -0.46902  -0.46700
 Alpha  occ. eigenvalues --   -0.46575  -0.46383  -0.46364  -0.46313  -0.46264
 Alpha  occ. eigenvalues --   -0.46146  -0.46133  -0.45952  -0.45527  -0.45358
 Alpha  occ. eigenvalues --   -0.45299  -0.45141  -0.45127  -0.44976  -0.44893
 Alpha  occ. eigenvalues --   -0.44802  -0.44619  -0.44533  -0.44251  -0.44090
 Alpha  occ. eigenvalues --   -0.43846  -0.43827  -0.43750  -0.43430  -0.43357
 Alpha  occ. eigenvalues --   -0.43194  -0.43120  -0.43000  -0.42677  -0.42311
 Alpha  occ. eigenvalues --   -0.41988  -0.41871  -0.41523  -0.40824  -0.40588
 Alpha  occ. eigenvalues --   -0.40346  -0.40240  -0.39911  -0.39888  -0.39677
 Alpha  occ. eigenvalues --   -0.39627  -0.38900  -0.38772  -0.38612  -0.38418
 Alpha  occ. eigenvalues --   -0.38308  -0.37764  -0.36986  -0.36303  -0.36054
 Alpha  occ. eigenvalues --   -0.35819  -0.35339  -0.34875  -0.33993  -0.33605
 Alpha  occ. eigenvalues --   -0.33556  -0.33510  -0.33389  -0.32804  -0.32459
 Alpha  occ. eigenvalues --   -0.32174  -0.32020  -0.31042  -0.26158  -0.25728
 Alpha  occ. eigenvalues --   -0.22997  -0.22741
 Alpha virt. eigenvalues --   -0.07129  -0.07018   0.00123   0.00459   0.02231
 Alpha virt. eigenvalues --    0.02282   0.03988   0.04136   0.05127   0.05529
 Alpha virt. eigenvalues --    0.06956   0.07382   0.07780   0.08119   0.08213

 Mulliken charges:
               1
     1  Mg   0.955729
     2  C   -0.016267
     3  C   -0.071969
     4  C   -0.061456
     5  C   -0.075388
     6  N   -0.370255
     7  C   -0.076359
     8  C   -0.019308
     9  C   -0.128257
    10  C    0.112509
    11  C    0.004213
    12  C    0.005654
    13  C   -0.087397
    14  H    0.044090
    15  N   -0.442740
    16  C    0.155630
    17  C   -0.170746
    18  C   -0.084782
    19  C    0.094752
    20  C    0.080161
    21  C    0.059034
    22  O   -0.231338
    23  C   -0.015736
    24  N   -0.372751
    25  C    0.091423
    26  C   -0.107434
    27  C   -0.062961
    28  C    0.055604
    29  C    0.009036
    30  C    0.009712
    31  C   -0.064275
    32  N   -0.405575
    33  C    0.114592
    34  C   -0.207856
    35  C   -0.016089
    36  C    0.137496
    37  C    0.069682
    38  C    0.119910
    39  O   -0.196957
    40  C   -0.033043
    41  C    0.261233
    42  O   -0.260775
    43  O   -0.368886
    44  C    0.150861
    45  H   -0.002625
    46  H    0.022732
    47  H   -0.005001
    48  H    0.035179
    49  H    0.041276
    50  H    0.033204
    51  H    0.028423
    52  H    0.050168
    53  H    0.018847
    54  H    0.026463
    55  H    0.050745
    56  H    0.056878
    57  H    0.044918
    58  H    0.041674
    59  H    0.050581
    60  H    0.068900
    61  H    0.058684
    62  H    0.044883
    63  H    0.042169
    64  H    0.041194
    65  H    0.028425
    66  H    0.042391
    67  H    0.055150
    68  H    0.035722
    69  H    0.040887
    70  H    0.024677
    71  H    0.026480
    72  H    0.047225
    73  H    0.017845
    74  H    0.060237
    75  H    0.049671
    76  H    0.082141
    77  H    0.044836
    78  H    0.059099
    79  H    0.053199
    80  Mg   0.966748
    81  C    0.016020
    82  C   -0.089560
    83  C   -0.073333
    84  C   -0.081714
    85  N   -0.340737
    86  C   -0.050249
    87  C   -0.024405
    88  C   -0.146539
    89  C    0.111233
    90  C    0.045279
    91  C    0.022919
    92  C   -0.129962
    93  H    0.028911
    94  N   -0.460453
    95  C    0.119295
    96  C   -0.139277
    97  C   -0.060684
    98  C    0.168425
    99  C    0.086762
   100  C    0.018653
   101  O   -0.211166
   102  C   -0.019670
   103  N   -0.295307
   104  C    0.031394
   105  C   -0.087910
   106  C   -0.051380
   107  C    0.005330
   108  C    0.018798
   109  C   -0.018560
   110  C   -0.065362
   111  N   -0.451042
   112  C    0.151381
   113  C   -0.200716
   114  C   -0.007526
   115  C    0.105768
   116  C    0.098588
   117  C    0.085800
   118  O   -0.226142
   119  C   -0.061168
   120  C    0.241364
   121  O   -0.258029
   122  O   -0.370147
   123  C    0.138464
   124  H    0.002844
   125  H   -0.045539
   126  H   -0.027192
   127  H    0.026075
   128  H    0.042452
   129  H    0.041634
   130  H    0.029840
   131  H    0.040796
   132  H    0.040648
   133  H    0.032338
   134  H    0.057578
   135  H    0.062964
   136  H    0.069706
   137  H    0.019245
   138  H    0.052765
   139  H    0.067242
   140  H    0.060714
   141  H    0.051448
   142  H    0.046663
   143  H    0.041958
   144  H    0.030551
   145  H    0.057198
   146  H    0.038731
   147  H    0.041078
   148  H    0.036544
   149  H    0.040116
   150  H    0.033039
   151  H    0.044214
   152  H    0.043261
   153  H    0.065039
   154  H    0.064758
   155  H    0.078475
   156  H    0.064921
   157  H    0.047298
   158  H    0.060503
 Sum of Mulliken charges =  -0.00000

 Dipole moment (field-independent basis, Debye):
    X=             -1.1645    Y=              8.8085    Z=              6.4223  Tot=             10.9631
 Quadrupole moment (field-independent basis, Debye-Ang):
   XX=           -469.8367   YY=           -532.1552   ZZ=           -521.7168
   XY=            -40.4828   XZ=            -71.3199   YZ=            -19.3329

 Normal termination of Gaussian 16 at Mon Sep 20 00:49:22 2021.
