 Gaussian 16, Revision A.03,
 Gaussian 16:  ES64L-G16RevA.03 25-Dec-2016

 --------------------------------
 #p wB97XD/Def2SVP td=(nstates=5)
 --------------------------------

 --------------------------------
 TDDFT excited states in gaussian
 --------------------------------
 Symbolic Z-matrix:
 Charge =  0 Multiplicity = 1

                         Standard orientation:
 ---------------------------------------------------------------------
 Center     Atomic      Atomic             Coordinates (Angstroms)
 Number     Number       Type             X           Y           Z
 ---------------------------------------------------------------------
      1         12           0      -13.164533   -0.734595    0.278767
      2          6           0      -13.746897    2.434735   -1.081062
      3          6           0      -12.584184    0.882310    3.293201
      4          6           0      -12.205247   -3.611614    1.450861
      5          6           0      -13.583881   -2.097145   -2.963343
      6          7           0      -12.770272    1.495928    0.942231
      7          6           0      -13.230139    2.545492    0.253494
      8          6           0      -13.109331    3.749868    1.126154
      9          6           0      -12.317978    3.270093    2.367583
     10          6           0      -12.580195    1.782547    2.240084
     11          6           0      -10.833570    3.613215    2.504561
     12          6           0      -14.505683    4.330371    1.516126
     13          6           0      -14.765477    5.861599    1.341689
     14          1           0      -13.570815    6.856409    1.477838
     15          7           0      -12.616396   -1.325591    2.200752
     16          6           0      -12.632197   -0.506190    3.321687
     17          6           0      -12.333674   -1.341754    4.438959
     18          6           0      -12.081504   -2.674103    3.918571
     19          6           0      -12.300806   -2.612527    2.481212
     20          6           0      -12.178672   -0.842123    5.892039
     21          6           0      -11.599575   -3.956786    4.655451
     22          8           0      -11.403004   -5.004495    4.126226
     23          6           0      -11.442996   -3.839193    6.158795
     24          7           0      -12.953861   -2.561772   -0.651697
     25          6           0      -12.468624   -3.607935    0.053618
     26          6           0      -12.340919   -4.918848   -0.770259
     27          6           0      -13.049328   -4.463144   -2.117632
     28          6           0      -13.246873   -2.963873   -1.927887
     29          6           0      -10.773327   -5.369085   -0.899000
     30          6           0      -14.314612   -5.303495   -2.477729
     31          6           0      -15.673413   -4.732304   -2.113934
     32          7           0      -13.622376   -0.046511   -1.681935
     33          6           0      -13.842518   -0.718416   -2.853958
     34          6           0      -14.224903    0.288189   -3.905553
     35          6           0      -14.195204    1.529557   -3.230768
     36          6           0      -13.782295    1.305588   -1.875647
     37          6           0      -14.402133    0.056955   -5.381668
     38          6           0      -14.395115    2.968949   -3.379922
     39          8           0      -14.713544    3.589778   -4.398131
     40          6           0      -14.270438    3.549600   -1.974448
     41          6           0      -13.311133    4.699076   -2.093223
     42          8           0      -12.100436    4.597327   -2.169850
     43          8           0      -14.058523    5.773194   -2.287413
     44          6           0      -13.426260    6.960394   -2.840885
     45          1           0      -12.261763    1.392044    4.202999
     46          1           0      -12.063442   -4.613570    1.860502
     47          1           0      -13.727803   -2.520834   -3.959762
     48          1           0      -12.570788    4.522568    0.578431
     49          1           0      -12.785821    3.753332    3.225414
     50          1           0      -10.405393    4.234782    1.717963
     51          1           0      -10.239913    2.700597    2.564407
     52          1           0      -10.734969    4.144082    3.451170
     53          1           0      -14.837241    4.034720    2.511276
     54          1           0      -15.124114    3.771461    0.813935
     55          1           0      -15.489845    6.084183    2.126189
     56          1           0      -15.224632    6.026217    0.367252
     57          1           0      -11.235801   -1.139027    6.351429
     58          1           0      -12.903994   -1.298162    6.566040
     59          1           0      -12.291501    0.235994    6.013629
     60          1           0      -12.326832   -3.425758    6.645041
     61          1           0      -10.542159   -3.258475    6.357581
     62          1           0      -11.164543   -4.802170    6.586820
     63          1           0      -12.877324   -5.751982   -0.316435
     64          1           0      -12.427730   -4.616800   -2.999622
     65          1           0      -10.520597   -5.166512   -1.939852
     66          1           0      -10.621643   -6.445093   -0.810731
     67          1           0      -10.086168   -4.763542   -0.306963
     68          1           0      -14.227625   -6.185452   -1.843000
     69          1           0      -14.317678   -5.629645   -3.517586
     70          1           0      -15.532107   -4.341632   -1.105473
     71          1           0      -16.295877   -5.625661   -2.158713
     72          1           0      -16.086233   -3.882539   -2.657001
     73          1           0      -14.172880   -0.928086   -5.788279
     74          1           0      -13.767638    0.752681   -5.930926
     75          1           0      -15.425188    0.365787   -5.594010
     76          1           0      -15.167248    4.046538   -1.603946
     77          1           0      -12.389736    6.922445   -3.174437
     78          1           0      -13.418690    7.641511   -1.989377
     79          1           0      -14.180647    7.517988   -3.396080
     80         12           0       12.682190   -0.621714   -0.480302
     81          6           0       14.793076    2.121488   -0.122236
     82          6           0       10.101217    1.187843    0.709449
     83          6           0       10.837420   -3.453798   -0.440246
     84          6           0       15.461432   -2.524628   -1.218220
     85          7           0       12.509547    1.467358    0.238955
     86          6           0       13.454942    2.450257    0.091674
     87          6           0       12.896869    3.765755    0.482481
     88          6           0       11.418597    3.530429    0.813691
     89          6           0       11.264805    1.967303    0.570945
     90          6           0       10.878460    4.008657    2.152518
     91          6           0       13.149590    4.889066   -0.675277
     92          6           0       14.014194    6.117798   -0.307938
     93          1           0       13.650835    7.495878   -0.803685
     94          7           0       10.716227   -1.050392   -0.059040
     95          6           0        9.781938   -0.158745    0.446244
     96          6           0        8.557507   -0.834370    0.678931
     97          6           0        8.742411   -2.205621    0.354149
     98          6           0       10.137755   -2.281398   -0.090712
     99          6           0        7.297550    0.021169    1.094865
    100          6           0        7.697233   -3.304427    0.538806
    101          8           0        7.881445   -4.513061    0.329807
    102          6           0        6.327798   -2.945013    0.916957
    103          7           0       13.085891   -2.764877   -0.540610
    104          6           0       12.172459   -3.710223   -0.620648
    105          6           0       12.827550   -5.106627   -0.715715
    106          6           0       14.160771   -4.661713   -1.436410
    107          6           0       14.251556   -3.184740   -1.066059
    108          6           0       13.150319   -5.933397    0.583723
    109          6           0       14.239120   -4.882185   -3.022815
    110          6           0       13.235507   -4.211974   -3.868774
    111          7           0       14.809661   -0.358356   -0.621803
    112          6           0       15.844806   -1.253242   -0.956539
    113          6           0       17.093081   -0.559451   -0.941173
    114          6           0       16.768069    0.728204   -0.563626
    115          6           0       15.340078    0.824101   -0.484558
    116          6           0       18.412321   -1.157934   -1.005330
    117          6           0       17.276587    2.014449   -0.461633
    118          8           0       18.426974    2.453856   -0.559458
    119          6           0       16.070723    2.986664   -0.074780
    120          6           0       16.329834    3.396490    1.337297
    121          8           0       16.444735    2.751469    2.358318
    122          8           0       16.460154    4.723530    1.292039
    123          6           0       16.700443    5.405840    2.605664
    124          1           0        9.311979    1.921981    0.884230
    125          1           0       10.168031   -4.307106   -0.562039
    126          1           0       16.321980   -3.126032   -1.517893
    127          1           0       13.451116    4.046360    1.377262
    128          1           0       10.806219    4.001646    0.045212
    129          1           0       11.007165    3.061811    2.675615
    130          1           0        9.868935    4.419782    2.136631
    131          1           0       11.423535    4.765002    2.716607
    132          1           0       12.183544    5.225455   -1.050544
    133          1           0       13.722257    4.519000   -1.526063
    134          1           0       14.987044    5.946426   -0.769601
    135          1           0       14.230768    6.161726    0.758599
    136          1           0        6.865601   -0.418080    1.993877
    137          1           0        6.677566   -0.239981    0.237153
    138          1           0        7.447134    1.065477    1.369172
    139          1           0        6.313065   -2.391216    1.854652
    140          1           0        5.863572   -3.874941    1.244474
    141          1           0        5.730419   -2.489586    0.126713
    142          1           0       12.312297   -5.670803   -1.493223
    143          1           0       14.919379   -5.297032   -0.979882
    144          1           0       13.531315   -5.359438    1.427566
    145          1           0       13.872707   -6.663992    0.217961
    146          1           0       12.259169   -6.447436    0.944856
    147          1           0       14.150930   -5.928152   -3.317565
    148          1           0       15.112709   -4.386676   -3.446288
    149          1           0       13.629571   -3.200970   -3.962176
    150          1           0       12.211641   -4.114164   -3.506614
    151          1           0       13.100096   -4.562575   -4.891400
    152          1           0       18.594933   -1.481490    0.020091
    153          1           0       19.215890   -0.490554   -1.315411
    154          1           0       18.492437   -1.952975   -1.747484
    155          1           0       15.941287    3.814559   -0.771954
    156          1           0       15.749278    5.886301    2.835980
    157          1           0       17.529915    6.106032    2.509251
    158          1           0       16.917300    4.773598    3.467137
 ---------------------------------------------------------------------

 SCF Done:  E(RwB97XD) =  -4070.58563345     A.U. after   19 cycles

 Excitation energies and oscillator strengths:

 Excited State   1:      Singlet-A      1.6463 eV  753.12 nm  f=0.3785  <S**2>=0.000
     309 -> 315        0.18111
     311 -> 313        0.68285
     309 <- 315        0.11541
 This state for optimization and/or second-order correction.
 Total Energy, E(TD-HF/TD-DFT) =  -4070.52513421
 Copying the excited state density for this state as the 1-particle RhoCI density.

 Excited State   2:      Singlet-A      1.6772 eV  739.23 nm  f=0.3913  <S**2>=0.000
     310 -> 316       -0.19167
     312 -> 314        0.68085
     310 <- 316       -0.11852

 Excited State   3:      Singlet-A      2.1206 eV  584.67 nm  f=0.1306  <S**2>=0.000
     309 -> 313        0.64938
     311 -> 315       -0.26633

 Excited State   4:      Singlet-A      2.1599 eV  574.03 nm  f=0.0992  <S**2>=0.000
     310 -> 314        0.64012
     312 -> 316        0.28506

 Excited State   5:      Singlet-A      3.6913 eV  335.88 nm  f=0.0000  <S**2>=0.000
     312 -> 313        0.70700

 The electronic state is 1-A.
 Alpha  occ. eigenvalues --  -46.95655 -46.95178 -19.31566 -19.30261 -19.24697
 Alpha  occ. eigenvalues --  -19.24604 -19.24014 -19.23665 -19.23609 -19.23293
 Alpha  occ. eigenvalues --  -14.46561 -14.46412 -14.46401 -14.46238 -14.44288
 Alpha  occ. eigenvalues --  -14.44002 -14.43554 -14.43349 -10.43097 -10.42438
 Alpha  occ. eigenvalues --  -10.39613 -10.39004 -10.38436 -10.38178 -10.35881
 Alpha  occ. eigenvalues --  -10.35461 -10.35449 -10.35375 -10.35214 -10.35186
 Alpha  occ. eigenvalues --  -10.34834 -10.34803 -10.34606 -10.34278 -10.34081
 Alpha  occ. eigenvalues --  -10.33796 -10.33752 -10.33679 -10.33584 -10.33538
 Alpha  occ. eigenvalues --  -10.33401 -10.33100 -10.32977 -10.32966 -10.32782
 Alpha  occ. eigenvalues --  -10.32591 -10.32555 -10.32481 -10.32455 -10.32438
 Alpha  occ. eigenvalues --  -10.32272 -10.32270 -10.32184 -10.31985 -10.31934
 Alpha  occ. eigenvalues --  -10.31825 -10.31666 -10.31576 -10.31522 -10.31445
 Alpha  occ. eigenvalues --  -10.31441 -10.31246 -10.31174 -10.31172 -10.31101
 Alpha  occ. eigenvalues --  -10.30766 -10.30679 -10.30650 -10.30509 -10.30473
 Alpha  occ. eigenvalues --  -10.30387 -10.30309 -10.30303 -10.30295 -10.30097
 Alpha  occ. eigenvalues --  -10.29999 -10.29989 -10.29910 -10.29847 -10.29829
 Alpha  occ. eigenvalues --  -10.29407 -10.29280 -10.29082 -10.28932 -10.28681
 Alpha  occ. eigenvalues --  -10.28521  -3.21519  -3.21085  -1.95109  -1.94680
 Alpha  occ. eigenvalues --   -1.94616  -1.94505  -1.94243  -1.94013  -1.20624
 Alpha  occ. eigenvalues --   -1.19177  -1.13563  -1.11974  -1.11301  -1.10955
 Alpha  occ. eigenvalues --   -1.10804  -1.09545  -1.07410  -1.07078  -1.06284
 Alpha  occ. eigenvalues --   -1.05830  -1.05379  -1.04727  -1.04636  -1.03908
 Alpha  occ. eigenvalues --   -0.95459  -0.94178  -0.91102  -0.90638  -0.90600
 Alpha  occ. eigenvalues --   -0.90543  -0.90296  -0.89985  -0.89864  -0.89506
 Alpha  occ. eigenvalues --   -0.89079  -0.88781  -0.88283  -0.87484  -0.86548
 Alpha  occ. eigenvalues --   -0.86435  -0.86131  -0.85672  -0.84971  -0.84553
 Alpha  occ. eigenvalues --   -0.83908  -0.83492  -0.83402  -0.82752  -0.82679
 Alpha  occ. eigenvalues --   -0.82010  -0.80691  -0.79927  -0.79576  -0.79363
 Alpha  occ. eigenvalues --   -0.79289  -0.78963  -0.78279  -0.77876  -0.77275
 Alpha  occ. eigenvalues --   -0.77086  -0.75459  -0.74744  -0.73745  -0.73643
 Alpha  occ. eigenvalues --   -0.71507  -0.71320  -0.71020  -0.70941  -0.70055
 Alpha  occ. eigenvalues --   -0.69712  -0.69148  -0.68116  -0.67709  -0.67360
 Alpha  occ. eigenvalues --   -0.67302  -0.66953  -0.66756  -0.66680  -0.66390
 Alpha  occ. eigenvalues --   -0.65938  -0.64868  -0.64033  -0.62402  -0.61894
 Alpha  occ. eigenvalues --   -0.61887  -0.61706  -0.61289  -0.61231  -0.60579
 Alpha  occ. eigenvalues --   -0.60533  -0.60230  -0.60160  -0.59873  -0.59355
 Alpha  occ. eigenvalues --   -0.58889  -0.58399  -0.58055  -0.57678  -0.57452
 Alpha  occ. eigenvalues --   -0.56976  -0.56970  -0.56791  -0.56752  -0.56697
 Alpha  occ. eigenvalues --   -0.56627  -0.55644  -0.55271  -0.55267  -0.55140
 Alpha  occ. eigenvalues --   -0.54919  -0.54885  -0.54624  -0.54499  -0.54117
 Alpha  occ. eigenvalues --   -0.53944  -0.53827  -0.53654  -0.53396  -0.53194
 Alpha  occ. eigenvalues --   -0.53103  -0.53047  -0.53002  -0.52298  -0.52186
 Alpha  occ. eigenvalues --   -0.51710  -0.51674  -0.51642  -0.51374  -0.51365
 Alpha  occ. eigenvalues --   -0.51153  -0.51108  -0.50942  -0.50812  -0.50682
 Alpha  occ. eigenvalues --   -0.50420  -0.50364  -0.50253  -0.50071  -0.50003
 Alpha  occ. eigenvalues --   -0.49939  -0.49306  -0.49287  -0.49078  -0.48866
 Alpha  occ. eigenvalues --   -0.48743  -0.48593  -0.48371  -0.48155  -0.47980
 Alpha  occ. eigenvalues --   -0.47894  -0.47884  -0.47840  -0.47740  -0.47649
 Alpha  occ. eigenvalues --   -0.47589  -0.47378  -0.47153  -0.47009  -0.46793
 Alpha  occ. eigenvalues --   -0.46543  -0.46481  -0.46374  -0.46061  -0.46013
 Alpha  occ. eigenvalues --   -0.45759  -0.45599  -0.45380  -0.45274  -0.45214
 Alpha  occ. eigenvalues --   -0.45125  -0.45080  -0.44956  -0.44909  -0.44688
 Alpha  occ. eigenvalues --   -0.44450  -0.44156  -0.44117  -0.44034  -0.43762
 Alpha  occ. eigenvalues --   -0.43726  -0.43601  -0.43587  -0.43158  -0.42998
 Alpha  occ. eigenvalues --   -0.42993  -0.42815  -0.42647  -0.42622  -0.42222
 Alpha  occ. eigenvalues --   -0.42067  -0.41594  -0.41384  -0.41242  -0.40831
 Alpha  occ. eigenvalues --   -0.40330  -0.40019  -0.39954  -0.39616  -0.39243
 Alpha  occ. eigenvalues --   -0.39075  -0.39065  -0.38842  -0.38483  -0.38414
 Alpha  occ. eigenvalues --   -0.38199  -0.38030  -0.36472  -0.36452  -0.36236
 Alpha  occ. eigenvalues --   -0.36140  -0.35724  -0.35394  -0.33665  -0.33501
 Alpha  occ. eigenvalues --   -0.33054  -0.32938  -0.32685  -0.32489  -0.32324
 Alpha  occ. eigenvalues --   -0.32203  -0.32129  -0.31125  -0.25910  -0.25771
 Alpha  occ. eigenvalues --   -0.23235  -0.22931
 Alpha virt. eigenvalues --   -0.07321  -0.06883   0.00310   0.00344   0.02164
 Alpha virt. eigenvalues --    0.02356   0.04375   0.04937   0.05322   0.05841
 Alpha virt. eigenvalues --    0.07636   0.07765   0.07810   0.08140   0.08637

 Mulliken charges:
               1
     1  Mg   0.943611
     2  C   -0.010006
     3  C   -0.053606
     4  C   -0.049925
     5  C   -0.089606
     6  N   -0.281372
     7  C    0.032635
     8  C   -0.102420
     9  C   -0.079030
    10  C   -0.023197
    11  C    0.044078
    12  C   -0.008121
    13  C   -0.108780
    14  H    0.034572
    15  N   -0.486584
    16  C    0.194320
    17  C   -0.162087
    18  C   -0.110831
    19  C    0.127584
    20  C    0.066713
    21  C    0.057577
    22  O   -0.197887
    23  C   -0.025023
    24  N   -0.388445
    25  C    0.068303
    26  C   -0.106300
    27  C   -0.052054
    28  C    0.081485
    29  C    0.014974
    30  C   -0.034424
    31  C   -0.035104
    32  N   -0.430931
    33  C    0.126583
    34  C   -0.181531
    35  C   -0.031543
    36  C    0.144879
    37  C    0.071978
    38  C    0.142765
    39  O   -0.213857
    40  C   -0.092722
    41  C    0.223823
    42  O   -0.247969
    43  O   -0.327056
    44  C    0.146669
    45  H   -0.006313
    46  H    0.024777
    47  H   -0.006479
    48  H    0.040352
    49  H    0.021002
    50  H    0.046825
    51  H    0.041384
    52  H    0.029896
    53  H    0.038513
    54  H    0.025674
    55  H    0.053057
    56  H    0.060584
    57  H    0.037138
    58  H    0.040738
    59  H    0.034196
    60  H    0.057456
    61  H    0.052056
    62  H    0.040025
    63  H    0.050106
    64  H    0.031456
    65  H    0.019108
    66  H    0.046025
    67  H    0.058886
    68  H    0.022848
    69  H    0.029687
    70  H    0.030026
    71  H    0.044384
    72  H    0.041672
    73  H    0.038450
    74  H    0.061849
    75  H    0.059475
    76  H    0.073442
    77  H    0.085381
    78  H    0.026917
    79  H    0.057269
    80  Mg   0.938900
    81  C   -0.014704
    82  C   -0.073821
    83  C   -0.062133
    84  C   -0.108136
    85  N   -0.378559
    86  C    0.014464
    87  C   -0.066738
    88  C   -0.052608
    89  C   -0.019159
    90  C    0.003421
    91  C    0.003814
    92  C   -0.135676
    93  H    0.038384
    94  N   -0.463546
    95  C    0.198383
    96  C   -0.182532
    97  C   -0.073572
    98  C    0.131210
    99  C    0.083092
   100  C    0.052701
   101  O   -0.248002
   102  C   -0.010041
   103  N   -0.296328
   104  C    0.020024
   105  C   -0.042628
   106  C   -0.112571
   107  C    0.095863
   108  C    0.041918
   109  C    0.013737
   110  C   -0.088498
   111  N   -0.408927
   112  C    0.114771
   113  C   -0.133380
   114  C    0.022671
   115  C    0.108425
   116  C    0.062406
   117  C    0.079703
   118  O   -0.226783
   119  C   -0.091577
   120  C    0.269328
   121  O   -0.244581
   122  O   -0.346896
   123  C    0.120655
   124  H   -0.007241
   125  H    0.014762
   126  H   -0.002463
   127  H    0.047138
   128  H    0.033997
   129  H    0.048087
   130  H    0.042044
   131  H    0.040792
   132  H    0.041780
   133  H    0.042573
   134  H    0.057903
   135  H    0.038050
   136  H    0.038008
   137  H    0.060706
   138  H    0.052848
   139  H    0.039051
   140  H    0.046059
   141  H    0.075604
   142  H    0.019775
   143  H    0.022968
   144  H    0.050088
   145  H    0.040532
   146  H    0.051624
   147  H    0.036054
   148  H    0.028652
   149  H    0.022179
   150  H    0.034961
   151  H    0.039555
   152  H    0.074285
   153  H    0.055749
   154  H    0.035959
   155  H    0.056683
   156  H    0.046808
   157  H    0.068293
   158  H    0.073660
 Sum of Mulliken charges =  -0.00000

 Dipole moment (field-independent basis, Debye):
    X=             -5.2040    Y=              2.5555    Z=              0.8737  Tot=              5.8631
 Quadrupole moment (field-independent basis, Debye-Ang):
   XX=           -572.4461   YY=           -482.8052   ZZ=           -493.4849
   XY=            -27.2129   XZ=            -37.5336   YZ=             43.3519

 Normal termination of Gaussian 16 at Mon Sep 20 19:02:35 2021.
