 Gaussian 16, Revision A.03,
 Gaussian 16:  ES64L-G16RevA.03 25-Dec-2016

 --------------------------------
 #p wB97XD/Def2SVP td=(nstates=5)
 --------------------------------

 --------------------------------
 TDDFT excited states in gaussian
 --------------------------------
 Symbolic Z-matrix:
 Charge =  0 Multiplicity = 1

                         Standard orientation:
 ---------------------------------------------------------------------
 Center     Atomic      Atomic             Coordinates (Angstroms)
 Number     Number       Type             X           Y           Z
 ---------------------------------------------------------------------
      1         12           0      -20.830874   -0.420733   -0.127942
      2          6           0      -18.434560    2.105677   -0.078323
      3          6           0      -23.216899    1.856873    0.848912
      4          6           0      -22.968575   -3.029060    0.042987
      5          6           0      -18.196585   -2.754207   -0.748530
      6          7           0      -20.763709    1.682158    0.424176
      7          6           0      -19.704193    2.532619    0.349554
      8          6           0      -20.124213    3.978118    0.645866
      9          6           0      -21.645115    3.784909    1.076984
     10          6           0      -21.887345    2.310379    0.737914
     11          6           0      -21.860520    4.063486    2.559671
     12          6           0      -20.106153    4.962903   -0.577048
     13          6           0      -19.879098    6.423637   -0.286150
     14          1           0      -20.023482    6.919250    1.082883
     15          7           0      -22.800059   -0.539631    0.281316
     16          6           0      -23.617895    0.536828    0.679258
     17          6           0      -24.965564    0.031446    0.699713
     18          6           0      -24.955593   -1.359206    0.423545
     19          6           0      -23.526857   -1.711603    0.234285
     20          6           0      -26.146161    0.841311    1.191349
     21          6           0      -26.052304   -2.330273    0.286654
     22          8           0      -25.878425   -3.529534    0.243023
     23          6           0      -27.548931   -1.854848    0.354386
     24          7           0      -20.681408   -2.627936   -0.492146
     25          6           0      -21.687729   -3.433806   -0.329055
     26          6           0      -21.269378   -4.919185   -0.546242
     27          6           0      -19.787903   -4.852781   -0.869959
     28          6           0      -19.463427   -3.330851   -0.653472
     29          6           0      -21.709094   -5.812968    0.707161
     30          6           0      -19.448763   -5.398810   -2.273072
     31          6           0      -18.971335   -6.896203   -2.366714
     32          7           0      -18.865188   -0.376551   -0.613681
     33          6           0      -17.907221   -1.396002   -0.839522
     34          6           0      -16.630243   -0.850153   -1.101610
     35          6           0      -16.807286    0.546954   -0.718300
     36          6           0      -18.198320    0.732625   -0.475419
     37          6           0      -15.345694   -1.636178   -1.290619
     38          6           0      -16.048096    1.728629   -0.535345
     39          8           0      -14.860951    1.978286   -0.702763
     40          6           0      -17.185273    2.891059   -0.165832
     41          6           0      -16.693610    3.530205    1.099604
     42          8           0      -16.493079    2.924105    2.157375
     43          8           0      -16.346519    4.902581    0.923614
     44          6           0      -15.835818    5.605645    2.141869
     45          1           0      -23.920136    2.632621    1.161275
     46          1           0      -23.671692   -3.823645    0.299881
     47          1           0      -17.363117   -3.416612   -0.989974
     48          1           0      -19.502922    4.308987    1.478403
     49          1           0      -22.325224    4.449093    0.543839
     50          1           0      -21.009089    4.589919    2.990139
     51          1           0      -22.121526    3.167700    3.123839
     52          1           0      -22.628909    4.810190    2.760084
     53          1           0      -21.046546    4.835689   -1.112178
     54          1           0      -19.371839    4.568042   -1.279505
     55          1           0      -20.647285    6.975619   -0.827278
     56          1           0      -18.879969    6.701451   -0.621897
     57          1           0      -26.568844    0.462671    2.121917
     58          1           0      -26.889671    0.869867    0.393708
     59          1           0      -25.943069    1.882421    1.441717
     60          1           0      -27.780110   -1.757440    1.415443
     61          1           0      -28.211376   -2.653959    0.021407
     62          1           0      -27.670607   -0.882633   -0.121651
     63          1           0      -21.871001   -5.216710   -1.405299
     64          1           0      -19.183457   -5.327971   -0.098874
     65          1           0      -20.847539   -6.327853    1.132047
     66          1           0      -22.370824   -6.638147    0.443182
     67          1           0      -22.114138   -5.095622    1.422111
     68          1           0      -18.650034   -4.762890   -2.656451
     69          1           0      -20.330094   -5.231115   -2.892311
     70          1           0      -17.895541   -6.910232   -2.188335
     71          1           0      -19.223813   -7.476613   -3.254320
     72          1           0      -19.427124   -7.302423   -1.464381
     73          1           0      -15.362532   -1.884152   -2.351582
     74          1           0      -15.350700   -2.554353   -0.704417
     75          1           0      -14.438735   -1.190606   -0.879956
     76          1           0      -17.260729    3.585519   -1.003487
     77          1           0      -14.901337    5.170462    2.494240
     78          1           0      -16.487969    5.674738    3.012923
     79          1           0      -15.620669    6.577215    1.697054
     80         12           0       20.303719   -0.749042    0.188508
     81          6           0       19.356500    2.267618   -1.176944
     82          6           0       21.767363    1.056433    2.902598
     83          6           0       21.551161   -3.543734    1.370140
     84          6           0       19.007330   -2.451545   -2.565472
     85          7           0       20.484304    1.418359    0.720821
     86          6           0       19.995985    2.456781    0.036131
     87          6           0       20.246689    3.765202    0.854577
     88          6           0       21.148764    3.309237    2.091350
     89          6           0       21.190062    1.784652    1.871447
     90          6           0       22.594239    3.768280    2.096287
     91          6           0       18.976831    4.541592    1.234490
     92          6           0       19.085897    6.006630    0.846597
     93          1           0       18.300996    7.087566    1.603977
     94          7           0       21.425790   -1.172929    1.944542
     95          6           0       21.879846   -0.352044    2.936273
     96          6           0       22.522554   -1.055186    3.954814
     97          6           0       22.600395   -2.417655    3.499893
     98          6           0       21.822746   -2.439295    2.212901
     99          6           0       23.062811   -0.414577    5.225095
    100          6           0       23.333510   -3.593960    4.123751
    101          8           0       23.414552   -4.654393    3.473934
    102          6           0       24.045871   -3.478038    5.409228
    103          7           0       20.236574   -2.662767   -0.496449
    104          6           0       20.782679   -3.723859    0.196106
    105          6           0       20.624391   -5.119907   -0.513112
    106          6           0       19.558144   -4.723168   -1.621443
    107          6           0       19.608740   -3.184824   -1.583251
    108          6           0       21.863767   -5.873947   -1.138252
    109          6           0       18.119680   -5.413276   -1.577588
    110          6           0       17.167982   -4.865422   -0.547135
    111          7           0       19.505903   -0.270288   -1.571681
    112          6           0       19.013455   -1.021375   -2.621920
    113          6           0       18.470559   -0.221173   -3.642174
    114          6           0       18.559101    1.059364   -3.084149
    115          6           0       19.195081    1.003338   -1.809755
    116          6           0       17.855065   -0.795650   -4.846372
    117          6           0       18.322098    2.401096   -3.455678
    118          8           0       17.920215    2.822405   -4.542147
    119          6           0       18.806501    3.308126   -2.207629
    120          6           0       19.809758    4.251904   -2.668038
    121          8           0       20.962007    4.008559   -2.944987
    122          8           0       19.265032    5.446348   -2.863979
    123          6           0       20.061693    6.489092   -3.436540
    124          1           0       22.255855    1.619265    3.700218
    125          1           0       21.902816   -4.542833    1.634622
    126          1           0       18.616771   -3.023370   -3.409882
    127          1           0       20.871009    4.312352    0.148931
    128          1           0       20.698873    3.785791    2.963042
    129          1           0       22.852258    4.462588    1.296061
    130          1           0       23.259347    2.917642    1.949911
    131          1           0       22.867816    4.116498    3.092737
    132          1           0       18.695041    4.477427    2.285624
    133          1           0       18.140623    4.078314    0.711347
    134          1           0       18.668326    6.078789   -0.158312
    135          1           0       20.147241    6.249551    0.894387
    136          1           0       22.703592    0.607549    5.345205
    137          1           0       24.140802   -0.288734    5.121727
    138          1           0       22.909876   -1.062505    6.087364
    139          1           0       24.800183   -4.259669    5.506390
    140          1           0       23.310687   -3.657778    6.194250
    141          1           0       24.524124   -2.502289    5.491123
    142          1           0       20.066152   -5.832342    0.095101
    143          1           0       19.908028   -5.095547   -2.583452
    144          1           0       22.748294   -5.265982   -0.952413
    145          1           0       21.802177   -5.808906   -2.225293
    146          1           0       22.043495   -6.908215   -0.843421
    147          1           0       18.294373   -6.446846   -1.279730
    148          1           0       17.627677   -5.477287   -2.547373
    149          1           0       16.164458   -4.975763   -0.956583
    150          1           0       17.286068   -3.857350   -0.151686
    151          1           0       17.289443   -5.485570    0.341002
    152          1           0       17.370165   -1.768765   -4.773058
    153          1           0       18.445548   -0.738332   -5.759987
    154          1           0       17.081720   -0.055663   -5.050853
    155          1           0       17.937208    3.850134   -1.835763
    156          1           0       20.593432    7.067693   -2.680309
    157          1           0       19.372717    7.182494   -3.918482
    158          1           0       20.793228    6.061906   -4.122615
 ---------------------------------------------------------------------

 SCF Done:  E(RwB97XD) =  -4070.65226588     A.U. after   19 cycles

 Excitation energies and oscillator strengths:

 Excited State   1:      Singlet-A      1.6476 eV  752.52 nm  f=0.4186  <S**2>=0.000
     310 -> 316       -0.17812
     312 -> 313        0.68438
     310 <- 316       -0.11439
 This state for optimization and/or second-order correction.
 Total Energy, E(TD-HF/TD-DFT) =  -4070.59171853
 Copying the excited state density for this state as the 1-particle RhoCI density.

 Excited State   2:      Singlet-A      1.6919 eV  732.81 nm  f=0.3698  <S**2>=0.000
     309 -> 315        0.17797
     311 -> 314        0.68404
     309 <- 315        0.11253

 Excited State   3:      Singlet-A      2.1650 eV  572.67 nm  f=0.1497  <S**2>=0.000
     310 -> 313        0.65095
     312 -> 316        0.25703

 Excited State   4:      Singlet-A      2.1734 eV  570.47 nm  f=0.1485  <S**2>=0.000
     309 -> 314        0.64699
     311 -> 315       -0.26325

 Excited State   5:      Singlet-A      3.3545 eV  369.60 nm  f=0.0031  <S**2>=0.000
     305 -> 318        0.10731
     306 -> 313        0.67507

 The electronic state is 1-A.
 Alpha  occ. eigenvalues --  -46.94343 -46.93997 -19.29974 -19.29360 -19.24378
 Alpha  occ. eigenvalues --  -19.24365 -19.23612 -19.23498 -19.23262 -19.23210
 Alpha  occ. eigenvalues --  -14.47290 -14.46858 -14.46749 -14.46252 -14.44857
 Alpha  occ. eigenvalues --  -14.44288 -14.43913 -14.43524 -10.42910 -10.42053
 Alpha  occ. eigenvalues --  -10.39519 -10.38811 -10.38487 -10.38307 -10.35886
 Alpha  occ. eigenvalues --  -10.35710 -10.35524 -10.35344 -10.35203 -10.35122
 Alpha  occ. eigenvalues --  -10.34919 -10.34888 -10.34875 -10.34841 -10.34767
 Alpha  occ. eigenvalues --  -10.34676 -10.34102 -10.33975 -10.33376 -10.33013
 Alpha  occ. eigenvalues --  -10.32942 -10.32817 -10.32791 -10.32576 -10.32443
 Alpha  occ. eigenvalues --  -10.32400 -10.32399 -10.32367 -10.32265 -10.32208
 Alpha  occ. eigenvalues --  -10.32061 -10.32061 -10.32002 -10.31980 -10.31873
 Alpha  occ. eigenvalues --  -10.31843 -10.31788 -10.31702 -10.31672 -10.31608
 Alpha  occ. eigenvalues --  -10.31598 -10.31586 -10.31526 -10.31508 -10.31350
 Alpha  occ. eigenvalues --  -10.31196 -10.30809 -10.30787 -10.30678 -10.30482
 Alpha  occ. eigenvalues --  -10.30467 -10.30289 -10.30284 -10.30257 -10.30222
 Alpha  occ. eigenvalues --  -10.30139 -10.29988 -10.29890 -10.29744 -10.29684
 Alpha  occ. eigenvalues --  -10.29611 -10.29582 -10.29388 -10.28723 -10.28629
 Alpha  occ. eigenvalues --  -10.28500  -3.20450  -3.20189  -1.94059  -1.93785
 Alpha  occ. eigenvalues --   -1.93573  -1.93442  -1.93336  -1.93167  -1.20056
 Alpha  occ. eigenvalues --   -1.15570  -1.13423  -1.11043  -1.10805  -1.10691
 Alpha  occ. eigenvalues --   -1.09918  -1.08004  -1.07208  -1.06568  -1.05951
 Alpha  occ. eigenvalues --   -1.05716  -1.05400  -1.05293  -1.04547  -1.04544
 Alpha  occ. eigenvalues --   -0.94036  -0.94007  -0.91239  -0.91223  -0.90845
 Alpha  occ. eigenvalues --   -0.90608  -0.90357  -0.90168  -0.89794  -0.89542
 Alpha  occ. eigenvalues --   -0.89410  -0.89407  -0.88691  -0.88194  -0.86482
 Alpha  occ. eigenvalues --   -0.86244  -0.85712  -0.84887  -0.84794  -0.84290
 Alpha  occ. eigenvalues --   -0.84147  -0.83453  -0.83107  -0.82528  -0.82339
 Alpha  occ. eigenvalues --   -0.81984  -0.80804  -0.80277  -0.79213  -0.79184
 Alpha  occ. eigenvalues --   -0.78793  -0.78772  -0.77843  -0.77799  -0.77176
 Alpha  occ. eigenvalues --   -0.77003  -0.75398  -0.75119  -0.73612  -0.73384
 Alpha  occ. eigenvalues --   -0.71571  -0.71518  -0.70912  -0.70790  -0.69954
 Alpha  occ. eigenvalues --   -0.69707  -0.69316  -0.69049  -0.67724  -0.67300
 Alpha  occ. eigenvalues --   -0.67188  -0.66969  -0.66880  -0.66620  -0.66531
 Alpha  occ. eigenvalues --   -0.66312  -0.64260  -0.63386  -0.62434  -0.62383
 Alpha  occ. eigenvalues --   -0.61948  -0.61606  -0.61335  -0.60954  -0.60545
 Alpha  occ. eigenvalues --   -0.60455  -0.60264  -0.59746  -0.59627  -0.59316
 Alpha  occ. eigenvalues --   -0.58465  -0.58289  -0.58056  -0.57059  -0.57006
 Alpha  occ. eigenvalues --   -0.56569  -0.56548  -0.56255  -0.55958  -0.55414
 Alpha  occ. eigenvalues --   -0.55385  -0.55156  -0.55092  -0.54893  -0.54662
 Alpha  occ. eigenvalues --   -0.54443  -0.54413  -0.54282  -0.54230  -0.54195
 Alpha  occ. eigenvalues --   -0.53976  -0.53957  -0.53633  -0.53492  -0.53242
 Alpha  occ. eigenvalues --   -0.52904  -0.52514  -0.52235  -0.52177  -0.52143
 Alpha  occ. eigenvalues --   -0.51892  -0.51777  -0.51650  -0.51564  -0.51495
 Alpha  occ. eigenvalues --   -0.51380  -0.51212  -0.51118  -0.51038  -0.51011
 Alpha  occ. eigenvalues --   -0.50829  -0.50583  -0.50308  -0.50288  -0.50062
 Alpha  occ. eigenvalues --   -0.50025  -0.49672  -0.49604  -0.49427  -0.49249
 Alpha  occ. eigenvalues --   -0.49206  -0.49072  -0.48848  -0.48771  -0.48619
 Alpha  occ. eigenvalues --   -0.48414  -0.48270  -0.47907  -0.47756  -0.47400
 Alpha  occ. eigenvalues --   -0.47308  -0.47041  -0.47016  -0.46942  -0.46821
 Alpha  occ. eigenvalues --   -0.46660  -0.46504  -0.46476  -0.46255  -0.46232
 Alpha  occ. eigenvalues --   -0.46087  -0.45819  -0.45798  -0.45523  -0.45397
 Alpha  occ. eigenvalues --   -0.45287  -0.45161  -0.44953  -0.44824  -0.44573
 Alpha  occ. eigenvalues --   -0.44571  -0.44510  -0.44446  -0.43930  -0.43882
 Alpha  occ. eigenvalues --   -0.43764  -0.43483  -0.43464  -0.43384  -0.43295
 Alpha  occ. eigenvalues --   -0.43190  -0.42972  -0.42868  -0.42693  -0.42341
 Alpha  occ. eigenvalues --   -0.42180  -0.41782  -0.41332  -0.41070  -0.40820
 Alpha  occ. eigenvalues --   -0.40553  -0.40063  -0.39811  -0.39620  -0.39252
 Alpha  occ. eigenvalues --   -0.39128  -0.38971  -0.38590  -0.38293  -0.38110
 Alpha  occ. eigenvalues --   -0.38073  -0.37776  -0.36461  -0.36189  -0.35917
 Alpha  occ. eigenvalues --   -0.35756  -0.35555  -0.35343  -0.33855  -0.33633
 Alpha  occ. eigenvalues --   -0.33166  -0.32755  -0.32682  -0.32513  -0.32181
 Alpha  occ. eigenvalues --   -0.31904  -0.31752  -0.31599  -0.26148  -0.26005
 Alpha  occ. eigenvalues --   -0.23393  -0.23249
 Alpha virt. eigenvalues --   -0.07425  -0.07422   0.00248   0.00537   0.02236
 Alpha virt. eigenvalues --    0.02573   0.04484   0.04622   0.06258   0.06837
 Alpha virt. eigenvalues --    0.06892   0.07883   0.07964   0.08287   0.08584

 Mulliken charges:
               1
     1  Mg   0.981180
     2  C   -0.071192
     3  C   -0.108042
     4  C   -0.077309
     5  C   -0.077014
     6  N   -0.334114
     7  C    0.003421
     8  C   -0.040129
     9  C   -0.140198
    10  C    0.073057
    11  C    0.018697
    12  C    0.018210
    13  C   -0.105795
    14  H    0.036502
    15  N   -0.531714
    16  C    0.234285
    17  C   -0.151193
    18  C   -0.045540
    19  C    0.152448
    20  C    0.052193
    21  C    0.017222
    22  O   -0.224854
    23  C   -0.005436
    24  N   -0.321192
    25  C    0.055864
    26  C   -0.094096
    27  C   -0.043708
    28  C    0.027526
    29  C    0.014749
    30  C   -0.005394
    31  C   -0.042797
    32  N   -0.449149
    33  C    0.125068
    34  C   -0.138846
    35  C   -0.084669
    36  C    0.187780
    37  C    0.059601
    38  C    0.113514
    39  O   -0.211563
    40  C   -0.083861
    41  C    0.288721
    42  O   -0.260491
    43  O   -0.404778
    44  C    0.141032
    45  H    0.004099
    46  H    0.032121
    47  H    0.000459
    48  H    0.043798
    49  H    0.038841
    50  H    0.033322
    51  H    0.049250
    52  H    0.023052
    53  H    0.024378
    54  H    0.025398
    55  H    0.048838
    56  H    0.067401
    57  H    0.063421
    58  H    0.049915
    59  H    0.030805
    60  H    0.053361
    61  H    0.056029
    62  H    0.038242
    63  H    0.048298
    64  H    0.027359
    65  H    0.030041
    66  H    0.045671
    67  H    0.051185
    68  H    0.026172
    69  H    0.026684
    70  H    0.037028
    71  H    0.054581
    72  H    0.027392
    73  H    0.054167
    74  H    0.037471
    75  H    0.064155
    76  H    0.072298
    77  H    0.058585
    78  H    0.054398
    79  H    0.053786
    80  Mg   0.992370
    81  C   -0.044700
    82  C   -0.105245
    83  C   -0.051560
    84  C   -0.104185
    85  N   -0.349923
    86  C   -0.028266
    87  C   -0.021360
    88  C   -0.162764
    89  C    0.116118
    90  C    0.006205
    91  C    0.037915
    92  C   -0.145932
    93  H    0.028883
    94  N   -0.425511
    95  C    0.160239
    96  C   -0.175191
    97  C   -0.074173
    98  C    0.171380
    99  C    0.066578
   100  C    0.038213
   101  O   -0.260202
   102  C    0.004509
   103  N   -0.396067
   104  C    0.027581
   105  C   -0.070183
   106  C   -0.076045
   107  C    0.087224
   108  C    0.029260
   109  C   -0.031245
   110  C   -0.058224
   111  N   -0.470342
   112  C    0.132197
   113  C   -0.134365
   114  C   -0.037899
   115  C    0.195295
   116  C    0.072361
   117  C    0.096118
   118  O   -0.219360
   119  C   -0.078074
   120  C    0.235387
   121  O   -0.251521
   122  O   -0.328022
   123  C    0.135838
   124  H   -0.002141
   125  H    0.021808
   126  H   -0.004691
   127  H    0.033181
   128  H    0.042981
   129  H    0.043799
   130  H    0.040387
   131  H    0.035178
   132  H    0.039579
   133  H    0.030085
   134  H    0.063212
   135  H    0.056099
   136  H    0.042418
   137  H    0.056988
   138  H    0.056338
   139  H    0.055834
   140  H    0.067039
   141  H    0.045001
   142  H    0.038424
   143  H    0.027383
   144  H    0.039853
   145  H    0.027314
   146  H    0.056754
   147  H    0.029173
   148  H    0.032982
   149  H    0.037864
   150  H    0.047637
   151  H    0.028753
   152  H    0.046047
   153  H    0.055566
   154  H    0.045455
   155  H    0.065614
   156  H    0.042527
   157  H    0.055570
   158  H    0.066676
 Sum of Mulliken charges =  -0.00000

 Dipole moment (field-independent basis, Debye):
    X=             -5.8359    Y=              0.6879    Z=              4.5486  Tot=              7.4310
 Quadrupole moment (field-independent basis, Debye-Ang):
   XX=           -300.0276   YY=           -465.9200   ZZ=           -503.5966
   XY=            -48.4251   XZ=             86.0408   YZ=             34.0689

 Normal termination of Gaussian 16 at Mon Sep 20 10:42:49 2021.
