 Gaussian 16, Revision A.03,
 Gaussian 16:  ES64L-G16RevA.03 25-Dec-2016

 --------------------------------
 #p wB97XD/Def2SVP td=(nstates=5)
 --------------------------------

 --------------------------------
 TDDFT excited states in gaussian
 --------------------------------
 Symbolic Z-matrix:
 Charge =  0 Multiplicity = 1

                         Standard orientation:
 ---------------------------------------------------------------------
 Center     Atomic      Atomic             Coordinates (Angstroms)
 Number     Number       Type             X           Y           Z
 ---------------------------------------------------------------------
      1         12           0       -9.287647   -0.060410   -0.411615
      2          6           0       -7.561713    0.774902    2.444479
      3          6           0       -9.359913    3.202190   -1.449701
      4          6           0      -10.871327   -0.964097   -3.402721
      5          6           0       -8.543299   -3.395358    0.088665
      6          7           0       -8.321329    1.715419    0.371932
      7          6           0       -7.802980    1.914779    1.654375
      8          6           0       -7.361536    3.365980    1.860324
      9          6           0       -8.124846    4.031676    0.687199
     10          6           0       -8.583827    2.917327   -0.275448
     11          6           0       -9.232186    5.000409    1.156709
     12          6           0       -5.830360    3.527013    1.783319
     13          6           0       -5.165250    4.478627    2.836789
     14          1           0       -3.946458    5.190533    2.395585
     15          7           0      -10.038998    0.972096   -2.106343
     16          6           0      -10.056203    2.309916   -2.305749
     17          6           0      -10.882690    2.700013   -3.408542
     18          6           0      -11.450845    1.521807   -3.920249
     19          6           0      -10.803257    0.408560   -3.110164
     20          6           0      -11.186864    4.150072   -3.790424
     21          6           0      -12.466621    1.398787   -5.113277
     22          8           0      -12.765446    2.439366   -5.753278
     23          6           0      -13.205713    0.048321   -5.507757
     24          7           0       -9.394503   -1.896692   -1.653967
     25          6           0      -10.211241   -2.015653   -2.728907
     26          6           0      -10.416935   -3.446609   -3.155054
     27          6           0       -9.642726   -4.245585   -2.084532
     28          6           0       -9.192564   -3.136653   -1.130064
     29          6           0      -11.913090   -3.863433   -3.345370
     30          6           0       -8.496502   -5.182152   -2.699089
     31          6           0       -8.834258   -6.677433   -2.718760
     32          7           0       -8.318896   -1.139285    0.990612
     33          6           0       -8.093696   -2.527323    1.121754
     34          6           0       -7.559736   -2.806580    2.461323
     35          6           0       -7.418226   -1.541474    3.014337
     36          6           0       -7.772949   -0.600037    2.034157
     37          6           0       -7.207623   -4.100844    3.102835
     38          6           0       -6.967545   -0.828905    4.218339
     39          8           0       -6.717411   -1.224658    5.368757
     40          6           0       -7.084564    0.718227    3.913079
     41          6           0       -8.059058    1.399572    4.864413
     42          8           0       -9.179289    1.006963    5.205477
     43          8           0       -7.370094    2.494922    5.293392
     44          6           0       -7.980132    3.267426    6.362611
     45          1           0       -9.394821    4.239570   -1.788664
     46          1           0      -11.417181   -1.373788   -4.255224
     47          1           0       -8.285592   -4.432394    0.312841
     48          1           0       -7.680108    3.708103    2.845550
     49          1           0       -7.355758    4.629162    0.197789
     50          1           0       -9.190296    5.416937    2.163091
     51          1           0      -10.151688    4.415312    1.149584
     52          1           0       -9.331216    5.863118    0.498317
     53          1           0       -5.482882    3.800166    0.787323
     54          1           0       -5.440103    2.510769    1.843567
     55          1           0       -4.919036    3.901461    3.728016
     56          1           0       -5.874480    5.270837    3.080615
     57          1           0      -12.272627    4.237976   -3.759108
     58          1           0      -10.638188    4.414740   -4.694390
     59          1           0      -10.812627    4.733855   -2.949493
     60          1           0      -12.519744   -0.489817   -6.160888
     61          1           0      -14.095045    0.342432   -6.064662
     62          1           0      -13.571405   -0.381814   -4.574973
     63          1           0       -9.941223   -3.577750   -4.127045
     64          1           0      -10.242209   -4.839066   -1.394636
     65          1           0      -12.124006   -4.825102   -2.878409
     66          1           0      -12.197953   -3.936482   -4.394792
     67          1           0      -12.553696   -3.070104   -2.962421
     68          1           0       -7.570797   -5.138429   -2.125423
     69          1           0       -8.215013   -4.825556   -3.689838
     70          1           0       -8.463773   -7.125200   -3.641071
     71          1           0       -9.914568   -6.810932   -2.666372
     72          1           0       -8.413689   -7.236983   -1.883423
     73          1           0       -7.519790   -4.895430    2.425100
     74          1           0       -7.534383   -4.101550    4.142894
     75          1           0       -6.118857   -4.157821    3.078487
     76          1           0       -6.117682    1.221467    3.939476
     77          1           0       -9.046960    3.447934    6.224732
     78          1           0       -7.531891    4.233508    6.594622
     79          1           0       -7.870707    2.734899    7.307703
     80         12           0        9.486877    0.215585   -0.201527
     81          6           0        7.398836   -2.057970    1.218520
     82          6           0        7.502871    2.902178    0.663930
     83          6           0       11.636434    2.292921   -1.871091
     84          6           0       11.415627   -2.535852   -1.543317
     85          7           0        7.572876    0.356501    0.635130
     86          6           0        6.984078   -0.704842    1.401129
     87          6           0        5.919592   -0.190172    2.285280
     88          6           0        5.754995    1.299991    1.742576
     89          6           0        7.009884    1.585421    0.947985
     90          6           0        4.443376    1.501009    0.830744
     91          6           0        6.173849   -0.406745    3.808771
     92          6           0        4.999683   -0.907545    4.586591
     93          1           0        3.597044   -0.292347    4.200558
     94          7           0        9.596734    2.321665   -0.492949
     95          6           0        8.650583    3.197208   -0.049567
     96          6           0        9.071995    4.505154   -0.418247
     97          6           0       10.346851    4.400665   -1.100189
     98          6           0       10.655901    2.931943   -1.134903
     99          6           0        8.191851    5.751099   -0.177450
    100          6           0       11.294922    5.415175   -1.659007
    101          8           0       12.320175    5.225270   -2.322975
    102          6           0       10.956269    6.912845   -1.305842
    103          7           0       11.260668   -0.075520   -1.644190
    104          6           0       11.986535    0.925959   -2.075079
    105          6           0       13.307086    0.466548   -2.689673
    106          6           0       13.216756   -1.082010   -2.574764
    107          6           0       11.864165   -1.262871   -1.888618
    108          6           0       13.521487    0.963606   -4.208831
    109          6           0       14.429434   -1.600699   -1.682803
    110          6           0       14.515805   -1.257799   -0.174999
    111          7           0        9.347366   -1.881688   -0.316345
    112          6           0       10.218565   -2.820721   -0.835426
    113          6           0        9.723797   -4.138641   -0.388124
    114          6           0        8.644330   -3.956846    0.423199
    115          6           0        8.454997   -2.527240    0.428949
    116          6           0       10.240869   -5.440507   -0.895633
    117          6           0        7.617590   -4.589896    1.250579
    118          8           0        7.393350   -5.763578    1.494752
    119          6           0        6.772728   -3.350100    1.782058
    120          6           0        5.403716   -3.495531    1.246971
    121          8           0        5.053801   -3.606725    0.059046
    122          8           0        4.602619   -3.490364    2.370835
    123          6           0        3.162023   -3.437831    2.089462
    124          1           0        6.930888    3.782418    0.964216
    125          1           0       12.342117    3.019702   -2.280440
    126          1           0       12.028996   -3.375979   -1.873721
    127          1           0        5.044913   -0.789482    2.029399
    128          1           0        5.716913    1.966356    2.603787
    129          1           0        3.725517    0.684800    0.911874
    130          1           0        4.782470    1.426101   -0.202362
    131          1           0        4.105332    2.502277    1.094500
    132          1           0        6.482969    0.533108    4.266267
    133          1           0        6.964278   -1.157149    3.812861
    134          1           0        5.057778   -0.668307    5.647696
    135          1           0        4.779117   -1.972144    4.665765
    136          1           0        8.164974    6.122883    0.846766
    137          1           0        7.223019    5.425274   -0.555639
    138          1           0        8.566157    6.640581   -0.683769
    139          1           0       10.092937    7.227117   -1.892403
    140          1           0       11.880432    7.487772   -1.361937
    141          1           0       10.730513    7.072511   -0.251298
    142          1           0       14.122681    0.825248   -2.062239
    143          1           0       13.270548   -1.595269   -3.534897
    144          1           0       14.270552    1.754709   -4.159389
    145          1           0       12.593827    1.380786   -4.601966
    146          1           0       13.907932    0.270179   -4.954682
    147          1           0       15.420568   -1.377827   -2.077543
    148          1           0       14.259285   -2.677397   -1.713324
    149          1           0       14.418536   -2.237101    0.293830
    150          1           0       13.753165   -0.546323    0.139185
    151          1           0       15.461888   -0.805188    0.121847
    152          1           0       10.113008   -6.096741   -0.035307
    153          1           0       11.280049   -5.386956   -1.220727
    154          1           0        9.495758   -5.836539   -1.584372
    155          1           0        6.771166   -3.585063    2.846102
    156          1           0        2.732490   -3.560165    3.084186
    157          1           0        2.939827   -4.334012    1.510155
    158          1           0        2.825726   -2.589801    1.492574
 ---------------------------------------------------------------------

 SCF Done:  E(RwB97XD) =  -4070.62421042     A.U. after   19 cycles

 Excitation energies and oscillator strengths:

 Excited State   1:      Singlet-A      1.6447 eV  753.85 nm  f=0.2889  <S**2>=0.000
     309 -> 315       -0.18819
     311 -> 313        0.12844
     312 -> 314        0.66967
     309 <- 315       -0.11610
 This state for optimization and/or second-order correction.
 Total Energy, E(TD-HF/TD-DFT) =  -4070.56376951
 Copying the excited state density for this state as the 1-particle RhoCI density.

 Excited State   2:      Singlet-A      1.6660 eV  744.22 nm  f=0.4394  <S**2>=0.000
     310 -> 316        0.17565
     311 -> 313        0.67169
     312 -> 314       -0.12747
     310 <- 316        0.11139

 Excited State   3:      Singlet-A      2.1971 eV  564.30 nm  f=0.0905  <S**2>=0.000
     310 -> 313        0.62282
     311 -> 316       -0.31704

 Excited State   4:      Singlet-A      2.2135 eV  560.12 nm  f=0.0452  <S**2>=0.000
     309 -> 314        0.60786
     312 -> 315        0.34910

 Excited State   5:      Singlet-A      3.5340 eV  350.83 nm  f=0.0000  <S**2>=0.000
     312 -> 313        0.70685

 The electronic state is 1-A.
 Alpha  occ. eigenvalues --  -46.95587 -46.95571 -19.31675 -19.30790 -19.25298
 Alpha  occ. eigenvalues --  -19.25144 -19.24836 -19.24561 -19.24552 -19.23552
 Alpha  occ. eigenvalues --  -14.47092 -14.46869 -14.46808 -14.46759 -14.44930
 Alpha  occ. eigenvalues --  -14.44091 -14.44040 -14.43732 -10.43897 -10.43311
 Alpha  occ. eigenvalues --  -10.40805 -10.39720 -10.39387 -10.38835 -10.36396
 Alpha  occ. eigenvalues --  -10.36033 -10.35886 -10.35799 -10.35782 -10.35474
 Alpha  occ. eigenvalues --  -10.35290 -10.35185 -10.34868 -10.34588 -10.34475
 Alpha  occ. eigenvalues --  -10.34404 -10.34121 -10.33940 -10.33694 -10.33541
 Alpha  occ. eigenvalues --  -10.33427 -10.32947 -10.32925 -10.32765 -10.32754
 Alpha  occ. eigenvalues --  -10.32610 -10.32465 -10.32416 -10.32344 -10.32227
 Alpha  occ. eigenvalues --  -10.32207 -10.32126 -10.32088 -10.32085 -10.32077
 Alpha  occ. eigenvalues --  -10.31987 -10.31891 -10.31858 -10.31847 -10.31790
 Alpha  occ. eigenvalues --  -10.31772 -10.31629 -10.31518 -10.31444 -10.31440
 Alpha  occ. eigenvalues --  -10.31421 -10.31399 -10.31389 -10.31376 -10.31047
 Alpha  occ. eigenvalues --  -10.30836 -10.30654 -10.30639 -10.30422 -10.30416
 Alpha  occ. eigenvalues --  -10.30318 -10.30313 -10.30020 -10.29852 -10.29746
 Alpha  occ. eigenvalues --  -10.29709 -10.29545 -10.29403 -10.29291 -10.28711
 Alpha  occ. eigenvalues --  -10.28633  -3.21563  -3.21429  -1.95118  -1.95018
 Alpha  occ. eigenvalues --   -1.94673  -1.94560  -1.94540  -1.94397  -1.19113
 Alpha  occ. eigenvalues --   -1.18054  -1.12385  -1.11850  -1.10950  -1.10629
 Alpha  occ. eigenvalues --   -1.10036  -1.09589  -1.07107  -1.06727  -1.06086
 Alpha  occ. eigenvalues --   -1.05753  -1.05645  -1.04927  -1.04241  -1.03698
 Alpha  occ. eigenvalues --   -0.94294  -0.93433  -0.91004  -0.90867  -0.90741
 Alpha  occ. eigenvalues --   -0.90664  -0.90617  -0.89878  -0.89250  -0.89176
 Alpha  occ. eigenvalues --   -0.89011  -0.88821  -0.88449  -0.88207  -0.86536
 Alpha  occ. eigenvalues --   -0.86310  -0.85808  -0.85236  -0.84473  -0.84260
 Alpha  occ. eigenvalues --   -0.83635  -0.83429  -0.83148  -0.83147  -0.82207
 Alpha  occ. eigenvalues --   -0.81907  -0.80027  -0.79911  -0.79484  -0.79244
 Alpha  occ. eigenvalues --   -0.79097  -0.78773  -0.77884  -0.77678  -0.77305
 Alpha  occ. eigenvalues --   -0.76890  -0.74754  -0.74412  -0.74139  -0.73779
 Alpha  occ. eigenvalues --   -0.71768  -0.71182  -0.71167  -0.70964  -0.70266
 Alpha  occ. eigenvalues --   -0.69929  -0.69412  -0.69348  -0.68083  -0.67226
 Alpha  occ. eigenvalues --   -0.67147  -0.67055  -0.66901  -0.66648  -0.66635
 Alpha  occ. eigenvalues --   -0.66335  -0.64738  -0.64453  -0.62300  -0.61965
 Alpha  occ. eigenvalues --   -0.61678  -0.61346  -0.61007  -0.60879  -0.60735
 Alpha  occ. eigenvalues --   -0.60653  -0.59888  -0.59770  -0.59459  -0.59293
 Alpha  occ. eigenvalues --   -0.58042  -0.57881  -0.57814  -0.57432  -0.57319
 Alpha  occ. eigenvalues --   -0.57033  -0.56892  -0.56872  -0.56327  -0.55759
 Alpha  occ. eigenvalues --   -0.55403  -0.55403  -0.55164  -0.55113  -0.55080
 Alpha  occ. eigenvalues --   -0.54814  -0.54586  -0.54275  -0.54174  -0.54066
 Alpha  occ. eigenvalues --   -0.53933  -0.53879  -0.53613  -0.53419  -0.53370
 Alpha  occ. eigenvalues --   -0.53223  -0.53118  -0.52956  -0.52845  -0.52806
 Alpha  occ. eigenvalues --   -0.51895  -0.51791  -0.51528  -0.51444  -0.51318
 Alpha  occ. eigenvalues --   -0.51174  -0.51080  -0.50866  -0.50477  -0.50468
 Alpha  occ. eigenvalues --   -0.50441  -0.50347  -0.50298  -0.50161  -0.50052
 Alpha  occ. eigenvalues --   -0.49830  -0.49747  -0.49594  -0.49426  -0.49270
 Alpha  occ. eigenvalues --   -0.49177  -0.49141  -0.48876  -0.48782  -0.48681
 Alpha  occ. eigenvalues --   -0.48597  -0.48361  -0.48103  -0.48026  -0.47730
 Alpha  occ. eigenvalues --   -0.47516  -0.47478  -0.47219  -0.47088  -0.46771
 Alpha  occ. eigenvalues --   -0.46671  -0.46450  -0.46436  -0.46138  -0.45802
 Alpha  occ. eigenvalues --   -0.45775  -0.45730  -0.45524  -0.45383  -0.45256
 Alpha  occ. eigenvalues --   -0.45137  -0.44983  -0.44915  -0.44837  -0.44690
 Alpha  occ. eigenvalues --   -0.44560  -0.44426  -0.44283  -0.44159  -0.44034
 Alpha  occ. eigenvalues --   -0.43978  -0.43952  -0.43837  -0.43588  -0.43587
 Alpha  occ. eigenvalues --   -0.43386  -0.43140  -0.42751  -0.42642  -0.42547
 Alpha  occ. eigenvalues --   -0.42376  -0.41664  -0.41655  -0.41359  -0.41313
 Alpha  occ. eigenvalues --   -0.40816  -0.40375  -0.40144  -0.39821  -0.39505
 Alpha  occ. eigenvalues --   -0.39485  -0.39059  -0.38994  -0.38665  -0.38445
 Alpha  occ. eigenvalues --   -0.38305  -0.38206  -0.36917  -0.36857  -0.36573
 Alpha  occ. eigenvalues --   -0.36174  -0.35686  -0.35338  -0.33800  -0.33394
 Alpha  occ. eigenvalues --   -0.33359  -0.33090  -0.32951  -0.32749  -0.32498
 Alpha  occ. eigenvalues --   -0.32487  -0.32063  -0.32010  -0.26321  -0.26197
 Alpha  occ. eigenvalues --   -0.22962  -0.22734
 Alpha virt. eigenvalues --   -0.06974  -0.06807  -0.00435  -0.00178   0.01831
 Alpha virt. eigenvalues --    0.02178   0.03997   0.04254   0.04759   0.05087
 Alpha virt. eigenvalues --    0.06994   0.07064   0.07347   0.07526   0.07866

 Mulliken charges:
               1
     1  Mg   0.973473
     2  C   -0.080812
     3  C   -0.110144
     4  C   -0.086044
     5  C   -0.082750
     6  N   -0.403997
     7  C   -0.008622
     8  C   -0.052672
     9  C   -0.092129
    10  C    0.125931
    11  C    0.013984
    12  C    0.023324
    13  C   -0.127396
    14  H    0.042341
    15  N   -0.430336
    16  C    0.153052
    17  C   -0.190607
    18  C   -0.078383
    19  C    0.194708
    20  C    0.116487
    21  C    0.044584
    22  O   -0.256089
    23  C   -0.009481
    24  N   -0.324989
    25  C    0.023005
    26  C   -0.076482
    27  C   -0.052260
    28  C    0.038505
    29  C    0.010440
    30  C   -0.007766
    31  C   -0.058121
    32  N   -0.440768
    33  C    0.101138
    34  C   -0.206502
    35  C   -0.044127
    36  C    0.153331
    37  C    0.107444
    38  C    0.155057
    39  O   -0.230063
    40  C   -0.059756
    41  C    0.289144
    42  O   -0.247214
    43  O   -0.356652
    44  C    0.133456
    45  H    0.007748
    46  H   -0.019354
    47  H   -0.010792
    48  H    0.024951
    49  H    0.032497
    50  H    0.036682
    51  H    0.035039
    52  H    0.038450
    53  H    0.030607
    54  H    0.029842
    55  H    0.066185
    56  H    0.049908
    57  H    0.065650
    58  H    0.072229
    59  H    0.012037
    60  H    0.080917
    61  H    0.058445
    62  H    0.060741
    63  H    0.047049
    64  H    0.034114
    65  H    0.047077
    66  H    0.033745
    67  H    0.037628
    68  H    0.033138
    69  H    0.029077
    70  H    0.039545
    71  H    0.028520
    72  H    0.041293
    73  H    0.021620
    74  H    0.075388
    75  H    0.050042
    76  H    0.063685
    77  H    0.055472
    78  H    0.051945
    79  H    0.053636
    80  Mg   0.932684
    81  C   -0.005134
    82  C   -0.105995
    83  C   -0.037141
    84  C   -0.077895
    85  N   -0.442650
    86  C   -0.000922
    87  C   -0.039725
    88  C   -0.136101
    89  C    0.130764
    90  C    0.033393
    91  C    0.070022
    92  C   -0.138950
    93  H    0.001523
    94  N   -0.460810
    95  C    0.168995
    96  C   -0.150626
    97  C   -0.078191
    98  C    0.134104
    99  C    0.056839
   100  C    0.061817
   101  O   -0.237651
   102  C   -0.054681
   103  N   -0.260504
   104  C    0.017779
   105  C   -0.075226
   106  C   -0.047626
   107  C    0.027452
   108  C   -0.001673
   109  C   -0.063134
   110  C   -0.056325
   111  N   -0.406749
   112  C    0.141274
   113  C   -0.240981
   114  C   -0.006224
   115  C    0.120137
   116  C    0.082659
   117  C    0.139160
   118  O   -0.194681
   119  C   -0.109400
   120  C    0.275742
   121  O   -0.259352
   122  O   -0.369874
   123  C    0.139829
   124  H    0.001456
   125  H    0.024100
   126  H    0.002944
   127  H    0.030925
   128  H    0.027266
   129  H    0.044063
   130  H    0.045413
   131  H    0.050176
   132  H    0.039488
   133  H    0.041558
   134  H    0.044135
   135  H    0.061747
   136  H    0.055300
   137  H    0.062114
   138  H    0.016603
   139  H    0.079170
   140  H    0.051661
   141  H    0.041955
   142  H    0.050103
   143  H    0.038951
   144  H    0.042632
   145  H    0.048585
   146  H    0.040612
   147  H    0.041565
   148  H    0.020524
   149  H    0.044574
   150  H    0.039862
   151  H    0.038635
   152  H    0.047168
   153  H    0.040213
   154  H    0.066117
   155  H    0.068682
   156  H    0.060414
   157  H    0.055874
   158  H    0.059464
 Sum of Mulliken charges =  -0.00000

 Dipole moment (field-independent basis, Debye):
    X=             -0.8788    Y=              3.3765    Z=              0.2423  Tot=              3.4974
 Quadrupole moment (field-independent basis, Debye-Ang):
   XX=           -484.0239   YY=           -495.9603   ZZ=           -533.4741
   XY=             21.6913   XZ=             32.2073   YZ=             52.7824

 Normal termination of Gaussian 16 at Mon Sep 20 15:25:57 2021.
