 Gaussian 16, Revision A.03,
 Gaussian 16:  ES64L-G16RevA.03 25-Dec-2016

 --------------------------------
 #p wB97XD/Def2SVP td=(nstates=5)
 --------------------------------

 --------------------------------
 TDDFT excited states in gaussian
 --------------------------------
 Symbolic Z-matrix:
 Charge =  0 Multiplicity = 1

                         Standard orientation:
 ---------------------------------------------------------------------
 Center     Atomic      Atomic             Coordinates (Angstroms)
 Number     Number       Type             X           Y           Z
 ---------------------------------------------------------------------
      1         12           0      -10.976563    0.530014    0.249169
      2          6           0       -8.031085   -0.641782   -1.243648
      3          6           0      -11.403242   -2.680154    1.680517
      4          6           0      -14.003769    1.523939    1.422888
      5          6           0      -10.812929    3.320247   -1.777861
      6          7           0       -9.755244   -1.317768    0.326624
      7          6           0       -8.485232   -1.460524   -0.239667
      8          6           0       -7.764568   -2.692621    0.417028
      9          6           0       -8.887072   -3.334825    1.240370
     10          6           0      -10.134956   -2.406025    1.038961
     11          6           0       -9.159520   -4.781839    0.748274
     12          6           0       -6.556402   -2.189967    1.197844
     13          6           0       -5.374958   -3.130599    1.369866
     14          1           0       -5.575028   -4.625456    1.032571
     15          7           0      -12.514508   -0.396747    1.402114
     16          6           0      -12.509819   -1.726805    1.863626
     17          6           0      -13.740550   -2.025067    2.574782
     18          6           0      -14.530428   -0.808902    2.600565
     19          6           0      -13.695881    0.163462    1.772280
     20          6           0      -14.011120   -3.336819    3.322673
     21          6           0      -15.862434   -0.503355    3.258318
     22          8           0      -16.352757    0.614467    3.170237
     23          6           0      -16.446439   -1.506531    4.177197
     24          7           0      -12.186665    2.250408   -0.100174
     25          6           0      -13.348014    2.461226    0.579703
     26          6           0      -13.870331    3.893121    0.291797
     27          6           0      -12.810180    4.516647   -0.696761
     28          6           0      -11.789255    3.355180   -0.811464
     29          6           0      -15.298358    3.837410   -0.279825
     30          6           0      -12.099016    5.792577   -0.172964
     31          6           0      -12.719845    7.019383   -0.833897
     32          7           0       -9.781235    1.236371   -1.316045
     33          6           0       -9.840799    2.332995   -2.109676
     34          6           0       -8.825933    2.161774   -3.177616
     35          6           0       -8.040384    1.100881   -2.833563
     36          6           0       -8.701327    0.544414   -1.708798
     37          6           0       -8.658670    3.188208   -4.285402
     38          6           0       -6.839623    0.313532   -3.143726
     39          8           0       -6.045066    0.444916   -4.066904
     40          6           0       -6.775334   -0.758670   -2.073200
     41          6           0       -6.600190   -2.027328   -2.797737
     42          8           0       -7.424740   -2.721061   -3.408137
     43          8           0       -5.256351   -2.338949   -2.765438
     44          6           0       -4.846182   -3.525500   -3.484455
     45          1           0      -11.458335   -3.654422    2.170181
     46          1           0      -14.933135    1.799050    1.925994
     47          1           0      -10.882695    4.184892   -2.441281
     48          1           0       -7.507974   -3.265949   -0.474610
     49          1           0       -8.478008   -3.474078    2.241011
     50          1           0      -10.117977   -4.924615    0.248910
     51          1           0       -9.343853   -5.373738    1.644362
     52          1           0       -8.387633   -5.137389    0.066000
     53          1           0       -6.975280   -1.850617    2.145688
     54          1           0       -6.208015   -1.262077    0.745782
     55          1           0       -4.997682   -3.030989    2.386731
     56          1           0       -4.643270   -2.670570    0.704778
     57          1           0      -13.260641   -4.108180    3.148761
     58          1           0      -14.975230   -3.745425    3.017028
     59          1           0      -14.142632   -3.111471    4.380326
     60          1           0      -15.787981   -1.610849    5.039910
     61          1           0      -16.741056   -2.407356    3.638905
     62          1           0      -17.374980   -1.152761    4.625365
     63          1           0      -13.939958    4.414080    1.246433
     64          1           0      -13.339860    4.630173   -1.643524
     65          1           0      -15.453778    4.305053   -1.251637
     66          1           0      -15.804867    4.446264    0.468766
     67          1           0      -15.682705    2.831192   -0.444495
     68          1           0      -11.089088    5.854352   -0.578733
     69          1           0      -12.132115    5.900779    0.911313
     70          1           0      -12.887633    7.701240   -0.000361
     71          1           0      -13.729290    6.861542   -1.212870
     72          1           0      -12.111666    7.495653   -1.603419
     73          1           0       -9.466442    3.915206   -4.373456
     74          1           0       -8.525245    2.730150   -5.264678
     75          1           0       -7.828752    3.843199   -4.017882
     76          1           0       -5.925319   -0.532466   -1.430276
     77          1           0       -5.254550   -3.456189   -4.493012
     78          1           0       -5.196985   -4.452824   -3.031037
     79          1           0       -3.794910   -3.355389   -3.714323
     80         12           0       11.059303    0.116124    0.571473
     81          6           0        8.882449   -1.872625   -1.272326
     82          6           0       11.934095    1.706235   -2.383179
     83          6           0       12.736270    2.420904    2.245086
     84          6           0        9.743300   -1.196169    3.491157
     85          7           0       10.368080    0.055928   -1.540134
     86          6           0        9.572421   -0.930331   -2.086131
     87          6           0        9.530477   -0.881561   -3.584853
     88          6           0       10.803350    0.017601   -3.911344
     89          6           0       11.049570    0.677469   -2.561082
     90          6           0       12.078498   -0.563536   -4.688113
     91          6           0        8.145330   -0.392554   -4.215924
     92          6           0        7.311341    0.649932   -3.413348
     93          1           0        6.687973    1.732153   -4.261765
     94          7           0       12.092681    1.907052    0.027201
     95          6           0       12.353336    2.379027   -1.265284
     96          6           0       13.060795    3.629773   -1.237412
     97          6           0       13.298260    3.887432    0.133830
     98          6           0       12.692108    2.754568    0.894850
     99          6           0       13.619653    4.228424   -2.529206
    100          6           0       14.086641    5.131145    0.603685
    101          8           0       14.461777    6.005634   -0.183911
    102          6           0       14.412522    5.182996    2.036949
    103          7           0       11.080948    0.577431    2.586456
    104          6           0       12.088485    1.414542    3.035451
    105          6           0       12.239120    1.405505    4.572635
    106          6           0       11.074135    0.386968    4.909649
    107          6           0       10.564333   -0.072105    3.616450
    108          6           0       13.550155    1.018682    5.180909
    109          6           0        9.872486    1.061599    5.745915
    110          6           0        9.462699    0.191044    6.905092
    111          7           0        9.733831   -1.409181    1.080226
    112          6           0        9.295846   -1.829031    2.322561
    113          6           0        8.302069   -2.915609    2.165818
    114          6           0        8.109058   -2.969326    0.741506
    115          6           0        8.988846   -2.043816    0.168180
    116          6           0        7.451117   -3.586233    3.166315
    117          6           0        7.340624   -3.543275   -0.383598
    118          8           0        6.408244   -4.313047   -0.361136
    119          6           0        7.835413   -2.892623   -1.715390
    120          6           0        8.281830   -3.925977   -2.650485
    121          8           0        7.851977   -4.224709   -3.764935
    122          8           0        9.164143   -4.774846   -1.932041
    123          6           0        9.779074   -5.864081   -2.720543
    124          1           0       12.364960    2.001149   -3.342796
    125          1           0       13.402941    2.996585    2.890344
    126          1           0        9.451380   -1.592995    4.465106
    127          1           0        9.655801   -1.882214   -3.998332
    128          1           0       10.349978    0.766557   -4.561153
    129          1           0       11.982775   -1.582970   -5.061446
    130          1           0       12.976665   -0.625163   -4.073759
    131          1           0       12.206344   -0.018733   -5.623902
    132          1           0        7.523450   -1.246512   -4.482460
    133          1           0        8.393462    0.034461   -5.187588
    134          1           0        7.915335    1.102925   -2.626569
    135          1           0        6.480825    0.151499   -2.914198
    136          1           0       13.668911    5.317758   -2.524362
    137          1           0       12.934990    4.010850   -3.348544
    138          1           0       14.626839    3.823388   -2.630102
    139          1           0       15.159674    4.418857    2.249244
    140          1           0       13.503896    5.054445    2.625980
    141          1           0       14.840384    6.173512    2.191329
    142          1           0       11.859822    2.358911    4.941140
    143          1           0       11.620151   -0.462005    5.320955
    144          1           0       13.353601    0.881667    6.244377
    145          1           0       14.198671    1.892730    5.120860
    146          1           0       13.963716    0.145559    4.674816
    147          1           0        9.065647    1.237037    5.034463
    148          1           0       10.026519    2.080902    6.102281
    149          1           0        8.470388   -0.204514    6.689733
    150          1           0        9.231290    0.771462    7.798832
    151          1           0       10.125707   -0.671325    6.971604
    152          1           0        7.596433   -3.272607    4.201126
    153          1           0        7.727927   -4.639403    3.133085
    154          1           0        6.473649   -3.199039    2.879374
    155          1           0        6.964475   -2.360395   -2.097166
    156          1           0       10.821306   -5.808372   -2.404214
    157          1           0        9.754233   -5.853289   -3.810243
    158          1           0        9.427355   -6.776272   -2.238209
 ---------------------------------------------------------------------

 SCF Done:  E(RwB97XD) =  -4070.60501247     A.U. after   20 cycles

 Excitation energies and oscillator strengths:

 Excited State   1:      Singlet-A      1.6249 eV  763.03 nm  f=0.4032  <S**2>=0.000
     310 -> 316       -0.17881
     312 -> 314        0.68457
     310 <- 316       -0.11340
 This state for optimization and/or second-order correction.
 Total Energy, E(TD-HF/TD-DFT) =  -4070.54529871
 Copying the excited state density for this state as the 1-particle RhoCI density.

 Excited State   2:      Singlet-A      1.6615 eV  746.21 nm  f=0.3600  <S**2>=0.000
     309 -> 315       -0.18767
     311 -> 313        0.68143
     309 <- 315       -0.11471

 Excited State   3:      Singlet-A      2.1416 eV  578.94 nm  f=0.1166  <S**2>=0.000
     310 -> 314        0.64033
     312 -> 316        0.27514

 Excited State   4:      Singlet-A      2.1477 eV  577.28 nm  f=0.0878  <S**2>=0.000
     309 -> 313        0.62560
     311 -> 315        0.30553

 Excited State   5:      Singlet-A      3.5821 eV  346.12 nm  f=0.0000  <S**2>=0.000
     312 -> 313        0.70695

 The electronic state is 1-A.
 Alpha  occ. eigenvalues --  -46.95443 -46.95330 -19.29561 -19.29450 -19.25467
 Alpha  occ. eigenvalues --  -19.24532 -19.24175 -19.24158 -19.24051 -19.23866
 Alpha  occ. eigenvalues --  -14.46832 -14.46778 -14.46658 -14.46209 -14.44637
 Alpha  occ. eigenvalues --  -14.44250 -14.43760 -14.43620 -10.43579 -10.43006
 Alpha  occ. eigenvalues --  -10.39378 -10.39226 -10.39133 -10.39067 -10.35942
 Alpha  occ. eigenvalues --  -10.35683 -10.35193 -10.35182 -10.35151 -10.35008
 Alpha  occ. eigenvalues --  -10.34989 -10.34725 -10.34652 -10.34523 -10.34418
 Alpha  occ. eigenvalues --  -10.34132 -10.34074 -10.33927 -10.33659 -10.33386
 Alpha  occ. eigenvalues --  -10.33174 -10.32933 -10.32793 -10.32787 -10.32587
 Alpha  occ. eigenvalues --  -10.32556 -10.32406 -10.32356 -10.32316 -10.32307
 Alpha  occ. eigenvalues --  -10.32249 -10.32243 -10.32164 -10.32123 -10.32114
 Alpha  occ. eigenvalues --  -10.31723 -10.31703 -10.31660 -10.31622 -10.31538
 Alpha  occ. eigenvalues --  -10.31500 -10.31492 -10.31415 -10.31280 -10.31197
 Alpha  occ. eigenvalues --  -10.31102 -10.30985 -10.30830 -10.30818 -10.30734
 Alpha  occ. eigenvalues --  -10.30539 -10.30405 -10.30304 -10.30209 -10.30111
 Alpha  occ. eigenvalues --  -10.30077 -10.30065 -10.29892 -10.29889 -10.29586
 Alpha  occ. eigenvalues --  -10.29435 -10.29249 -10.29199 -10.29028 -10.28717
 Alpha  occ. eigenvalues --  -10.28621  -3.21411  -3.21181  -1.94983  -1.94781
 Alpha  occ. eigenvalues --   -1.94550  -1.94374  -1.94260  -1.94180  -1.17732
 Alpha  occ. eigenvalues --   -1.16952  -1.12613  -1.12599  -1.12050  -1.11584
 Alpha  occ. eigenvalues --   -1.09091  -1.08837  -1.07054  -1.06171  -1.05710
 Alpha  occ. eigenvalues --   -1.05207  -1.04674  -1.04507  -1.04379  -1.03574
 Alpha  occ. eigenvalues --   -0.95174  -0.94417  -0.91510  -0.91157  -0.90954
 Alpha  occ. eigenvalues --   -0.90524  -0.89866  -0.89790  -0.89537  -0.88916
 Alpha  occ. eigenvalues --   -0.88810  -0.88674  -0.88148  -0.87384  -0.86722
 Alpha  occ. eigenvalues --   -0.86359  -0.86106  -0.85628  -0.84653  -0.84469
 Alpha  occ. eigenvalues --   -0.84250  -0.84228  -0.82783  -0.82686  -0.82087
 Alpha  occ. eigenvalues --   -0.81855  -0.80238  -0.79981  -0.79445  -0.79038
 Alpha  occ. eigenvalues --   -0.78733  -0.78552  -0.78127  -0.77702  -0.77692
 Alpha  occ. eigenvalues --   -0.76361  -0.74622  -0.74379  -0.74110  -0.72855
 Alpha  occ. eigenvalues --   -0.71328  -0.71249  -0.70891  -0.70287  -0.70066
 Alpha  occ. eigenvalues --   -0.69730  -0.68945  -0.68809  -0.68341  -0.67214
 Alpha  occ. eigenvalues --   -0.66885  -0.66673  -0.66516  -0.66497  -0.65971
 Alpha  occ. eigenvalues --   -0.65745  -0.64514  -0.63920  -0.62245  -0.62037
 Alpha  occ. eigenvalues --   -0.61459  -0.61389  -0.60928  -0.60901  -0.60584
 Alpha  occ. eigenvalues --   -0.60260  -0.60207  -0.59521  -0.59493  -0.59183
 Alpha  occ. eigenvalues --   -0.58289  -0.57762  -0.57725  -0.57563  -0.57331
 Alpha  occ. eigenvalues --   -0.57033  -0.56859  -0.56552  -0.56519  -0.55777
 Alpha  occ. eigenvalues --   -0.55462  -0.55371  -0.55189  -0.55090  -0.54858
 Alpha  occ. eigenvalues --   -0.54693  -0.54643  -0.54610  -0.54554  -0.54105
 Alpha  occ. eigenvalues --   -0.53912  -0.53644  -0.53534  -0.53522  -0.53176
 Alpha  occ. eigenvalues --   -0.53035  -0.52743  -0.52557  -0.52342  -0.52222
 Alpha  occ. eigenvalues --   -0.52205  -0.51719  -0.51540  -0.51485  -0.51405
 Alpha  occ. eigenvalues --   -0.51242  -0.51106  -0.51068  -0.50807  -0.50736
 Alpha  occ. eigenvalues --   -0.50487  -0.50403  -0.50187  -0.50085  -0.49956
 Alpha  occ. eigenvalues --   -0.49664  -0.49646  -0.49197  -0.49188  -0.48990
 Alpha  occ. eigenvalues --   -0.48862  -0.48514  -0.48451  -0.48195  -0.48177
 Alpha  occ. eigenvalues --   -0.48123  -0.47820  -0.47690  -0.47639  -0.47305
 Alpha  occ. eigenvalues --   -0.47049  -0.47019  -0.46909  -0.46837  -0.46718
 Alpha  occ. eigenvalues --   -0.46624  -0.46562  -0.46557  -0.46253  -0.46188
 Alpha  occ. eigenvalues --   -0.46006  -0.45853  -0.45411  -0.45352  -0.45238
 Alpha  occ. eigenvalues --   -0.45151  -0.45027  -0.45014  -0.44835  -0.44736
 Alpha  occ. eigenvalues --   -0.44664  -0.44475  -0.44433  -0.44111  -0.44050
 Alpha  occ. eigenvalues --   -0.43947  -0.43660  -0.43650  -0.43572  -0.43301
 Alpha  occ. eigenvalues --   -0.43100  -0.43061  -0.42767  -0.42340  -0.42185
 Alpha  occ. eigenvalues --   -0.41881  -0.41693  -0.40982  -0.40671  -0.40415
 Alpha  occ. eigenvalues --   -0.40239  -0.39945  -0.39804  -0.39734  -0.39512
 Alpha  occ. eigenvalues --   -0.39391  -0.38899  -0.38509  -0.38481  -0.38085
 Alpha  occ. eigenvalues --   -0.37638  -0.37636  -0.37131  -0.36753  -0.36126
 Alpha  occ. eigenvalues --   -0.35906  -0.35559  -0.34745  -0.33486  -0.33450
 Alpha  occ. eigenvalues --   -0.33379  -0.33232  -0.33131  -0.32785  -0.32333
 Alpha  occ. eigenvalues --   -0.32159  -0.32047  -0.31823  -0.26006  -0.25600
 Alpha  occ. eigenvalues --   -0.23011  -0.22612
 Alpha virt. eigenvalues --   -0.06997  -0.06893  -0.00304   0.00583   0.02370
 Alpha virt. eigenvalues --    0.02735   0.04119   0.04572   0.04868   0.05653
 Alpha virt. eigenvalues --    0.06229   0.07477   0.07565   0.07994   0.08351

 Mulliken charges:
               1
     1  Mg   0.955711
     2  C   -0.016173
     3  C   -0.071832
     4  C   -0.061685
     5  C   -0.075468
     6  N   -0.370154
     7  C   -0.076416
     8  C   -0.019138
     9  C   -0.128279
    10  C    0.112391
    11  C    0.004274
    12  C    0.005707
    13  C   -0.087540
    14  H    0.044613
    15  N   -0.442657
    16  C    0.155302
    17  C   -0.170838
    18  C   -0.084961
    19  C    0.094723
    20  C    0.080286
    21  C    0.058830
    22  O   -0.231567
    23  C   -0.015554
    24  N   -0.372911
    25  C    0.091369
    26  C   -0.107401
    27  C   -0.062923
    28  C    0.055550
    29  C    0.009128
    30  C    0.009769
    31  C   -0.064208
    32  N   -0.405594
    33  C    0.114519
    34  C   -0.207885
    35  C   -0.015997
    36  C    0.137375
    37  C    0.069748
    38  C    0.120056
    39  O   -0.196401
    40  C   -0.032784
    41  C    0.261112
    42  O   -0.260999
    43  O   -0.368612
    44  C    0.150713
    45  H   -0.002659
    46  H    0.022478
    47  H   -0.005154
    48  H    0.035566
    49  H    0.041250
    50  H    0.032990
    51  H    0.028272
    52  H    0.050602
    53  H    0.018395
    54  H    0.026418
    55  H    0.050615
    56  H    0.057668
    57  H    0.044925
    58  H    0.041453
    59  H    0.050360
    60  H    0.068769
    61  H    0.058596
    62  H    0.044606
    63  H    0.041977
    64  H    0.041087
    65  H    0.028248
    66  H    0.042184
    67  H    0.055126
    68  H    0.035758
    69  H    0.040770
    70  H    0.024491
    71  H    0.026385
    72  H    0.047184
    73  H    0.017641
    74  H    0.060310
    75  H    0.049736
    76  H    0.082549
    77  H    0.044523
    78  H    0.059145
    79  H    0.054537
    80  Mg   0.956494
    81  C   -0.040705
    82  C   -0.109692
    83  C   -0.099761
    84  C   -0.098632
    85  N   -0.351221
    86  C    0.005649
    87  C   -0.079422
    88  C   -0.050077
    89  C    0.025621
    90  C    0.014845
    91  C   -0.014104
    92  C   -0.131536
    93  H    0.041486
    94  N   -0.438233
    95  C    0.180568
    96  C   -0.147128
    97  C   -0.107015
    98  C    0.207179
    99  C    0.079792
   100  C    0.051224
   101  O   -0.236260
   102  C   -0.010271
   103  N   -0.368953
   104  C    0.022498
   105  C   -0.081693
   106  C   -0.120593
   107  C    0.043042
   108  C    0.052841
   109  C   -0.004558
   110  C   -0.029101
   111  N   -0.430932
   112  C    0.160521
   113  C   -0.200652
   114  C   -0.051367
   115  C    0.127611
   116  C    0.085770
   117  C    0.113337
   118  O   -0.186596
   119  C   -0.040747
   120  C    0.283403
   121  O   -0.239668
   122  O   -0.406770
   123  C    0.140539
   124  H   -0.005201
   125  H   -0.020614
   126  H   -0.017948
   127  H    0.039137
   128  H    0.033619
   129  H    0.033428
   130  H    0.047705
   131  H    0.043770
   132  H    0.053471
   133  H    0.034714
   134  H    0.067594
   135  H    0.053418
   136  H    0.060339
   137  H    0.036970
   138  H    0.064862
   139  H    0.070796
   140  H    0.065137
   141  H    0.051310
   142  H    0.031657
   143  H    0.032370
   144  H    0.042726
   145  H    0.037348
   146  H    0.047658
   147  H    0.039938
   148  H    0.030645
   149  H    0.027190
   150  H    0.038561
   151  H    0.043337
   152  H    0.018941
   153  H    0.066648
   154  H    0.074565
   155  H    0.069543
   156  H    0.037344
   157  H    0.075643
   158  H    0.056650
 Sum of Mulliken charges =  -0.00000

 Dipole moment (field-independent basis, Debye):
    X=              3.9868    Y=             -1.0103    Z=              8.5297  Tot=              9.4695
 Quadrupole moment (field-independent basis, Debye-Ang):
   XX=           -435.2108   YY=           -513.0135   ZZ=           -482.9252
   XY=            -29.0199   XZ=             -8.2855   YZ=            -11.7001

 Normal termination of Gaussian 16 at Mon Sep 20 00:14:59 2021.
