 Gaussian 16, Revision A.03,
 Gaussian 16:  ES64L-G16RevA.03 25-Dec-2016

 --------------------------------
 #p wB97XD/Def2SVP td=(nstates=5)
 --------------------------------

 --------------------------------
 TDDFT excited states in gaussian
 --------------------------------
 Symbolic Z-matrix:
 Charge =  0 Multiplicity = 1

                         Standard orientation:
 ---------------------------------------------------------------------
 Center     Atomic      Atomic             Coordinates (Angstroms)
 Number     Number       Type             X           Y           Z
 ---------------------------------------------------------------------
      1         12           0      -13.368732   -0.648694   -0.081315
      2          6           0      -11.638299    1.937323    1.471596
      3          6           0      -14.866403    1.649560   -2.135062
      4          6           0      -15.268124   -3.181803   -1.342228
      5          6           0      -11.885870   -2.808960    2.320288
      6          7           0      -13.292338    1.533477   -0.282920
      7          6           0      -12.414520    2.342065    0.389689
      8          6           0      -12.589420    3.747937   -0.189902
      9          6           0      -13.806984    3.672985   -1.093889
     10          6           0      -13.979410    2.162515   -1.206682
     11          6           0      -15.070859    4.395182   -0.711088
     12          6           0      -11.287009    4.377182   -0.879844
     13          6           0      -11.507648    5.710345   -1.664474
     14          1           0      -11.323182    7.053679   -0.911155
     15          7           0      -14.743255   -0.747949   -1.632979
     16          6           0      -15.252020    0.296952   -2.332183
     17          6           0      -16.237223   -0.248247   -3.229513
     18          6           0      -16.350289   -1.648845   -2.987125
     19          6           0      -15.465257   -1.923617   -1.946180
     20          6           0      -16.959015    0.641633   -4.193830
     21          6           0      -17.381635   -2.616796   -3.636784
     22          8           0      -17.647824   -3.697355   -3.141703
     23          6           0      -18.188571   -2.272387   -4.796142
     24          7           0      -13.520878   -2.578495    0.402475
     25          6           0      -14.338818   -3.481344   -0.276177
     26          6           0      -14.196538   -4.918801    0.253621
     27          6           0      -12.942493   -4.789091    1.183544
     28          6           0      -12.744888   -3.284579    1.268760
     29          6           0      -15.423989   -5.566245    0.746658
     30          6           0      -11.584711   -5.606616    0.811785
     31          6           0      -10.995246   -6.625837    1.791362
     32          7           0      -12.034697   -0.492864    1.655954
     33          6           0      -11.566452   -1.458594    2.502090
     34          6           0      -10.697250   -0.905415    3.485275
     35          6           0      -10.621906    0.479634    3.072451
     36          6           0      -11.535905    0.677295    1.999744
     37          6           0      -10.012436   -1.695390    4.534577
     38          6           0       -9.937603    1.726260    3.327921
     39          8           0       -9.042171    2.061056    4.078403
     40          6           0      -10.619423    2.756862    2.249597
     41          6           0      -11.092573    4.000571    2.909232
     42          8           0      -12.007994    4.035161    3.702035
     43          8           0      -10.401855    5.085926    2.518391
     44          6           0      -10.951394    6.437610    2.919780
     45          1           0      -15.306638    2.370203   -2.827789
     46          1           0      -15.893617   -3.973545   -1.759374
     47          1           0      -11.520132   -3.628753    2.942378
     48          1           0      -12.802464    4.299984    0.725393
     49          1           0      -13.564608    4.113635   -2.060615
     50          1           0      -15.675893    3.537994   -0.417286
     51          1           0      -15.475340    4.995492   -1.526153
     52          1           0      -14.954272    4.983725    0.199180
     53          1           0      -10.999454    3.580473   -1.566223
     54          1           0      -10.514872    4.542312   -0.129345
     55          1           0      -12.520578    5.782322   -2.058584
     56          1           0      -10.836167    5.705799   -2.523063
     57          1           0      -16.658632    1.688064   -4.255681
     58          1           0      -17.988886    0.678682   -3.840278
     59          1           0      -17.011803    0.227340   -5.200838
     60          1           0      -18.722065   -1.322940   -4.827439
     61          1           0      -18.905668   -3.030662   -5.110339
     62          1           0      -17.451008   -2.303329   -5.597831
     63          1           0      -13.888868   -5.383460   -0.683543
     64          1           0      -13.403955   -5.079459    2.127251
     65          1           0      -15.775483   -6.441911    0.200314
     66          1           0      -16.217171   -4.818393    0.727562
     67          1           0      -15.347399   -5.948604    1.764439
     68          1           0      -10.801858   -4.869784    0.633022
     69          1           0      -11.583204   -6.183235   -0.113985
     70          1           0      -10.117074   -6.282175    2.338618
     71          1           0      -10.857897   -7.626840    1.383408
     72          1           0      -11.711908   -6.743403    2.604297
     73          1           0      -10.735983   -2.378148    4.979394
     74          1           0       -9.519332   -1.069523    5.277894
     75          1           0       -9.365264   -2.411798    4.027561
     76          1           0       -9.809933    3.049641    1.581720
     77          1           0      -10.072770    7.074985    2.823005
     78          1           0      -11.320092    6.373476    3.943324
     79          1           0      -11.697604    6.704728    2.171358
     80         12           0       13.491085   -0.721868    0.007441
     81          6           0       11.418505    2.062473   -0.422437
     82          6           0       16.101198    1.529242    0.404695
     83          6           0       15.490816   -3.285386   -0.019506
     84          6           0       10.692656   -2.787733   -0.659396
     85          7           0       13.805097    1.579888   -0.409904
     86          6           0       12.797857    2.458967   -0.399544
     87          6           0       13.389807    3.827605   -0.344069
     88          6           0       14.912866    3.615421   -0.525286
     89          6           0       14.985139    2.154571   -0.127165
     90          6           0       15.567581    3.907331   -1.876618
     91          6           0       13.060076    4.551982    0.999589
     92          6           0       12.498568    6.009875    0.956728
     93          1           0       12.907504    6.948424   -0.221108
     94          7           0       15.545750   -0.869569    0.324137
     95          6           0       16.379924    0.190697    0.653003
     96          6           0       17.662818   -0.371700    0.924062
     97          6           0       17.561417   -1.799957    0.680454
     98          6           0       16.176550   -2.068129    0.322523
     99          6           0       18.925542    0.448048    1.268505
    100          6           0       18.666362   -2.895038    0.700850
    101          8           0       18.478704   -4.046367    0.464969
    102          6           0       20.049654   -2.434316    1.116330
    103          7           0       13.103720   -2.724991   -0.286100
    104          6           0       14.135353   -3.598117   -0.313767
    105          6           0       13.708311   -5.070946   -0.562732
    106          6           0       12.128837   -4.911196   -0.494435
    107          6           0       11.924123   -3.401562   -0.450433
    108          6           0       14.315034   -5.615788   -1.981065
    109          6           0       11.460955   -5.749124    0.640736
    110          6           0       11.124836   -5.041811    1.941382
    111          7           0       11.419244   -0.493526   -0.420070
    112          6           0       10.415137   -1.411012   -0.573520
    113          6           0        9.123450   -0.662983   -0.766705
    114          6           0        9.494540    0.699425   -0.708835
    115          6           0       10.916043    0.781028   -0.536559
    116          6           0        7.778458   -1.226562   -1.137069
    117          6           0        8.997848    2.071184   -0.783924
    118          8           0        7.837587    2.449497   -0.968983
    119          6           0       10.189877    2.959844   -0.441280
    120          6           0       10.245597    4.000060   -1.523184
    121          8           0       10.686254    3.823380   -2.644173
    122          8           0        9.559214    5.033750   -1.064498
    123          6           0        9.087027    6.024294   -2.019169
    124          1           0       16.944196    2.222468    0.387050
    125          1           0       16.110853   -4.168313    0.147291
    126          1           0        9.827488   -3.426688   -0.849915
    127          1           0       12.966292    4.421838   -1.153153
    128          1           0       15.395361    4.309758    0.162729
    129          1           0       14.915740    4.304034   -2.655173
    130          1           0       16.040114    3.006325   -2.268769
    131          1           0       16.348891    4.640810   -1.678692
    132          1           0       13.873275    4.515980    1.724210
    133          1           0       12.292626    3.874598    1.373861
    134          1           0       12.863096    6.446629    1.887351
    135          1           0       11.410149    5.962681    0.980545
    136          1           0       19.775210    0.221537    0.624336
    137          1           0       19.324231    0.200155    2.252343
    138          1           0       18.776870    1.528671    1.267772
    139          1           0       20.045809   -1.874741    2.051953
    140          1           0       20.477162   -1.868380    0.288557
    141          1           0       20.733670   -3.281835    1.159908
    142          1           0       14.060665   -5.746072    0.216916
    143          1           0       11.622153   -5.298948   -1.378076
    144          1           0       13.447435   -5.676998   -2.638185
    145          1           0       14.666484   -6.646823   -1.935864
    146          1           0       15.002679   -4.922504   -2.466738
    147          1           0       12.236380   -6.459821    0.926954
    148          1           0       10.594731   -6.310613    0.291351
    149          1           0       12.006191   -4.431934    2.143498
    150          1           0       11.008784   -5.888651    2.617362
    151          1           0       10.305986   -4.324643    1.992327
    152          1           0        7.701245   -2.289783   -1.364648
    153          1           0        7.407454   -0.712143   -2.023653
    154          1           0        7.114772   -0.926281   -0.326846
    155          1           0       10.060983    3.573827    0.450292
    156          1           0        9.215244    5.857594   -3.088210
    157          1           0        9.717087    6.885688   -1.795405
    158          1           0        8.176721    6.471923   -1.620140
 ---------------------------------------------------------------------

 SCF Done:  E(RwB97XD) =  -4070.60990766     A.U. after   19 cycles

 Excitation energies and oscillator strengths:

 Excited State   1:      Singlet-A      1.6385 eV  756.69 nm  f=0.4354  <S**2>=0.000
     309 -> 315       -0.18427
     311 -> 313        0.68234
     309 <- 315       -0.11749
 This state for optimization and/or second-order correction.
 Total Energy, E(TD-HF/TD-DFT) =  -4070.54969362
 Copying the excited state density for this state as the 1-particle RhoCI density.

 Excited State   2:      Singlet-A      1.6776 eV  739.05 nm  f=0.3635  <S**2>=0.000
     310 -> 316       -0.19151
     312 -> 314        0.68044
     310 <- 316       -0.11840

 Excited State   3:      Singlet-A      2.1600 eV  574.00 nm  f=0.0702  <S**2>=0.000
     310 -> 314        0.63359
     312 -> 316        0.28205

 Excited State   4:      Singlet-A      2.1629 eV  573.24 nm  f=0.1171  <S**2>=0.000
     309 -> 313        0.62411
     311 -> 315        0.29981

 Excited State   5:      Singlet-A      3.2552 eV  380.88 nm  f=0.0003  <S**2>=0.000
     306 -> 313        0.22668
     307 -> 313        0.64161

 The electronic state is 1-A.
 Alpha  occ. eigenvalues --  -46.95093 -46.94204 -19.31466 -19.29613 -19.24598
 Alpha  occ. eigenvalues --  -19.24508 -19.24089 -19.23697 -19.23529 -19.23178
 Alpha  occ. eigenvalues --  -14.47318 -14.46597 -14.46322 -14.46149 -14.43912
 Alpha  occ. eigenvalues --  -14.43670 -14.43259 -14.43005 -10.42999 -10.41775
 Alpha  occ. eigenvalues --  -10.39534 -10.39516 -10.38654 -10.38355 -10.35838
 Alpha  occ. eigenvalues --  -10.35779 -10.35645 -10.35285 -10.35118 -10.35104
 Alpha  occ. eigenvalues --  -10.35102 -10.34747 -10.34716 -10.34428 -10.33843
 Alpha  occ. eigenvalues --  -10.33726 -10.33660 -10.33589 -10.33572 -10.33495
 Alpha  occ. eigenvalues --  -10.33440 -10.33311 -10.32968 -10.32875 -10.32437
 Alpha  occ. eigenvalues --  -10.32404 -10.32364 -10.32342 -10.32187 -10.32162
 Alpha  occ. eigenvalues --  -10.32095 -10.32088 -10.31611 -10.31588 -10.31556
 Alpha  occ. eigenvalues --  -10.31463 -10.31295 -10.31218 -10.31178 -10.31150
 Alpha  occ. eigenvalues --  -10.31115 -10.31077 -10.31005 -10.30990 -10.30948
 Alpha  occ. eigenvalues --  -10.30935 -10.30895 -10.30878 -10.30679 -10.30589
 Alpha  occ. eigenvalues --  -10.30565 -10.30379 -10.30299 -10.30234 -10.30110
 Alpha  occ. eigenvalues --  -10.30000 -10.29908 -10.29901 -10.29775 -10.29575
 Alpha  occ. eigenvalues --  -10.29387 -10.29314 -10.29289 -10.29179 -10.29005
 Alpha  occ. eigenvalues --  -10.28853  -3.20999  -3.20281  -1.94594  -1.94156
 Alpha  occ. eigenvalues --   -1.93928  -1.93893  -1.93407  -1.93259  -1.20524
 Alpha  occ. eigenvalues --   -1.17993  -1.13484  -1.13181  -1.11877  -1.11715
 Alpha  occ. eigenvalues --   -1.10856  -1.08901  -1.07216  -1.06987  -1.06112
 Alpha  occ. eigenvalues --   -1.05743  -1.05320  -1.04638  -1.04396  -1.03819
 Alpha  occ. eigenvalues --   -0.95366  -0.94379  -0.91051  -0.90563  -0.90555
 Alpha  occ. eigenvalues --   -0.90448  -0.90259  -0.89897  -0.89479  -0.88992
 Alpha  occ. eigenvalues --   -0.88900  -0.88632  -0.88193  -0.87395  -0.86518
 Alpha  occ. eigenvalues --   -0.86343  -0.85586  -0.85579  -0.84546  -0.84470
 Alpha  occ. eigenvalues --   -0.84354  -0.83325  -0.83310  -0.82691  -0.82667
 Alpha  occ. eigenvalues --   -0.81924  -0.80746  -0.79838  -0.79701  -0.79270
 Alpha  occ. eigenvalues --   -0.79178  -0.78872  -0.78192  -0.77816  -0.77081
 Alpha  occ. eigenvalues --   -0.77000  -0.74754  -0.74654  -0.73779  -0.73657
 Alpha  occ. eigenvalues --   -0.71425  -0.71283  -0.70851  -0.70823  -0.70212
 Alpha  occ. eigenvalues --   -0.69960  -0.68917  -0.68027  -0.67523  -0.67355
 Alpha  occ. eigenvalues --   -0.67208  -0.66870  -0.66595  -0.66590  -0.66299
 Alpha  occ. eigenvalues --   -0.66188  -0.64774  -0.63404  -0.62515  -0.61797
 Alpha  occ. eigenvalues --   -0.61686  -0.61615  -0.61141  -0.60945  -0.60799
 Alpha  occ. eigenvalues --   -0.60443  -0.60064  -0.59949  -0.59266  -0.59212
 Alpha  occ. eigenvalues --   -0.58799  -0.58316  -0.57964  -0.57735  -0.57271
 Alpha  occ. eigenvalues --   -0.56879  -0.56708  -0.56701  -0.56609  -0.56470
 Alpha  occ. eigenvalues --   -0.55747  -0.55552  -0.55172  -0.55087  -0.54890
 Alpha  occ. eigenvalues --   -0.54791  -0.54524  -0.54412  -0.54216  -0.54012
 Alpha  occ. eigenvalues --   -0.53862  -0.53571  -0.53301  -0.53231  -0.53108
 Alpha  occ. eigenvalues --   -0.52956  -0.52897  -0.52752  -0.52437  -0.52247
 Alpha  occ. eigenvalues --   -0.52091  -0.51827  -0.51586  -0.51365  -0.51284
 Alpha  occ. eigenvalues --   -0.51236  -0.51071  -0.51029  -0.50889  -0.50722
 Alpha  occ. eigenvalues --   -0.50590  -0.50531  -0.50275  -0.50161  -0.49979
 Alpha  occ. eigenvalues --   -0.49853  -0.49633  -0.49359  -0.49219  -0.49030
 Alpha  occ. eigenvalues --   -0.48781  -0.48762  -0.48491  -0.48485  -0.48287
 Alpha  occ. eigenvalues --   -0.48156  -0.48003  -0.47890  -0.47795  -0.47756
 Alpha  occ. eigenvalues --   -0.47560  -0.47498  -0.47282  -0.47057  -0.47006
 Alpha  occ. eigenvalues --   -0.46916  -0.46719  -0.46709  -0.46387  -0.46310
 Alpha  occ. eigenvalues --   -0.46171  -0.45908  -0.45667  -0.45632  -0.45286
 Alpha  occ. eigenvalues --   -0.45266  -0.45132  -0.44991  -0.44863  -0.44773
 Alpha  occ. eigenvalues --   -0.44631  -0.44599  -0.44068  -0.43964  -0.43713
 Alpha  occ. eigenvalues --   -0.43674  -0.43510  -0.43446  -0.43200  -0.43073
 Alpha  occ. eigenvalues --   -0.42918  -0.42810  -0.42561  -0.42270  -0.42129
 Alpha  occ. eigenvalues --   -0.42090  -0.41499  -0.41424  -0.41171  -0.41161
 Alpha  occ. eigenvalues --   -0.40684  -0.40251  -0.39733  -0.39196  -0.39150
 Alpha  occ. eigenvalues --   -0.38986  -0.38875  -0.38747  -0.38385  -0.38266
 Alpha  occ. eigenvalues --   -0.38110  -0.38047  -0.36375  -0.36202  -0.36051
 Alpha  occ. eigenvalues --   -0.36024  -0.35304  -0.34953  -0.33404  -0.33243
 Alpha  occ. eigenvalues --   -0.33162  -0.32965  -0.32243  -0.32205  -0.32112
 Alpha  occ. eigenvalues --   -0.31886  -0.31199  -0.31037  -0.26107  -0.25682
 Alpha  occ. eigenvalues --   -0.22912  -0.22843
 Alpha virt. eigenvalues --   -0.07142  -0.06793   0.00054   0.00433   0.02257
 Alpha virt. eigenvalues --    0.02696   0.04847   0.05023   0.05930   0.06500
 Alpha virt. eigenvalues --    0.07361   0.07734   0.07905   0.07948   0.08232

 Mulliken charges:
               1
     1  Mg   0.969904
     2  C    0.026984
     3  C   -0.088497
     4  C   -0.071954
     5  C   -0.105523
     6  N   -0.331573
     7  C   -0.006692
     8  C   -0.044392
     9  C   -0.151712
    10  C    0.059768
    11  C    0.050761
    12  C    0.000369
    13  C   -0.115523
    14  H    0.029112
    15  N   -0.488199
    16  C    0.172344
    17  C   -0.166630
    18  C   -0.057512
    19  C    0.126009
    20  C    0.053186
    21  C    0.071559
    22  O   -0.233768
    23  C   -0.004396
    24  N   -0.422922
    25  C    0.060783
    26  C   -0.086706
    27  C   -0.053589
    28  C    0.048592
    29  C    0.042977
    30  C   -0.002772
    31  C   -0.069023
    32  N   -0.373735
    33  C    0.159974
    34  C   -0.166676
    35  C   -0.076190
    36  C    0.113125
    37  C    0.102497
    38  C    0.145450
    39  O   -0.193047
    40  C   -0.138732
    41  C    0.241399
    42  O   -0.254419
    43  O   -0.372467
    44  C    0.133521
    45  H   -0.016258
    46  H    0.028680
    47  H    0.001670
    48  H    0.035318
    49  H    0.021912
    50  H    0.039143
    51  H    0.043575
    52  H    0.038562
    53  H    0.034557
    54  H    0.060981
    55  H    0.043622
    56  H    0.059202
    57  H    0.039680
    58  H    0.049867
    59  H    0.047190
    60  H    0.056536
    61  H    0.050101
    62  H    0.049743
    63  H    0.038402
    64  H    0.031768
    65  H    0.040545
    66  H    0.046734
    67  H    0.027898
    68  H    0.036162
    69  H    0.035522
    70  H    0.039393
    71  H    0.045720
    72  H    0.018493
    73  H    0.034775
    74  H    0.072752
    75  H    0.044398
    76  H    0.067555
    77  H    0.062710
    78  H    0.081960
    79  H    0.059467
    80  Mg   0.943916
    81  C   -0.010042
    82  C   -0.053565
    83  C   -0.049972
    84  C   -0.089658
    85  N   -0.281553
    86  C    0.032714
    87  C   -0.102357
    88  C   -0.079038
    89  C   -0.023306
    90  C    0.044063
    91  C   -0.008099
    92  C   -0.108817
    93  H    0.034584
    94  N   -0.486545
    95  C    0.194282
    96  C   -0.162127
    97  C   -0.110838
    98  C    0.127667
    99  C    0.066738
   100  C    0.057531
   101  O   -0.198032
   102  C   -0.024971
   103  N   -0.388425
   104  C    0.068257
   105  C   -0.106252
   106  C   -0.052063
   107  C    0.081543
   108  C    0.015000
   109  C   -0.034372
   110  C   -0.035132
   111  N   -0.431024
   112  C    0.126652
   113  C   -0.181486
   114  C   -0.031423
   115  C    0.144837
   116  C    0.071978
   117  C    0.142846
   118  O   -0.213650
   119  C   -0.092500
   120  C    0.223506
   121  O   -0.247916
   122  O   -0.326968
   123  C    0.146673
   124  H   -0.006276
   125  H    0.024636
   126  H   -0.006557
   127  H    0.040424
   128  H    0.020987
   129  H    0.046917
   130  H    0.041441
   131  H    0.029912
   132  H    0.038475
   133  H    0.025690
   134  H    0.053048
   135  H    0.060656
   136  H    0.037096
   137  H    0.040658
   138  H    0.034209
   139  H    0.057413
   140  H    0.052105
   141  H    0.039841
   142  H    0.049995
   143  H    0.031344
   144  H    0.019044
   145  H    0.045815
   146  H    0.058947
   147  H    0.022716
   148  H    0.029580
   149  H    0.030082
   150  H    0.044300
   151  H    0.041809
   152  H    0.038317
   153  H    0.061835
   154  H    0.059719
   155  H    0.073562
   156  H    0.085350
   157  H    0.026903
   158  H    0.057352
 Sum of Mulliken charges =  -0.00000

 Dipole moment (field-independent basis, Debye):
    X=             -1.0397    Y=              1.4013    Z=             -3.2372  Tot=              3.6775
 Quadrupole moment (field-independent basis, Debye-Ang):
   XX=           -471.3200   YY=           -451.8216   ZZ=           -518.6379
   XY=             32.6932   XZ=             91.9129   YZ=            -18.5900

 Normal termination of Gaussian 16 at Mon Sep 20 04:45:03 2021.
