 Gaussian 16, Revision A.03,
 Gaussian 16:  ES64L-G16RevA.03 25-Dec-2016

 --------------------------------
 #p wB97XD/Def2SVP td=(nstates=5)
 --------------------------------

 --------------------------------
 TDDFT excited states in gaussian
 --------------------------------
 Symbolic Z-matrix:
 Charge =  0 Multiplicity = 1

                         Standard orientation:
 ---------------------------------------------------------------------
 Center     Atomic      Atomic             Coordinates (Angstroms)
 Number     Number       Type             X           Y           Z
 ---------------------------------------------------------------------
      1         12           0       24.992695    0.044312    0.065364
      2          6           0       21.737082   -1.053700   -0.602938
      3          6           0       24.983967    1.302010   -3.156249
      4          6           0       27.957109    1.433120    0.717642
      5          6           0       24.466201   -0.537227    3.471976
      6          7           0       23.317789    0.260657   -1.676992
      7          6           0       22.135050   -0.381795   -1.724527
      8          6           0       21.384528   -0.170813   -3.017519
      9          6           0       22.617730    0.329840   -3.861966
     10          6           0       23.719215    0.717047   -2.880570
     11          6           0       23.144613   -0.819296   -4.762341
     12          6           0       20.166136    0.738685   -2.814266
     13          6           0       20.269124    1.962561   -1.880455
     14          1           0       19.752684    3.279397   -2.448008
     15          7           0       26.282839    1.180962   -1.042927
     16          6           0       26.135695    1.474483   -2.372706
     17          6           0       27.445308    1.843912   -2.925481
     18          6           0       28.327985    2.052269   -1.791317
     19          6           0       27.520883    1.529580   -0.646847
     20          6           0       27.643177    2.296850   -4.422610
     21          6           0       29.733227    2.658568   -1.819038
     22          8           0       30.275380    2.896126   -2.862299
     23          6           0       30.465044    2.917717   -0.533830
     24          7           0       25.953270    0.580305    1.940346
     25          6           0       27.273537    1.066386    1.971389
     26          6           0       27.857085    1.180456    3.443038
     27          6           0       26.701476    0.465608    4.292835
     28          6           0       25.637133    0.099420    3.159694
     29          6           0       29.335388    0.637198    3.776656
     30          6           0       26.075739    1.279523    5.515529
     31          6           0       25.660903    0.281248    6.706060
     32          7           0       23.456417   -0.706160    1.267069
     33          6           0       23.428859   -0.965060    2.622357
     34          6           0       22.181035   -1.641815    2.954337
     35          6           0       21.464878   -1.786800    1.738174
     36          6           0       22.260285   -1.121199    0.736953
     37          6           0       21.812480   -2.242703    4.285495
     38          6           0       20.207660   -2.214923    1.042518
     39          8           0       19.176087   -2.659446    1.494576
     40          6           0       20.409068   -1.791764   -0.474477
     41          6           0       20.368216   -3.059739   -1.282334
     42          8           0       19.311734   -3.677099   -1.567841
     43          8           0       21.635542   -3.340376   -1.772123
     44          6           0       21.701635   -4.383259   -2.740648
     45          1           0       25.018995    1.618887   -4.200753
     46          1           0       28.980940    1.668564    1.016381
     47          1           0       24.401122   -0.892442    4.502654
     48          1           0       21.090248   -1.116449   -3.472401
     49          1           0       22.471767    1.185215   -4.520216
     50          1           0       24.223099   -0.673680   -4.828332
     51          1           0       22.610382   -0.837787   -5.711215
     52          1           0       23.125376   -1.842083   -4.384683
     53          1           0       19.413258    0.114389   -2.334077
     54          1           0       19.815920    1.058013   -3.795910
     55          1           0       21.318757    2.140419   -1.647801
     56          1           0       19.665555    1.763229   -0.995444
     57          1           0       27.316473    3.313024   -4.645087
     58          1           0       27.123670    1.603458   -5.084073
     59          1           0       28.654947    2.214344   -4.817948
     60          1           0       31.380724    3.488000   -0.693432
     61          1           0       30.724576    2.005572    0.003883
     62          1           0       29.784390    3.602100   -0.026745
     63          1           0       27.822175    2.262702    3.562256
     64          1           0       27.045115   -0.487055    4.694849
     65          1           0       30.023464    1.466673    3.617700
     66          1           0       29.600947   -0.211764    3.147308
     67          1           0       29.349471    0.292352    4.810775
     68          1           0       25.120948    1.727257    5.240065
     69          1           0       26.748590    2.071119    5.846225
     70          1           0       24.589238    0.328544    6.899871
     71          1           0       26.189143    0.564621    7.615954
     72          1           0       25.776090   -0.792301    6.560669
     73          1           0       21.827864   -1.451836    5.034660
     74          1           0       22.548714   -2.997777    4.561871
     75          1           0       20.805922   -2.660634    4.288010
     76          1           0       19.492506   -1.254924   -0.718040
     77          1           0       22.719227   -4.451699   -3.124573
     78          1           0       20.927109   -4.267986   -3.499082
     79          1           0       21.577154   -5.368131   -2.290580
     80         12           0      -24.886474    0.583624    0.451645
     81          6           0      -21.930477   -1.275319    0.378179
     82          6           0      -26.582988   -2.425599   -0.149062
     83          6           0      -27.730988    2.270896   -0.059076
     84          6           0      -23.026645    3.443719   -0.000231
     85          7           0      -24.336265   -1.684428    0.245171
     86          6           0      -23.041054   -2.095391    0.200815
     87          6           0      -22.962399   -3.654297   -0.045023
     88          6           0      -24.487042   -3.959338   -0.468735
     89          6           0      -25.191270   -2.626988   -0.161934
     90          6           0      -24.506015   -4.167990   -2.024726
     91          6           0      -22.613245   -4.328729    1.332393
     92          6           0      -22.607729   -5.880745    1.387430
     93          1           0      -23.182449   -6.789244    2.433221
     94          7           0      -26.867792   -0.024851    0.169593
     95          6           0      -27.411544   -1.306412   -0.019151
     96          6           0      -28.794766   -1.163266   -0.201162
     97          6           0      -29.171638    0.156589    0.008108
     98          6           0      -27.903390    0.865090    0.058545
     99          6           0      -29.657525   -2.369794   -0.377039
    100          6           0      -30.582425    0.832482    0.002300
    101          8           0      -30.790839    2.021713    0.217312
    102          6           0      -31.875106    0.014616   -0.064125
    103          7           0      -25.279889    2.548747   -0.083567
    104          6           0      -26.546803    3.020083   -0.086870
    105          6           0      -26.634034    4.557902   -0.140466
    106          6           0      -25.129565    4.926897   -0.263677
    107          6           0      -24.409486    3.618261    0.007906
    108          6           0      -27.637587    5.115756   -1.203621
    109          6           0      -24.615389    6.111968    0.598888
    110          6           0      -24.431229    5.848284    2.033092
    111          7           0      -22.895514    1.063729    0.322982
    112          6           0      -22.294042    2.217670    0.149076
    113          6           0      -20.835450    2.095396    0.239579
    114          6           0      -20.683797    0.675530    0.340913
    115          6           0      -21.937635    0.096338    0.349029
    116          6           0      -19.847557    3.108488    0.587125
    117          6           0      -19.677667   -0.363354    0.475229
    118          8           0      -18.479396   -0.286978    0.626139
    119          6           0      -20.481863   -1.668201    0.427624
    120          6           0      -20.006929   -2.587479   -0.702545
    121          8           0      -20.297447   -2.444166   -1.861686
    122          8           0      -19.151834   -3.533552   -0.189904
    123          6           0      -18.655006   -4.469185   -1.224957
    124          1           0      -27.107919   -3.380605   -0.205223
    125          1           0      -28.645538    2.866064   -0.010618
    126          1           0      -22.689489    4.481649   -0.012075
    127          1           0      -22.300705   -3.914481   -0.871591
    128          1           0      -24.935228   -4.817833    0.033032
    129          1           0      -24.918392   -3.354226   -2.620384
    130          1           0      -25.247891   -4.910951   -2.318554
    131          1           0      -23.532762   -4.411534   -2.450347
    132          1           0      -23.308294   -3.930218    2.070950
    133          1           0      -21.645395   -3.932946    1.641352
    134          1           0      -21.563284   -6.140891    1.213013
    135          1           0      -23.213544   -6.108362    0.511215
    136          1           0      -29.132435   -3.324423   -0.419228
    137          1           0      -30.343135   -2.171375   -1.201991
    138          1           0      -30.244181   -2.399126    0.541564
    139          1           0      -32.024777   -0.494291   -1.016403
    140          1           0      -32.772944    0.557970    0.230848
    141          1           0      -31.805900   -0.727031    0.731879
    142          1           0      -27.029764    4.707107    0.863754
    143          1           0      -24.997999    5.140371   -1.324444
    144          1           0      -28.458093    4.418415   -1.369430
    145          1           0      -27.114850    5.257745   -2.149863
    146          1           0      -28.104507    6.050885   -0.893702
    147          1           0      -25.408349    6.843818    0.448150
    148          1           0      -23.723721    6.539944    0.140371
    149          1           0      -23.458873    5.383090    2.194242
    150          1           0      -25.252906    5.253525    2.431628
    151          1           0      -24.373828    6.770424    2.612182
    152          1           0      -20.404165    3.852385    1.157620
    153          1           0      -19.387902    3.710017   -0.197241
    154          1           0      -19.071426    2.599410    1.157601
    155          1           0      -20.358972   -2.166898    1.389594
    156          1           0      -17.629525   -4.741893   -0.976430
    157          1           0      -18.497207   -4.047345   -2.217780
    158          1           0      -19.237666   -5.389791   -1.231068
 ---------------------------------------------------------------------

 SCF Done:  E(RwB97XD) =  -4070.62191185     A.U. after   19 cycles

 Excitation energies and oscillator strengths:

 Excited State   1:      Singlet-A      1.6935 eV  732.10 nm  f=0.6443  <S**2>=0.000
     309 -> 315        0.12439
     310 -> 316       -0.14869
     311 -> 313        0.42413
     312 -> 314        0.53197
 This state for optimization and/or second-order correction.
 Total Energy, E(TD-HF/TD-DFT) =  -4070.55967550
 Copying the excited state density for this state as the 1-particle RhoCI density.

 Excited State   2:      Singlet-A      1.6943 eV  731.77 nm  f=0.1027  <S**2>=0.000
     309 -> 315        0.15559
     310 -> 316        0.11916
     311 -> 313        0.52976
     312 -> 314       -0.42584

 Excited State   3:      Singlet-A      2.1842 eV  567.64 nm  f=0.1017  <S**2>=0.000
     309 -> 313        0.63333
     311 -> 315       -0.30093

 Excited State   4:      Singlet-A      2.2137 eV  560.07 nm  f=0.1128  <S**2>=0.000
     310 -> 314        0.64262
     312 -> 316        0.27816

 Excited State   5:      Singlet-A      3.4913 eV  355.12 nm  f=0.1738  <S**2>=0.000
     307 -> 313        0.53218
     307 -> 317        0.10512
     309 -> 313        0.15391
     311 -> 315        0.39126

 The electronic state is 1-A.
 Alpha  occ. eigenvalues --  -46.96721 -46.95026 -19.31229 -19.30986 -19.25310
 Alpha  occ. eigenvalues --  -19.24966 -19.24550 -19.24472 -19.24059 -19.23821
 Alpha  occ. eigenvalues --  -14.46829 -14.46824 -14.46394 -14.45589 -14.45115
 Alpha  occ. eigenvalues --  -14.44026 -14.43759 -14.43667 -10.43829 -10.43604
 Alpha  occ. eigenvalues --  -10.40174 -10.39788 -10.39271 -10.38459 -10.36937
 Alpha  occ. eigenvalues --  -10.35933 -10.35686 -10.35527 -10.35164 -10.35100
 Alpha  occ. eigenvalues --  -10.34941 -10.34656 -10.34543 -10.34540 -10.34434
 Alpha  occ. eigenvalues --  -10.34178 -10.33941 -10.33915 -10.33783 -10.33712
 Alpha  occ. eigenvalues --  -10.33544 -10.33540 -10.33232 -10.33003 -10.32727
 Alpha  occ. eigenvalues --  -10.32644 -10.32619 -10.32570 -10.32546 -10.32483
 Alpha  occ. eigenvalues --  -10.32461 -10.32428 -10.32148 -10.32124 -10.32020
 Alpha  occ. eigenvalues --  -10.31972 -10.31887 -10.31798 -10.31715 -10.31700
 Alpha  occ. eigenvalues --  -10.31663 -10.31624 -10.31610 -10.31541 -10.31499
 Alpha  occ. eigenvalues --  -10.31347 -10.31126 -10.30985 -10.30879 -10.30796
 Alpha  occ. eigenvalues --  -10.30310 -10.30263 -10.30231 -10.30135 -10.30101
 Alpha  occ. eigenvalues --  -10.30097 -10.30072 -10.29950 -10.29914 -10.29849
 Alpha  occ. eigenvalues --  -10.29766 -10.29682 -10.29298 -10.29076 -10.28906
 Alpha  occ. eigenvalues --  -10.28278  -3.22567  -3.21032  -1.96110  -1.95699
 Alpha  occ. eigenvalues --   -1.95518  -1.94606  -1.94169  -1.93989  -1.18962
 Alpha  occ. eigenvalues --   -1.18610  -1.13734  -1.12864  -1.12628  -1.12479
 Alpha  occ. eigenvalues --   -1.10936  -1.09228  -1.06936  -1.06779  -1.05944
 Alpha  occ. eigenvalues --   -1.05774  -1.05332  -1.04934  -1.04477  -1.03888
 Alpha  occ. eigenvalues --   -0.95770  -0.94447  -0.91258  -0.90875  -0.90488
 Alpha  occ. eigenvalues --   -0.90280  -0.90067  -0.89571  -0.89435  -0.89246
 Alpha  occ. eigenvalues --   -0.89110  -0.88085  -0.87961  -0.87652  -0.86742
 Alpha  occ. eigenvalues --   -0.85954  -0.85489  -0.85231  -0.84597  -0.84274
 Alpha  occ. eigenvalues --   -0.83789  -0.83443  -0.82832  -0.82734  -0.82342
 Alpha  occ. eigenvalues --   -0.82325  -0.80478  -0.79492  -0.79478  -0.79204
 Alpha  occ. eigenvalues --   -0.78615  -0.78485  -0.78306  -0.78023  -0.77263
 Alpha  occ. eigenvalues --   -0.76781  -0.74775  -0.74426  -0.74023  -0.73734
 Alpha  occ. eigenvalues --   -0.71929  -0.71842  -0.71317  -0.71104  -0.70289
 Alpha  occ. eigenvalues --   -0.70204  -0.69189  -0.69002  -0.67809  -0.67310
 Alpha  occ. eigenvalues --   -0.66835  -0.66825  -0.66754  -0.66602  -0.66384
 Alpha  occ. eigenvalues --   -0.65946  -0.65675  -0.64452  -0.62077  -0.62062
 Alpha  occ. eigenvalues --   -0.61424  -0.61304  -0.61251  -0.60923  -0.60534
 Alpha  occ. eigenvalues --   -0.60216  -0.60137  -0.59696  -0.59318  -0.59318
 Alpha  occ. eigenvalues --   -0.58450  -0.58249  -0.58003  -0.57571  -0.57460
 Alpha  occ. eigenvalues --   -0.57440  -0.57202  -0.56985  -0.56528  -0.56193
 Alpha  occ. eigenvalues --   -0.55908  -0.55635  -0.55200  -0.55120  -0.55041
 Alpha  occ. eigenvalues --   -0.55002  -0.54744  -0.54570  -0.54484  -0.54002
 Alpha  occ. eigenvalues --   -0.53830  -0.53606  -0.53336  -0.53035  -0.53011
 Alpha  occ. eigenvalues --   -0.52889  -0.52629  -0.52476  -0.52461  -0.52247
 Alpha  occ. eigenvalues --   -0.51993  -0.51889  -0.51839  -0.51662  -0.51583
 Alpha  occ. eigenvalues --   -0.51481  -0.51343  -0.51138  -0.50875  -0.50868
 Alpha  occ. eigenvalues --   -0.50711  -0.50578  -0.50432  -0.50280  -0.49818
 Alpha  occ. eigenvalues --   -0.49489  -0.49405  -0.49252  -0.49158  -0.49024
 Alpha  occ. eigenvalues --   -0.48865  -0.48613  -0.48585  -0.48241  -0.48040
 Alpha  occ. eigenvalues --   -0.47988  -0.47875  -0.47611  -0.47605  -0.47434
 Alpha  occ. eigenvalues --   -0.47247  -0.47230  -0.47097  -0.46963  -0.46880
 Alpha  occ. eigenvalues --   -0.46811  -0.46610  -0.46322  -0.46159  -0.46094
 Alpha  occ. eigenvalues --   -0.45957  -0.45879  -0.45790  -0.45736  -0.45590
 Alpha  occ. eigenvalues --   -0.45583  -0.45374  -0.45236  -0.45216  -0.45150
 Alpha  occ. eigenvalues --   -0.44913  -0.44804  -0.44681  -0.44491  -0.44398
 Alpha  occ. eigenvalues --   -0.44283  -0.44226  -0.44151  -0.43909  -0.43781
 Alpha  occ. eigenvalues --   -0.43617  -0.43594  -0.43108  -0.42602  -0.42243
 Alpha  occ. eigenvalues --   -0.42126  -0.41804  -0.41479  -0.40990  -0.40834
 Alpha  occ. eigenvalues --   -0.40702  -0.40366  -0.40061  -0.39789  -0.39645
 Alpha  occ. eigenvalues --   -0.39334  -0.39289  -0.39209  -0.38788  -0.38772
 Alpha  occ. eigenvalues --   -0.38243  -0.38226  -0.36874  -0.36657  -0.36384
 Alpha  occ. eigenvalues --   -0.36228  -0.35379  -0.35369  -0.33592  -0.33540
 Alpha  occ. eigenvalues --   -0.33210  -0.33076  -0.32908  -0.32798  -0.32745
 Alpha  occ. eigenvalues --   -0.32232  -0.31841  -0.31302  -0.25939  -0.25701
 Alpha  occ. eigenvalues --   -0.23196  -0.22862
 Alpha virt. eigenvalues --   -0.06969  -0.06698  -0.00159   0.00624   0.02201
 Alpha virt. eigenvalues --    0.02514   0.03944   0.04163   0.04380   0.05418
 Alpha virt. eigenvalues --    0.06678   0.07383   0.07918   0.08098   0.08669

 Mulliken charges:
               1
     1  Mg   0.954683
     2  C    0.126894
     3  C   -0.086888
     4  C   -0.102778
     5  C   -0.086784
     6  N   -0.280225
     7  C   -0.106222
     8  C    0.024654
     9  C   -0.115336
    10  C    0.019706
    11  C    0.017997
    12  C    0.021126
    13  C   -0.133145
    14  H    0.032740
    15  N   -0.458887
    16  C    0.175495
    17  C   -0.148328
    18  C   -0.099952
    19  C    0.211659
    20  C    0.047836
    21  C    0.038168
    22  O   -0.200627
    23  C   -0.012843
    24  N   -0.368004
    25  C    0.007507
    26  C   -0.062968
    27  C   -0.084113
    28  C    0.069738
    29  C    0.005027
    30  C   -0.009948
    31  C   -0.094127
    32  N   -0.439731
    33  C    0.138977
    34  C   -0.213561
    35  C   -0.016224
    36  C    0.078798
    37  C    0.071686
    38  C    0.139964
    39  O   -0.173399
    40  C   -0.210979
    41  C    0.295885
    42  O   -0.266908
    43  O   -0.352105
    44  C    0.141322
    45  H    0.007238
    46  H   -0.025090
    47  H   -0.020891
    48  H    0.029500
    49  H    0.028333
    50  H    0.024543
    51  H    0.050175
    52  H    0.027452
    53  H    0.036993
    54  H    0.046205
    55  H    0.070654
    56  H    0.060487
    57  H    0.063281
    58  H    0.025802
    59  H    0.056064
    60  H    0.046973
    61  H    0.080147
    62  H    0.053747
    63  H    0.053703
    64  H    0.040249
    65  H    0.049428
    66  H    0.047493
    67  H    0.050466
    68  H    0.049772
    69  H    0.043973
    70  H    0.038471
    71  H    0.044445
    72  H    0.040057
    73  H    0.037459
    74  H    0.051949
    75  H    0.058909
    76  H    0.085158
    77  H    0.049496
    78  H    0.054976
    79  H    0.046598
    80  Mg   0.973406
    81  C   -0.006624
    82  C   -0.074284
    83  C   -0.111361
    84  C   -0.060524
    85  N   -0.282100
    86  C   -0.051720
    87  C   -0.080854
    88  C   -0.121371
    89  C    0.038090
    90  C    0.009307
    91  C   -0.013310
    92  C   -0.096428
    93  H    0.058559
    94  N   -0.474787
    95  C    0.176523
    96  C   -0.164549
    97  C   -0.081370
    98  C    0.151359
    99  C    0.071247
   100  C    0.085503
   101  O   -0.233822
   102  C   -0.021623
   103  N   -0.406282
   104  C    0.075786
   105  C   -0.112119
   106  C   -0.035687
   107  C   -0.010149
   108  C    0.035598
   109  C   -0.020863
   110  C   -0.015427
   111  N   -0.411433
   112  C    0.152346
   113  C   -0.157166
   114  C   -0.070543
   115  C    0.151296
   116  C    0.070535
   117  C    0.116363
   118  O   -0.187584
   119  C   -0.074785
   120  C    0.263743
   121  O   -0.227618
   122  O   -0.360617
   123  C    0.124771
   124  H   -0.012629
   125  H    0.022351
   126  H   -0.019471
   127  H    0.047412
   128  H    0.048710
   129  H    0.042525
   130  H    0.025836
   131  H    0.050566
   132  H    0.035452
   133  H    0.032177
   134  H    0.051149
   135  H    0.036212
   136  H    0.044478
   137  H    0.048659
   138  H    0.050184
   139  H    0.058379
   140  H    0.054752
   141  H    0.041289
   142  H    0.041014
   143  H    0.042835
   144  H    0.049031
   145  H    0.031768
   146  H    0.040066
   147  H    0.022749
   148  H    0.034926
   149  H    0.032074
   150  H    0.032795
   151  H    0.035422
   152  H    0.029552
   153  H    0.041880
   154  H    0.064023
   155  H    0.079236
   156  H    0.050010
   157  H    0.069102
   158  H    0.056054
 Sum of Mulliken charges =  -0.00000

 Dipole moment (field-independent basis, Debye):
    X=              1.6964    Y=             -1.8619    Z=              1.4140  Tot=              2.8886
 Quadrupole moment (field-independent basis, Debye-Ang):
   XX=           -144.2614   YY=           -481.2694   ZZ=           -484.8845
   XY=             45.6182   XZ=             45.3303   YZ=             17.2409

 Normal termination of Gaussian 16 at Sun Sep 19 17:47:42 2021.
