 Gaussian 16, Revision A.03,
 Gaussian 16:  ES64L-G16RevA.03 25-Dec-2016

 --------------------------------
 #p wB97XD/Def2SVP td=(nstates=5)
 --------------------------------

 --------------------------------
 TDDFT excited states in gaussian
 --------------------------------
 Symbolic Z-matrix:
 Charge =  0 Multiplicity = 1

                         Standard orientation:
 ---------------------------------------------------------------------
 Center     Atomic      Atomic             Coordinates (Angstroms)
 Number     Number       Type             X           Y           Z
 ---------------------------------------------------------------------
      1         12           0      -31.712580   -0.101068    0.313406
      2          6           0      -29.428079   -1.406860   -1.911903
      3          6           0      -32.725538    2.014804   -2.177386
      4          6           0      -33.749134    1.380261    2.563411
      5          6           0      -30.213322   -1.876819    2.899536
      6          7           0      -30.974345    0.298371   -1.797608
      7          6           0      -30.224794   -0.445683   -2.515978
      8          6           0      -30.111450   -0.060862   -4.080410
      9          6           0      -30.979823    1.258311   -4.044045
     10          6           0      -31.563803    1.276650   -2.552434
     11          6           0      -30.152590    2.630498   -4.267381
     12          6           0      -30.650492   -1.159789   -5.095349
     13          6           0      -29.961602   -1.255333   -6.502799
     14          1           0      -29.029543   -0.140944   -6.871621
     15          7           0      -33.071756    1.382780    0.206041
     16          6           0      -33.446673    2.135313   -0.975613
     17          6           0      -34.533356    3.031852   -0.595319
     18          6           0      -34.765321    2.940897    0.799805
     19          6           0      -33.880094    1.841109    1.245295
     20          6           0      -35.174231    3.815168   -1.683869
     21          6           0      -35.779410    3.668572    1.713248
     22          8           0      -35.826541    3.590438    2.904840
     23          6           0      -36.672084    4.702535    0.997621
     24          7           0      -31.926966   -0.108875    2.471036
     25          6           0      -32.797411    0.555652    3.163136
     26          6           0      -32.530530    0.437375    4.690559
     27          6           0      -31.475893   -0.690257    4.795497
     28          6           0      -31.172962   -0.948411    3.300722
     29          6           0      -32.067066    1.787009    5.278930
     30          6           0      -31.997789   -1.924602    5.593110
     31          6           0      -32.143982   -1.704548    7.107502
     32          7           0      -30.125904   -1.405454    0.507625
     33          6           0      -29.709979   -2.120792    1.616471
     34          6           0      -28.658947   -2.996143    1.168685
     35          6           0      -28.438353   -2.760553   -0.221404
     36          6           0      -29.424137   -1.785118   -0.533734
     37          6           0      -27.930468   -3.882978    1.999525
     38          6           0      -27.743672   -3.129645   -1.413468
     39          8           0      -26.768110   -3.928075   -1.541403
     40          6           0      -28.298596   -2.161549   -2.529120
     41          6           0      -27.179540   -1.389853   -3.026094
     42          8           0      -26.728678   -0.385156   -2.476497
     43          8           0      -26.658010   -2.076145   -4.093116
     44          6           0      -25.354360   -1.544175   -4.543253
     45          1           0      -33.052027    2.719689   -2.944249
     46          1           0      -34.453103    1.886710    3.228053
     47          1           0      -29.825052   -2.464584    3.734494
     48          1           0      -29.057111    0.188451   -4.202726
     49          1           0      -31.743414    1.225170   -4.820921
     50          1           0      -29.102080    2.426671   -4.058119
     51          1           0      -30.523248    3.397026   -3.587007
     52          1           0      -30.212631    3.075359   -5.261191
     53          1           0      -31.688938   -0.870310   -5.254180
     54          1           0      -30.848601   -2.147932   -4.678681
     55          1           0      -30.664528   -1.343672   -7.331078
     56          1           0      -29.309879   -2.128941   -6.518675
     57          1           0      -34.615051    4.730669   -1.879049
     58          1           0      -36.247848    3.941155   -1.543243
     59          1           0      -35.125782    3.200310   -2.582279
     60          1           0      -37.464294    4.272256    0.384156
     61          1           0      -35.934788    5.249267    0.410629
     62          1           0      -37.137734    5.451760    1.637187
     63          1           0      -33.496993    0.107026    5.070494
     64          1           0      -30.562807   -0.295167    5.240721
     65          1           0      -31.601401    2.476013    4.573940
     66          1           0      -31.290696    1.772726    6.044600
     67          1           0      -32.967226    2.243638    5.690294
     68          1           0      -31.283849   -2.739575    5.482235
     69          1           0      -32.951559   -2.253838    5.179382
     70          1           0      -31.933485   -0.654116    7.308510
     71          1           0      -31.301885   -2.177206    7.613261
     72          1           0      -33.044382   -2.059331    7.608433
     73          1           0      -28.689557   -4.356699    2.622118
     74          1           0      -27.211641   -3.427271    2.680299
     75          1           0      -27.331123   -4.536738    1.365061
     76          1           0      -28.627247   -2.852090   -3.306252
     77          1           0      -24.653322   -1.739155   -3.731205
     78          1           0      -25.430301   -0.510781   -4.879901
     79          1           0      -25.045585   -2.135812   -5.405209
     80         12           0       31.462560    0.452270   -0.505983
     81          6           0       29.233841   -1.982184    0.575352
     82          6           0       29.093919    2.923506    0.411126
     83          6           0       33.884313    2.752960   -0.427902
     84          6           0       33.918812   -2.068299   -0.711460
     85          7           0       29.469647    0.457866    0.751140
     86          6           0       28.708499   -0.684846    0.807685
     87          6           0       27.329262   -0.401175    1.314449
     88          6           0       27.195515    1.162898    1.017516
     89          6           0       28.675921    1.598048    0.729728
     90          6           0       26.198228    1.570510   -0.180794
     91          6           0       27.167438   -0.907806    2.839106
     92          6           0       25.814759   -1.230392    3.229505
     93          1           0       25.333385   -0.466381    4.481173
     94          7           0       31.485677    2.552831   -0.254963
     95          6           0       30.397660    3.392318    0.114498
     96          6           0       30.884567    4.761469    0.120647
     97          6           0       32.276129    4.756730   -0.141874
     98          6           0       32.599221    3.309325   -0.377129
     99          6           0       30.025597    5.899884    0.528435
    100          6           0       33.195738    6.048557   -0.112911
    101          8           0       32.643320    7.118696    0.137343
    102          6           0       34.613788    6.044541   -0.673439
    103          7           0       33.570903    0.298569   -0.462492
    104          6           0       34.311175    1.432253   -0.555323
    105          6           0       35.937211    1.138116   -0.524989
    106          6           0       35.932189   -0.434598   -0.838261
    107          6           0       34.421787   -0.805816   -0.700225
    108          6           0       36.796012    1.915204   -1.593269
    109          6           0       36.798757   -1.243105    0.129107
    110          6           0       37.967670   -2.113747   -0.390949
    111          7           0       31.500101   -1.610821   -0.427995
    112          6           0       32.545316   -2.477286   -0.566401
    113          6           0       32.044830   -3.824150   -0.548677
    114          6           0       30.707852   -3.642061   -0.029819
    115          6           0       30.473823   -2.258965    0.055082
    116          6           0       32.851880   -5.079556   -0.712624
    117          6           0       29.560047   -4.359726    0.484307
    118          8           0       29.301569   -5.524141    0.442883
    119          6           0       28.456084   -3.301568    0.875259
    120          6           0       27.176095   -3.354653    0.012330
    121          8           0       27.162215   -3.363423   -1.199815
    122          8           0       26.048450   -3.492745    0.847737
    123          6           0       24.792995   -3.731680    0.202208
    124          1           0       28.297428    3.632174    0.644115
    125          1           0       34.718688    3.411471   -0.178313
    126          1           0       34.708895   -2.815732   -0.804045
    127          1           0       26.555079   -0.783874    0.648600
    128          1           0       26.854508    1.650280    1.931615
    129          1           0       25.443343    2.205905    0.282197
    130          1           0       25.744581    0.707588   -0.667330
    131          1           0       26.792442    2.153131   -0.885350
    132          1           0       27.508064   -0.053039    3.423201
    133          1           0       27.920323   -1.695641    2.875339
    134          1           0       25.805484   -2.302543    3.422044
    135          1           0       25.121037   -0.958448    2.434005
    136          1           0       28.973451    5.617773    0.562903
    137          1           0       30.065080    6.684652   -0.227411
    138          1           0       30.294393    6.263515    1.520490
    139          1           0       35.308471    5.423240   -0.107316
    140          1           0       34.956936    7.079331   -0.698716
    141          1           0       34.550888    5.703214   -1.706768
    142          1           0       36.201306    1.318597    0.516659
    143          1           0       36.145791   -0.697342   -1.874560
    144          1           0       37.448848    2.628601   -1.091148
    145          1           0       36.132179    2.458655   -2.266711
    146          1           0       37.379988    1.165071   -2.127617
    147          1           0       36.191956   -1.851398    0.799450
    148          1           0       37.265340   -0.657194    0.920847
    149          1           0       37.856379   -3.196529   -0.327394
    150          1           0       38.806037   -1.873790    0.263454
    151          1           0       38.196358   -1.887338   -1.433057
    152          1           0       32.150473   -5.878297   -0.955019
    153          1           0       33.201331   -5.529067    0.216318
    154          1           0       33.703541   -4.995992   -1.387232
    155          1           0       28.197042   -3.589067    1.894635
    156          1           0       24.113871   -3.307954    0.942750
    157          1           0       24.537277   -4.790971    0.184770
    158          1           0       24.784832   -3.309677   -0.801956
 ---------------------------------------------------------------------

 SCF Done:  E(RwB97XD) =  -4070.59539354     A.U. after   19 cycles

 Excitation energies and oscillator strengths:

 Excited State   1:      Singlet-A      1.6352 eV  758.22 nm  f=0.3873  <S**2>=0.000
     309 -> 316        0.17853
     312 -> 313        0.68608
     309 <- 316        0.11658
 This state for optimization and/or second-order correction.
 Total Energy, E(TD-HF/TD-DFT) =  -4070.53530096
 Copying the excited state density for this state as the 1-particle RhoCI density.

 Excited State   2:      Singlet-A      1.7222 eV  719.93 nm  f=0.3816  <S**2>=0.000
     310 -> 315       -0.20374
     311 -> 314        0.67764
     310 <- 315       -0.11868

 Excited State   3:      Singlet-A      2.1613 eV  573.65 nm  f=0.1082  <S**2>=0.000
     310 -> 314        0.64086
     311 -> 315        0.28351

 Excited State   4:      Singlet-A      2.1962 eV  564.54 nm  f=0.1043  <S**2>=0.000
     309 -> 313        0.63437
     312 -> 316       -0.29407

 Excited State   5:      Singlet-A      3.3902 eV  365.72 nm  f=0.0209  <S**2>=0.000
     304 -> 313        0.56102
     306 -> 313       -0.12411
     308 -> 313       -0.35222
     312 -> 316        0.15599

 The electronic state is 1-A.
 Alpha  occ. eigenvalues --  -46.96143 -46.94730 -19.30334 -19.29993 -19.25645
 Alpha  occ. eigenvalues --  -19.25191 -19.24754 -19.24221 -19.23274 -19.23236
 Alpha  occ. eigenvalues --  -14.46915 -14.46778 -14.46607 -14.46094 -14.44822
 Alpha  occ. eigenvalues --  -14.44325 -14.43613 -14.43487 -10.43931 -10.42365
 Alpha  occ. eigenvalues --  -10.40409 -10.40257 -10.38765 -10.37965 -10.35919
 Alpha  occ. eigenvalues --  -10.35896 -10.35697 -10.35289 -10.35164 -10.35106
 Alpha  occ. eigenvalues --  -10.34973 -10.34798 -10.34751 -10.34517 -10.34452
 Alpha  occ. eigenvalues --  -10.34445 -10.34426 -10.34294 -10.33612 -10.33589
 Alpha  occ. eigenvalues --  -10.33345 -10.33138 -10.33050 -10.32991 -10.32869
 Alpha  occ. eigenvalues --  -10.32702 -10.32687 -10.32550 -10.32539 -10.32336
 Alpha  occ. eigenvalues --  -10.32245 -10.32231 -10.32120 -10.32087 -10.32014
 Alpha  occ. eigenvalues --  -10.31985 -10.31833 -10.31719 -10.31697 -10.31673
 Alpha  occ. eigenvalues --  -10.31628 -10.31572 -10.31139 -10.31136 -10.31132
 Alpha  occ. eigenvalues --  -10.31020 -10.30941 -10.30734 -10.30655 -10.30574
 Alpha  occ. eigenvalues --  -10.30485 -10.30470 -10.30355 -10.30352 -10.30197
 Alpha  occ. eigenvalues --  -10.30154 -10.30016 -10.29658 -10.29517 -10.29510
 Alpha  occ. eigenvalues --  -10.29416 -10.29363 -10.29185 -10.28622 -10.28454
 Alpha  occ. eigenvalues --  -10.28446  -3.22027  -3.20773  -1.95558  -1.95201
 Alpha  occ. eigenvalues --   -1.94958  -1.94358  -1.93904  -1.93746  -1.18217
 Alpha  occ. eigenvalues --   -1.17657  -1.14751  -1.12978  -1.12547  -1.10911
 Alpha  occ. eigenvalues --   -1.09382  -1.08929  -1.07381  -1.06886  -1.06289
 Alpha  occ. eigenvalues --   -1.05457  -1.04959  -1.04374  -1.03624  -1.02928
 Alpha  occ. eigenvalues --   -0.94476  -0.94182  -0.91180  -0.91094  -0.90258
 Alpha  occ. eigenvalues --   -0.90258  -0.90059  -0.89707  -0.89374  -0.88879
 Alpha  occ. eigenvalues --   -0.88795  -0.88780  -0.88376  -0.87755  -0.85986
 Alpha  occ. eigenvalues --   -0.85836  -0.85331  -0.85231  -0.84608  -0.84208
 Alpha  occ. eigenvalues --   -0.84152  -0.83632  -0.83090  -0.82973  -0.82226
 Alpha  occ. eigenvalues --   -0.82214  -0.80519  -0.79743  -0.79290  -0.79282
 Alpha  occ. eigenvalues --   -0.78680  -0.78274  -0.78041  -0.77647  -0.76883
 Alpha  occ. eigenvalues --   -0.76753  -0.74643  -0.74176  -0.73428  -0.73322
 Alpha  occ. eigenvalues --   -0.71297  -0.71133  -0.70717  -0.70403  -0.70145
 Alpha  occ. eigenvalues --   -0.69396  -0.68990  -0.68468  -0.67841  -0.67734
 Alpha  occ. eigenvalues --   -0.67293  -0.66825  -0.66752  -0.66444  -0.66089
 Alpha  occ. eigenvalues --   -0.66062  -0.64784  -0.63521  -0.62030  -0.61689
 Alpha  occ. eigenvalues --   -0.61427  -0.61352  -0.61068  -0.60973  -0.60516
 Alpha  occ. eigenvalues --   -0.60250  -0.59970  -0.59838  -0.59611  -0.59446
 Alpha  occ. eigenvalues --   -0.58323  -0.57974  -0.57576  -0.57274  -0.57150
 Alpha  occ. eigenvalues --   -0.56934  -0.56676  -0.56433  -0.55918  -0.55871
 Alpha  occ. eigenvalues --   -0.55299  -0.55172  -0.55102  -0.54896  -0.54668
 Alpha  occ. eigenvalues --   -0.54668  -0.54489  -0.54402  -0.54030  -0.53998
 Alpha  occ. eigenvalues --   -0.53787  -0.53684  -0.53579  -0.53233  -0.53058
 Alpha  occ. eigenvalues --   -0.52947  -0.52836  -0.52697  -0.52641  -0.52345
 Alpha  occ. eigenvalues --   -0.52149  -0.52005  -0.51672  -0.51570  -0.51306
 Alpha  occ. eigenvalues --   -0.51139  -0.51048  -0.51037  -0.50826  -0.50702
 Alpha  occ. eigenvalues --   -0.50472  -0.50361  -0.50354  -0.50115  -0.49914
 Alpha  occ. eigenvalues --   -0.49790  -0.49741  -0.49687  -0.49212  -0.48983
 Alpha  occ. eigenvalues --   -0.48957  -0.48911  -0.48559  -0.48354  -0.48342
 Alpha  occ. eigenvalues --   -0.48138  -0.48067  -0.47945  -0.47872  -0.47566
 Alpha  occ. eigenvalues --   -0.47522  -0.47159  -0.47061  -0.46871  -0.46753
 Alpha  occ. eigenvalues --   -0.46727  -0.46418  -0.46297  -0.46194  -0.46067
 Alpha  occ. eigenvalues --   -0.46012  -0.45885  -0.45725  -0.45446  -0.45440
 Alpha  occ. eigenvalues --   -0.45343  -0.45153  -0.45063  -0.44871  -0.44712
 Alpha  occ. eigenvalues --   -0.44658  -0.44607  -0.44541  -0.44414  -0.44200
 Alpha  occ. eigenvalues --   -0.44163  -0.43643  -0.43616  -0.43375  -0.43369
 Alpha  occ. eigenvalues --   -0.43076  -0.42939  -0.42872  -0.42512  -0.42347
 Alpha  occ. eigenvalues --   -0.42101  -0.41699  -0.41689  -0.41254  -0.40601
 Alpha  occ. eigenvalues --   -0.40165  -0.40120  -0.39876  -0.39682  -0.39518
 Alpha  occ. eigenvalues --   -0.39037  -0.39028  -0.38662  -0.38540  -0.38223
 Alpha  occ. eigenvalues --   -0.38219  -0.37556  -0.36735  -0.36276  -0.36232
 Alpha  occ. eigenvalues --   -0.35857  -0.35603  -0.35524  -0.33804  -0.33572
 Alpha  occ. eigenvalues --   -0.33439  -0.33332  -0.32427  -0.32419  -0.32256
 Alpha  occ. eigenvalues --   -0.31927  -0.31290  -0.31283  -0.26246  -0.25580
 Alpha  occ. eigenvalues --   -0.23040  -0.22970
 Alpha virt. eigenvalues --   -0.07109  -0.06751   0.00237   0.00266   0.02041
 Alpha virt. eigenvalues --    0.02527   0.04217   0.04269   0.04506   0.05718
 Alpha virt. eigenvalues --    0.06744   0.07101   0.07667   0.08304   0.08445

 Mulliken charges:
               1
     1  Mg   0.972986
     2  C    0.036523
     3  C   -0.076427
     4  C   -0.083504
     5  C   -0.099839
     6  N   -0.274961
     7  C   -0.097024
     8  C   -0.014318
     9  C   -0.137523
    10  C    0.065895
    11  C    0.000621
    12  C    0.023648
    13  C   -0.131727
    14  H    0.035228
    15  N   -0.532113
    16  C    0.160460
    17  C   -0.146750
    18  C   -0.099990
    19  C    0.147747
    20  C    0.050222
    21  C    0.084735
    22  O   -0.192562
    23  C   -0.045297
    24  N   -0.332439
    25  C    0.040083
    26  C   -0.054421
    27  C   -0.067529
    28  C    0.054677
    29  C    0.016554
    30  C   -0.022562
    31  C   -0.039111
    32  N   -0.427652
    33  C    0.163626
    34  C   -0.180227
    35  C    0.016065
    36  C    0.116841
    37  C    0.057360
    38  C    0.086147
    39  O   -0.253855
    40  C   -0.075496
    41  C    0.267824
    42  O   -0.262075
    43  O   -0.366890
    44  C    0.144979
    45  H   -0.003042
    46  H    0.012723
    47  H   -0.006251
    48  H    0.049163
    49  H    0.040262
    50  H    0.048179
    51  H    0.038262
    52  H    0.039841
    53  H    0.016293
    54  H    0.039531
    55  H    0.057664
    56  H    0.064721
    57  H    0.067847
    58  H    0.043819
    59  H    0.042696
    60  H    0.070909
    61  H    0.053266
    62  H    0.049669
    63  H    0.038213
    64  H    0.035329
    65  H    0.043609
    66  H    0.034034
    67  H    0.050538
    68  H    0.028763
    69  H    0.032090
    70  H    0.024455
    71  H    0.026120
    72  H    0.050564
    73  H    0.038289
    74  H    0.050033
    75  H    0.057930
    76  H    0.063387
    77  H    0.068102
    78  H    0.056054
    79  H    0.049013
    80  Mg   0.961311
    81  C   -0.078196
    82  C   -0.075624
    83  C   -0.094005
    84  C   -0.091105
    85  N   -0.325348
    86  C   -0.039462
    87  C   -0.084305
    88  C   -0.134161
    89  C    0.034723
    90  C    0.014948
    91  C    0.052934
    92  C   -0.094390
    93  H    0.019876
    94  N   -0.466651
    95  C    0.174769
    96  C   -0.161887
    97  C   -0.102786
    98  C    0.203784
    99  C    0.095500
   100  C    0.076039
   101  O   -0.234477
   102  C   -0.028165
   103  N   -0.403974
   104  C    0.073731
   105  C   -0.123956
   106  C   -0.024160
   107  C    0.034511
   108  C    0.024333
   109  C   -0.029750
   110  C   -0.054226
   111  N   -0.416406
   112  C    0.139583
   113  C   -0.160914
   114  C   -0.085640
   115  C    0.221631
   116  C    0.066586
   117  C    0.109023
   118  O   -0.181725
   119  C   -0.079734
   120  C    0.276365
   121  O   -0.220956
   122  O   -0.387249
   123  C    0.130547
   124  H    0.011437
   125  H   -0.019716
   126  H   -0.007341
   127  H    0.027319
   128  H    0.037144
   129  H    0.043869
   130  H    0.052444
   131  H    0.042171
   132  H    0.036905
   133  H    0.036971
   134  H    0.063456
   135  H    0.049720
   136  H    0.010702
   137  H    0.056760
   138  H    0.066350
   139  H    0.071087
   140  H    0.057623
   141  H    0.067768
   142  H    0.055941
   143  H    0.043566
   144  H    0.039928
   145  H    0.046121
   146  H    0.045222
   147  H    0.031550
   148  H    0.018914
   149  H    0.040058
   150  H    0.034066
   151  H    0.032252
   152  H    0.049876
   153  H    0.043567
   154  H    0.043537
   155  H    0.072478
   156  H    0.046055
   157  H    0.054221
   158  H    0.067042
 Sum of Mulliken charges =  -0.00000

 Dipole moment (field-independent basis, Debye):
    X=             -1.8356    Y=              4.0471    Z=             -2.3109  Tot=              5.0089
 Quadrupole moment (field-independent basis, Debye-Ang):
   XX=            -87.3121   YY=           -557.9358   ZZ=           -479.9776
   XY=             -0.2968   XZ=             53.7209   YZ=            -23.4104

 Normal termination of Gaussian 16 at Mon Sep 20 09:31:57 2021.
