 Gaussian 16, Revision A.03,
 Gaussian 16:  ES64L-G16RevA.03 25-Dec-2016

 --------------------------------
 #p wB97XD/Def2SVP td=(nstates=5)
 --------------------------------

 --------------------------------
 TDDFT excited states in gaussian
 --------------------------------
 Symbolic Z-matrix:
 Charge =  0 Multiplicity = 1

                         Standard orientation:
 ---------------------------------------------------------------------
 Center     Atomic      Atomic             Coordinates (Angstroms)
 Number     Number       Type             X           Y           Z
 ---------------------------------------------------------------------
      1         12           0       19.594344    0.346448    0.469574
      2          6           0       17.390172   -1.699111   -1.401607
      3          6           0       20.681734    1.580788   -2.614674
      4          6           0       21.620099    2.391936    2.048128
      5          6           0       18.947087   -1.581350    3.289960
      6          7           0       19.041547   -0.022876   -1.716527
      7          6           0       18.029795   -0.777318   -2.228685
      8          6           0       17.884535   -0.759214   -3.760015
      9          6           0       19.094691    0.255492   -4.083531
     10          6           0       19.623005    0.591694   -2.720431
     11          6           0       20.248000   -0.367134   -4.965789
     12          6           0       16.495525   -0.222361   -4.236528
     13          6           0       15.433186   -1.067840   -4.928182
     14          1           0       14.543818   -0.483685   -6.017808
     15          7           0       20.922425    1.855766   -0.160670
     16          6           0       21.289464    2.169473   -1.477271
     17          6           0       22.352402    3.147140   -1.407301
     18          6           0       22.533744    3.520007   -0.077748
     19          6           0       21.633705    2.618127    0.667154
     20          6           0       22.867027    3.728926   -2.679563
     21          6           0       23.498312    4.510670    0.573314
     22          8           0       23.575468    4.720829    1.787623
     23          6           0       24.288675    5.371160   -0.331863
     24          7           0       20.301288    0.365257    2.371727
     25          6           0       20.977204    1.436661    2.886489
     26          6           0       20.926068    1.436184    4.451991
     27          6           0       20.180316    0.146497    4.769198
     28          6           0       19.832245   -0.458269    3.380662
     29          6           0       22.328665    1.599595    5.123712
     30          6           0       18.947200    0.461160    5.629753
     31          6           0       18.657163   -0.412874    6.795329
     32          7           0       18.506130   -1.365461    0.899264
     33          6           0       18.306323   -2.022737    2.086854
     34          6           0       17.400828   -3.121482    1.930242
     35          6           0       16.878779   -3.023588    0.548384
     36          6           0       17.610443   -1.905488   -0.015799
     37          6           0       17.021328   -4.138172    3.020501
     38          6           0       15.967681   -3.579820   -0.483472
     39          8           0       15.078967   -4.443145   -0.387439
     40          6           0       16.278179   -2.721332   -1.778125
     41          6           0       16.699717   -3.810262   -2.714554
     42          8           0       17.812928   -4.299323   -2.864058
     43          8           0       15.719998   -4.142435   -3.509964
     44          6           0       15.866186   -5.313608   -4.408061
     45          1           0       20.809740    1.979199   -3.622981
     46          1           0       22.279843    2.977502    2.691286
     47          1           0       18.702618   -2.129610    4.201756
     48          1           0       18.120009   -1.759616   -4.125280
     49          1           0       18.854595    1.218947   -4.534273
     50          1           0       20.273632   -1.452758   -5.055880
     51          1           0       21.218103   -0.086596   -4.557042
     52          1           0       20.173280    0.050358   -5.970055
     53          1           0       16.705565    0.579576   -4.944444
     54          1           0       15.942899    0.191826   -3.394188
     55          1           0       14.743782   -1.229039   -4.099296
     56          1           0       16.016595   -1.930128   -5.251132
     57          1           0       22.691168    4.802254   -2.736506
     58          1           0       22.386652    3.269985   -3.544060
     59          1           0       23.941409    3.601128   -2.808216
     60          1           0       23.627374    5.827348   -1.068638
     61          1           0       24.954672    4.797278   -0.976388
     62          1           0       24.798404    6.197189    0.163045
     63          1           0       20.340091    2.333713    4.649237
     64          1           0       20.784609   -0.515288    5.389436
     65          1           0       23.130502    1.853289    4.430471
     66          1           0       22.673286    0.707369    5.645151
     67          1           0       22.257561    2.298101    5.957330
     68          1           0       18.134917    0.384721    4.908069
     69          1           0       18.950905    1.450655    6.086236
     70          1           0       17.635227   -0.754241    6.632035
     71          1           0       18.845308    0.123645    7.725250
     72          1           0       19.226850   -1.341892    6.826135
     73          1           0       17.709005   -4.981697    2.972471
     74          1           0       15.987630   -4.442530    2.857084
     75          1           0       17.127001   -3.724945    4.023823
     76          1           0       15.332584   -2.280804   -2.093648
     77          1           0       16.680864   -5.223280   -5.125726
     78          1           0       14.960488   -5.570149   -4.957253
     79          1           0       16.050611   -6.276842   -3.933367
     80         12           0      -19.539330   -0.547865   -0.454761
     81          6           0      -18.308591    2.879797   -0.417880
     82          6           0      -16.270046   -1.566634   -0.202830
     83          6           0      -20.611613   -3.379184    0.965188
     84          6           0      -22.699741    0.638366   -0.843347
     85          7           0      -17.525970    0.586362   -0.127780
     86          6           0      -17.270785    2.001620   -0.227056
     87          6           0      -15.759655    2.242425   -0.284279
     88          6           0      -15.155122    0.840442   -0.590595
     89          6           0      -16.358753   -0.164464   -0.316134
     90          6           0      -14.628068    0.683147   -2.094976
     91          6           0      -15.144257    3.018227    0.843455
     92          6           0      -15.965572    3.156560    2.147064
     93          1           0      -15.517055    3.840738    3.451360
     94          7           0      -18.567641   -2.324282    0.162935
     95          6           0      -17.205937   -2.527735    0.202306
     96          6           0      -16.960361   -3.947279    0.606412
     97          6           0      -18.206228   -4.392724    1.040651
     98          6           0      -19.216244   -3.365382    0.797723
     99          6           0      -15.585591   -4.515761    0.605667
    100          6           0      -18.464502   -5.778664    1.700301
    101          8           0      -17.500786   -6.487819    1.929285
    102          6           0      -19.788846   -6.242041    2.210030
    103          7           0      -21.416723   -1.148091    0.119820
    104          6           0      -21.581899   -2.460155    0.562090
    105          6           0      -23.063854   -2.818069    0.674308
    106          6           0      -23.754538   -1.686065   -0.169368
    107          6           0      -22.587561   -0.712155   -0.347119
    108          6           0      -23.519651   -4.231085    0.227849
    109          6           0      -25.029220   -1.038707    0.460854
    110          6           0      -26.421059   -1.436490   -0.213589
    111          7           0      -20.387126    1.353082   -0.688058
    112          6           0      -21.719131    1.662002   -0.922367
    113          6           0      -21.827025    3.062711   -1.248768
    114          6           0      -20.537094    3.538087   -0.976253
    115          6           0      -19.706860    2.433744   -0.662540
    116          6           0      -23.153642    3.758265   -1.599925
    117          6           0      -19.690357    4.691443   -0.979935
    118          8           0      -20.044659    5.841717   -1.308191
    119          6           0      -18.155129    4.329636   -0.757842
    120          6           0      -17.718591    5.235369    0.323459
    121          8           0      -18.293637    5.432613    1.399063
    122          8           0      -16.501933    5.710030   -0.039743
    123          6           0      -15.934585    6.801830    0.812181
    124          1           0      -15.231421   -1.887969   -0.105306
    125          1           0      -20.947397   -4.314996    1.417384
    126          1           0      -23.710301    0.970232   -1.089004
    127          1           0      -15.750926    2.838870   -1.196605
    128          1           0      -14.416558    0.525053    0.146607
    129          1           0      -13.549871    0.591076   -1.970300
    130          1           0      -14.946321    1.544676   -2.682479
    131          1           0      -15.043693   -0.259777   -2.452069
    132          1           0      -14.843293    3.976087    0.419551
    133          1           0      -14.233690    2.442103    1.011300
    134          1           0      -16.237342    2.133672    2.409623
    135          1           0      -16.882114    3.710398    1.942823
    136          1           0      -15.325667   -4.666679    1.653003
    137          1           0      -14.924351   -3.803549    0.113015
    138          1           0      -15.572696   -5.428414    0.008817
    139          1           0      -20.234570   -5.706350    3.047299
    140          1           0      -19.746147   -7.240943    2.643172
    141          1           0      -20.362568   -6.253727    1.283416
    142          1           0      -23.148215   -2.694058    1.754561
    143          1           0      -23.957252   -2.152374   -1.133762
    144          1           0      -23.664940   -4.923842    1.057372
    145          1           0      -22.742536   -4.687296   -0.384484
    146          1           0      -24.414340   -4.106586   -0.383155
    147          1           0      -25.003348    0.050433    0.505415
    148          1           0      -24.988713   -1.347993    1.505344
    149          1           0      -27.048733   -1.614672    0.659193
    150          1           0      -26.388068   -2.319925   -0.851384
    151          1           0      -26.693684   -0.615074   -0.875241
    152          1           0      -23.066859    4.619754   -2.262417
    153          1           0      -23.467300    4.102314   -0.614951
    154          1           0      -23.787456    3.088521   -2.180739
    155          1           0      -17.612294    4.480326   -1.692126
    156          1           0      -14.957341    7.089643    0.423004
    157          1           0      -15.793727    6.467314    1.840149
    158          1           0      -16.685541    7.583221    0.704390
 ---------------------------------------------------------------------

 SCF Done:  E(RwB97XD) =  -4070.57107969     A.U. after   19 cycles

 Excitation energies and oscillator strengths:

 Excited State   1:      Singlet-A      1.6106 eV  769.79 nm  f=0.3566  <S**2>=0.000
     309 -> 316        0.16147
     312 -> 313        0.68855
     309 <- 316        0.10998
 This state for optimization and/or second-order correction.
 Total Energy, E(TD-HF/TD-DFT) =  -4070.51189049
 Copying the excited state density for this state as the 1-particle RhoCI density.

 Excited State   2:      Singlet-A      1.7238 eV  719.27 nm  f=0.3823  <S**2>=0.000
     310 -> 315        0.18635
     311 -> 314        0.68175
     310 <- 315        0.11196

 Excited State   3:      Singlet-A      2.1685 eV  571.75 nm  f=0.1029  <S**2>=0.000
     310 -> 314        0.63396
     311 -> 315       -0.29500

 Excited State   4:      Singlet-A      2.2277 eV  556.55 nm  f=0.0763  <S**2>=0.000
     309 -> 313        0.61813
     312 -> 316       -0.32521

 Excited State   5:      Singlet-A      3.4479 eV  359.60 nm  f=0.0947  <S**2>=0.000
     299 -> 314        0.10604
     303 -> 314       -0.24491
     304 -> 314        0.18684
     308 -> 314        0.57179
     310 -> 314       -0.10077
     311 -> 315       -0.18658

 The electronic state is 1-A.
 Alpha  occ. eigenvalues --  -46.95636 -46.94885 -19.30546 -19.30479 -19.24695
 Alpha  occ. eigenvalues --  -19.24332 -19.24122 -19.23893 -19.23121 -19.22077
 Alpha  occ. eigenvalues --  -14.47189 -14.47050 -14.46501 -14.46177 -14.44476
 Alpha  occ. eigenvalues --  -14.44346 -14.43563 -14.43250 -10.42945 -10.42466
 Alpha  occ. eigenvalues --  -10.40021 -10.39505 -10.39449 -10.37508 -10.36044
 Alpha  occ. eigenvalues --  -10.35848 -10.35766 -10.35729 -10.35694 -10.35484
 Alpha  occ. eigenvalues --  -10.35298 -10.34992 -10.34948 -10.34931 -10.34908
 Alpha  occ. eigenvalues --  -10.34883 -10.34509 -10.34508 -10.33678 -10.33130
 Alpha  occ. eigenvalues --  -10.33046 -10.32933 -10.32830 -10.32790 -10.32786
 Alpha  occ. eigenvalues --  -10.32728 -10.32667 -10.32540 -10.32433 -10.32383
 Alpha  occ. eigenvalues --  -10.32379 -10.32233 -10.32159 -10.32037 -10.32021
 Alpha  occ. eigenvalues --  -10.31946 -10.31863 -10.31835 -10.31765 -10.31664
 Alpha  occ. eigenvalues --  -10.31652 -10.31543 -10.31534 -10.31374 -10.31257
 Alpha  occ. eigenvalues --  -10.31207 -10.31096 -10.31076 -10.31010 -10.30806
 Alpha  occ. eigenvalues --  -10.30775 -10.30684 -10.30443 -10.30442 -10.30332
 Alpha  occ. eigenvalues --  -10.30213 -10.30204 -10.29915 -10.29871 -10.29852
 Alpha  occ. eigenvalues --  -10.29742 -10.29716 -10.29462 -10.29129 -10.28656
 Alpha  occ. eigenvalues --  -10.27926  -3.21576  -3.20914  -1.95134  -1.94720
 Alpha  occ. eigenvalues --   -1.94524  -1.94506  -1.94038  -1.93891  -1.19965
 Alpha  occ. eigenvalues --   -1.18211  -1.12932  -1.12375  -1.10588  -1.09620
 Alpha  occ. eigenvalues --   -1.08837  -1.08650  -1.07507  -1.06811  -1.06129
 Alpha  occ. eigenvalues --   -1.06014  -1.04907  -1.04792  -1.03345  -1.02334
 Alpha  occ. eigenvalues --   -0.93861  -0.93786  -0.91497  -0.91243  -0.90971
 Alpha  occ. eigenvalues --   -0.90866  -0.90705  -0.90481  -0.89718  -0.88782
 Alpha  occ. eigenvalues --   -0.88692  -0.88627  -0.87980  -0.87055  -0.86274
 Alpha  occ. eigenvalues --   -0.86220  -0.85581  -0.85370  -0.84784  -0.84680
 Alpha  occ. eigenvalues --   -0.84646  -0.84241  -0.82897  -0.82774  -0.82509
 Alpha  occ. eigenvalues --   -0.82096  -0.80804  -0.80005  -0.79641  -0.79421
 Alpha  occ. eigenvalues --   -0.78786  -0.78402  -0.78098  -0.77903  -0.77172
 Alpha  occ. eigenvalues --   -0.77137  -0.74983  -0.74203  -0.73816  -0.73668
 Alpha  occ. eigenvalues --   -0.71544  -0.71238  -0.70948  -0.70124  -0.69605
 Alpha  occ. eigenvalues --   -0.69546  -0.68980  -0.68902  -0.68123  -0.67785
 Alpha  occ. eigenvalues --   -0.67356  -0.67205  -0.66886  -0.66664  -0.66206
 Alpha  occ. eigenvalues --   -0.65497  -0.64378  -0.64093  -0.63026  -0.61647
 Alpha  occ. eigenvalues --   -0.61498  -0.61099  -0.61010  -0.60951  -0.60474
 Alpha  occ. eigenvalues --   -0.59917  -0.59788  -0.59654  -0.59506  -0.59171
 Alpha  occ. eigenvalues --   -0.58757  -0.58744  -0.58143  -0.57555  -0.57082
 Alpha  occ. eigenvalues --   -0.56942  -0.56510  -0.56225  -0.56162  -0.56135
 Alpha  occ. eigenvalues --   -0.55777  -0.55611  -0.55562  -0.55421  -0.54916
 Alpha  occ. eigenvalues --   -0.54729  -0.54598  -0.54503  -0.54502  -0.54228
 Alpha  occ. eigenvalues --   -0.54063  -0.53719  -0.53363  -0.53357  -0.53126
 Alpha  occ. eigenvalues --   -0.52969  -0.52565  -0.52562  -0.52423  -0.51983
 Alpha  occ. eigenvalues --   -0.51878  -0.51873  -0.51681  -0.51528  -0.51515
 Alpha  occ. eigenvalues --   -0.51401  -0.51055  -0.50822  -0.50696  -0.50607
 Alpha  occ. eigenvalues --   -0.50470  -0.50244  -0.50134  -0.50052  -0.50024
 Alpha  occ. eigenvalues --   -0.49741  -0.49680  -0.49544  -0.49344  -0.49101
 Alpha  occ. eigenvalues --   -0.48839  -0.48764  -0.48577  -0.48460  -0.48273
 Alpha  occ. eigenvalues --   -0.48130  -0.48018  -0.47778  -0.47644  -0.47538
 Alpha  occ. eigenvalues --   -0.47406  -0.47396  -0.47097  -0.47075  -0.46981
 Alpha  occ. eigenvalues --   -0.46872  -0.46563  -0.46314  -0.46313  -0.46214
 Alpha  occ. eigenvalues --   -0.45943  -0.45915  -0.45827  -0.45384  -0.45293
 Alpha  occ. eigenvalues --   -0.45183  -0.45016  -0.44849  -0.44761  -0.44636
 Alpha  occ. eigenvalues --   -0.44470  -0.44291  -0.44215  -0.44044  -0.43982
 Alpha  occ. eigenvalues --   -0.43892  -0.43663  -0.43639  -0.43312  -0.43162
 Alpha  occ. eigenvalues --   -0.42941  -0.42764  -0.42710  -0.42330  -0.41986
 Alpha  occ. eigenvalues --   -0.41806  -0.41740  -0.41420  -0.41229  -0.40978
 Alpha  occ. eigenvalues --   -0.40429  -0.40363  -0.39884  -0.39338  -0.39290
 Alpha  occ. eigenvalues --   -0.39220  -0.38715  -0.38546  -0.38379  -0.38268
 Alpha  occ. eigenvalues --   -0.37788  -0.37781  -0.36428  -0.36298  -0.35796
 Alpha  occ. eigenvalues --   -0.35535  -0.35159  -0.34904  -0.34140  -0.33833
 Alpha  occ. eigenvalues --   -0.33727  -0.33147  -0.32619  -0.32501  -0.32304
 Alpha  occ. eigenvalues --   -0.31528  -0.31133  -0.30838  -0.26380  -0.25874
 Alpha  occ. eigenvalues --   -0.23023  -0.22562
 Alpha virt. eigenvalues --   -0.06903  -0.06873   0.00045   0.00147   0.01842
 Alpha virt. eigenvalues --    0.03165   0.04155   0.04489   0.04656   0.05766
 Alpha virt. eigenvalues --    0.07096   0.07684   0.07791   0.08325   0.08525

 Mulliken charges:
               1
     1  Mg   0.972793
     2  C    0.039488
     3  C   -0.094952
     4  C   -0.084722
     5  C   -0.089040
     6  N   -0.280248
     7  C   -0.033706
     8  C   -0.039325
     9  C   -0.125402
    10  C    0.009806
    11  C    0.001846
    12  C   -0.006385
    13  C   -0.125629
    14  H    0.045812
    15  N   -0.445434
    16  C    0.189180
    17  C   -0.135264
    18  C   -0.078196
    19  C    0.174104
    20  C    0.050583
    21  C    0.084325
    22  O   -0.232469
    23  C   -0.006979
    24  N   -0.424744
    25  C    0.030661
    26  C   -0.065412
    27  C   -0.064797
    28  C    0.113682
    29  C    0.012619
    30  C   -0.040723
    31  C   -0.047847
    32  N   -0.454761
    33  C    0.145828
    34  C   -0.198893
    35  C   -0.045518
    36  C    0.123125
    37  C    0.077678
    38  C    0.112835
    39  O   -0.226565
    40  C   -0.112958
    41  C    0.233118
    42  O   -0.268655
    43  O   -0.310184
    44  C    0.148265
    45  H    0.001880
    46  H    0.016065
    47  H   -0.006132
    48  H    0.060591
    49  H    0.045620
    50  H    0.052691
    51  H    0.037807
    52  H    0.037488
    53  H    0.038500
    54  H    0.032704
    55  H    0.062043
    56  H    0.051843
    57  H    0.054649
    58  H    0.035466
    59  H    0.048388
    60  H    0.039677
    61  H    0.049854
    62  H    0.061315
    63  H    0.053984
    64  H    0.031685
    65  H    0.057303
    66  H    0.025286
    67  H    0.035186
    68  H    0.036525
    69  H    0.031263
    70  H    0.037262
    71  H    0.043632
    72  H    0.025478
    73  H    0.056360
    74  H    0.061391
    75  H    0.025360
    76  H    0.075595
    77  H    0.050761
    78  H    0.052427
    79  H    0.053109
    80  Mg   0.954270
    81  C   -0.033218
    82  C   -0.082861
    83  C   -0.079764
    84  C   -0.083000
    85  N   -0.368528
    86  C   -0.053342
    87  C   -0.004733
    88  C   -0.142354
    89  C    0.044466
    90  C    0.037059
    91  C    0.030396
    92  C   -0.102147
    93  H    0.037286
    94  N   -0.470815
    95  C    0.144819
    96  C   -0.159932
    97  C   -0.079478
    98  C    0.169564
    99  C    0.104909
   100  C    0.036112
   101  O   -0.227512
   102  C    0.002019
   103  N   -0.386296
   104  C    0.091662
   105  C   -0.126896
   106  C   -0.015433
   107  C    0.025704
   108  C    0.031695
   109  C   -0.022316
   110  C   -0.061807
   111  N   -0.378384
   112  C    0.092538
   113  C   -0.180506
   114  C   -0.010826
   115  C    0.119099
   116  C    0.073294
   117  C    0.083779
   118  O   -0.250609
   119  C   -0.041322
   120  C    0.265261
   121  O   -0.260803
   122  O   -0.368596
   123  C    0.138624
   124  H    0.004164
   125  H   -0.041789
   126  H   -0.009055
   127  H    0.025706
   128  H    0.040037
   129  H    0.048733
   130  H    0.050450
   131  H    0.040822
   132  H    0.031539
   133  H    0.017701
   134  H    0.047122
   135  H    0.072027
   136  H    0.073589
   137  H    0.022241
   138  H    0.060961
   139  H    0.076681
   140  H    0.048907
   141  H    0.056587
   142  H    0.052205
   143  H    0.031493
   144  H    0.041505
   145  H    0.036524
   146  H    0.042366
   147  H    0.044465
   148  H    0.024542
   149  H    0.051159
   150  H    0.034938
   151  H    0.047420
   152  H    0.051585
   153  H    0.071728
   154  H    0.038716
   155  H    0.074304
   156  H    0.059697
   157  H    0.067168
   158  H    0.072686
 Sum of Mulliken charges =  -0.00000

 Dipole moment (field-independent basis, Debye):
    X=              1.4859    Y=              0.0754    Z=             -4.7126  Tot=              4.9419
 Quadrupole moment (field-independent basis, Debye-Ang):
   XX=           -396.1497   YY=           -552.0645   ZZ=           -473.6386
   XY=            188.4984   XZ=            -20.0994   YZ=             -6.4170

 Normal termination of Gaussian 16 at Mon Sep 20 12:11:54 2021.
