 Gaussian 16, Revision A.03,
 Gaussian 16:  ES64L-G16RevA.03 25-Dec-2016

 --------------------------------
 #p wB97XD/Def2SVP td=(nstates=5)
 --------------------------------

 --------------------------------
 TDDFT excited states in gaussian
 --------------------------------
 Symbolic Z-matrix:
 Charge =  0 Multiplicity = 1

                         Standard orientation:
 ---------------------------------------------------------------------
 Center     Atomic      Atomic             Coordinates (Angstroms)
 Number     Number       Type             X           Y           Z
 ---------------------------------------------------------------------
      1         12           0      -25.445878   -0.779080   -0.294498
      2          6           0      -26.458462    2.248721    1.369623
      3          6           0      -23.910432    1.203535   -2.610850
      4          6           0      -24.769288   -3.588430   -1.997802
      5          6           0      -27.440680   -2.507561    1.846596
      6          7           0      -25.174869    1.570832   -0.543737
      7          6           0      -25.658107    2.523259    0.305849
      8          6           0      -25.080146    3.820177   -0.117595
      9          6           0      -24.373541    3.531980   -1.471117
     10          6           0      -24.495030    1.993795   -1.649170
     11          6           0      -25.058953    4.282425   -2.657076
     12          6           0      -24.182108    4.500067    0.885415
     13          6           0      -23.739360    5.932382    0.633640
     14          1           0      -23.904506    6.883388    1.743704
     15          7           0      -24.393521   -1.142786   -1.975744
     16          6           0      -23.901987   -0.159530   -2.878179
     17          6           0      -23.138411   -0.884230   -3.911318
     18          6           0      -23.474862   -2.227210   -3.762641
     19          6           0      -24.311701   -2.362785   -2.556625
     20          6           0      -22.354892   -0.141959   -4.973688
     21          6           0      -23.029135   -3.451658   -4.590879
     22          8           0      -23.560418   -4.575475   -4.516754
     23          6           0      -21.882502   -3.260460   -5.497532
     24          7           0      -26.069757   -2.799457   -0.159712
     25          6           0      -25.679031   -3.795954   -0.927460
     26          6           0      -26.314207   -5.159734   -0.540523
     27          6           0      -26.938466   -4.807221    0.811415
     28          6           0      -26.772812   -3.305648    0.861989
     29          6           0      -27.371753   -5.623347   -1.598366
     30          6           0      -26.359773   -5.489403    2.030481
     31          6           0      -27.365196   -6.003887    3.075969
     32          7           0      -26.605664   -0.253727    1.322466
     33          6           0      -27.358670   -1.099998    2.106730
     34          6           0      -28.019916   -0.360886    3.224195
     35          6           0      -27.663924    0.929391    2.886951
     36          6           0      -26.872585    0.972995    1.732752
     37          6           0      -28.715115   -0.913699    4.426731
     38          6           0      -27.834545    2.306061    3.327566
     39          8           0      -28.425371    2.704219    4.325113
     40          6           0      -27.059780    3.238839    2.368653
     41          6           0      -27.981112    4.271934    1.969418
     42          8           0      -28.915648    4.169383    1.138606
     43          8           0      -27.603932    5.469395    2.496949
     44          6           0      -28.230803    6.675155    2.001090
     45          1           0      -23.342790    1.819080   -3.311441
     46          1           0      -24.692091   -4.473768   -2.632123
     47          1           0      -28.219617   -3.109488    2.318840
     48          1           0      -25.965439    4.430575   -0.290963
     49          1           0      -23.325914    3.833396   -1.465842
     50          1           0      -24.515514    4.900197   -3.372708
     51          1           0      -25.776841    4.942813   -2.170893
     52          1           0      -25.730506    3.673475   -3.262897
     53          1           0      -23.221780    3.990189    0.964029
     54          1           0      -24.505744    4.319626    1.910128
     55          1           0      -24.291173    6.364723   -0.199692
     56          1           0      -22.651452    5.889453    0.588468
     57          1           0      -22.511869   -0.512091   -5.986618
     58          1           0      -21.278922   -0.125781   -4.801289
     59          1           0      -22.626010    0.907112   -5.094736
     60          1           0      -21.068281   -2.807849   -4.931414
     61          1           0      -22.281150   -2.556051   -6.226763
     62          1           0      -21.549687   -4.257440   -5.783908
     63          1           0      -25.485389   -5.862266   -0.446823
     64          1           0      -28.013260   -4.963734    0.898633
     65          1           0      -28.381957   -5.604896   -1.190477
     66          1           0      -27.202837   -6.657020   -1.900221
     67          1           0      -27.290738   -4.908120   -2.417035
     68          1           0      -25.636028   -4.856592    2.543154
     69          1           0      -25.646617   -6.201475    1.616460
     70          1           0      -26.891367   -6.848753    3.574808
     71          1           0      -28.355688   -6.192330    2.660677
     72          1           0      -27.458778   -5.129946    3.720273
     73          1           0      -28.106601   -0.923820    5.331196
     74          1           0      -29.133253   -1.865886    4.101478
     75          1           0      -29.652897   -0.376706    4.574538
     76          1           0      -26.350325    3.757065    3.013739
     77          1           0      -28.891180    6.526086    1.146403
     78          1           0      -27.484806    7.447089    1.814115
     79          1           0      -28.862275    7.146619    2.754582
     80         12           0       25.317986   -0.579143    0.494822
     81          6           0       25.496407    2.192222   -1.771740
     82          6           0       25.047973    1.539426    2.988883
     83          6           0       25.982797   -3.182009    2.435838
     84          6           0       26.009861   -2.691768   -2.435513
     85          7           0       25.231618    1.616867    0.574600
     86          6           0       25.352845    2.577986   -0.448679
     87          6           0       25.273550    4.065719    0.063667
     88          6           0       25.053426    3.745879    1.667062
     89          6           0       25.092214    2.226160    1.793361
     90          6           0       26.173904    4.413354    2.574510
     91          6           0       24.177691    4.963097   -0.609951
     92          6           0       23.815387    6.240376    0.138346
     93          1           0       24.205240    7.542086   -0.585635
     94          7           0       25.392326   -0.801376    2.458115
     95          6           0       25.235980    0.172894    3.415856
     96          6           0       25.298821   -0.359815    4.760518
     97          6           0       25.565338   -1.772249    4.561460
     98          6           0       25.584015   -1.973529    3.068766
     99          6           0       25.067348    0.368091    6.000255
    100          6           0       25.736861   -2.886289    5.579484
    101          8           0       25.837934   -4.046793    5.295351
    102          6           0       25.863196   -2.421282    7.005934
    103          7           0       25.977234   -2.640393    0.062655
    104          6           0       26.142445   -3.515474    1.086394
    105          6           0       26.460879   -4.938626    0.555027
    106          6           0       26.323873   -4.755478   -0.996495
    107          6           0       26.034169   -3.274972   -1.151937
    108          6           0       27.825330   -5.592138    0.962203
    109          6           0       25.209623   -5.609516   -1.698126
    110          6           0       25.607997   -7.088312   -1.899787
    111          7           0       25.702939   -0.381143   -1.629650
    112          6           0       25.877440   -1.284303   -2.652811
    113          6           0       25.902908   -0.589282   -3.877996
    114          6           0       25.820968    0.728618   -3.625080
    115          6           0       25.717417    0.859013   -2.206956
    116          6           0       25.942851   -1.333123   -5.206545
    117          6           0       25.842243    2.104478   -4.131866
    118          8           0       25.958328    2.523583   -5.254582
    119          6           0       25.650484    3.108573   -2.897390
    120          6           0       26.942237    3.840125   -2.716911
    121          8           0       27.944752    3.566049   -2.096523
    122          8           0       26.772492    5.023371   -3.408100
    123          6           0       27.903428    5.981461   -3.390984
    124          1           0       25.008236    2.163401    3.884033
    125          1           0       26.336890   -3.954970    3.122168
    126          1           0       26.106081   -3.462401   -3.203859
    127          1           0       26.270415    4.498168   -0.023640
    128          1           0       24.102561    4.186462    1.967709
    129          1           0       25.706475    4.872160    3.445640
    130          1           0       26.859902    5.131893    2.126739
    131          1           0       26.798438    3.644434    3.028247
    132          1           0       23.372726    4.232720   -0.701489
    133          1           0       24.317938    5.261371   -1.649155
    134          1           0       24.311844    6.236555    1.108307
    135          1           0       22.729606    6.320378    0.183256
    136          1           0       24.156843   -0.132398    6.329712
    137          1           0       24.964184    1.437446    5.815393
    138          1           0       25.801758    0.265760    6.798917
    139          1           0       24.881332   -2.439632    7.478719
    140          1           0       26.569753   -1.601352    7.137974
    141          1           0       26.576604   -3.128905    7.427391
    142          1           0       25.571138   -5.527248    0.780583
    143          1           0       27.306987   -4.869047   -1.453859
    144          1           0       28.490268   -5.872006    0.144602
    145          1           0       27.560240   -6.559159    1.389051
    146          1           0       28.437342   -5.007334    1.648887
    147          1           0       25.011074   -5.198332   -2.687243
    148          1           0       24.323199   -5.476169   -1.076428
    149          1           0       26.692490   -7.196915   -1.876190
    150          1           0       25.163485   -7.388028   -2.848755
    151          1           0       25.260992   -7.756140   -1.110744
    152          1           0       25.496232   -0.739546   -6.004304
    153          1           0       25.440194   -2.292768   -5.085630
    154          1           0       26.965798   -1.622249   -5.448575
    155          1           0       24.810267    3.785364   -3.054410
    156          1           0       27.950887    6.392390   -4.399364
    157          1           0       28.864046    5.537807   -3.129711
    158          1           0       27.521547    6.687889   -2.653291
 ---------------------------------------------------------------------

 SCF Done:  E(RwB97XD) =  -4070.62631400     A.U. after   19 cycles

 Excitation energies and oscillator strengths:

 Excited State   1:      Singlet-A      1.6367 eV  757.52 nm  f=0.3932  <S**2>=0.000
     310 -> 316       -0.18392
     311 -> 313        0.68417
     310 <- 316       -0.11742
 This state for optimization and/or second-order correction.
 Total Energy, E(TD-HF/TD-DFT) =  -4070.56616567
 Copying the excited state density for this state as the 1-particle RhoCI density.

 Excited State   2:      Singlet-A      1.6935 eV  732.13 nm  f=0.3783  <S**2>=0.000
     309 -> 315       -0.20455
     312 -> 314        0.67932
     309 <- 315       -0.12255

 Excited State   3:      Singlet-A      2.1545 eV  575.45 nm  f=0.1350  <S**2>=0.000
     310 -> 313        0.64889
     311 -> 316        0.26860

 Excited State   4:      Singlet-A      2.2627 eV  547.96 nm  f=0.0703  <S**2>=0.000
     309 -> 314        0.61591
     312 -> 315        0.33994

 Excited State   5:      Singlet-A      3.4573 eV  358.62 nm  f=0.0012  <S**2>=0.000
     307 -> 313        0.14336
     308 -> 313        0.67091

 The electronic state is 1-A.
 Alpha  occ. eigenvalues --  -46.94920 -46.94860 -19.30423 -19.29103 -19.24865
 Alpha  occ. eigenvalues --  -19.24186 -19.24094 -19.23987 -19.23840 -19.23691
 Alpha  occ. eigenvalues --  -14.46842 -14.46490 -14.45917 -14.45726 -14.44409
 Alpha  occ. eigenvalues --  -14.44236 -14.44205 -14.43474 -10.43014 -10.42834
 Alpha  occ. eigenvalues --  -10.39320 -10.39239 -10.38742 -10.38497 -10.34985
 Alpha  occ. eigenvalues --  -10.34972 -10.34955 -10.34905 -10.34808 -10.34622
 Alpha  occ. eigenvalues --  -10.34602 -10.34577 -10.34479 -10.34455 -10.34401
 Alpha  occ. eigenvalues --  -10.34259 -10.34158 -10.34129 -10.34101 -10.33375
 Alpha  occ. eigenvalues --  -10.33214 -10.33130 -10.32995 -10.32965 -10.32926
 Alpha  occ. eigenvalues --  -10.32555 -10.32535 -10.32393 -10.32187 -10.32155
 Alpha  occ. eigenvalues --  -10.32051 -10.32034 -10.31823 -10.31737 -10.31715
 Alpha  occ. eigenvalues --  -10.31514 -10.31448 -10.31274 -10.31163 -10.31127
 Alpha  occ. eigenvalues --  -10.31062 -10.31047 -10.30980 -10.30944 -10.30907
 Alpha  occ. eigenvalues --  -10.30876 -10.30870 -10.30866 -10.30805 -10.30670
 Alpha  occ. eigenvalues --  -10.30243 -10.30106 -10.30057 -10.29977 -10.29861
 Alpha  occ. eigenvalues --  -10.29855 -10.29853 -10.29784 -10.29749 -10.29615
 Alpha  occ. eigenvalues --  -10.29609 -10.29578 -10.29499 -10.29399 -10.28769
 Alpha  occ. eigenvalues --  -10.28661  -3.20910  -3.20897  -1.94497  -1.94496
 Alpha  occ. eigenvalues --   -1.94015  -1.94012  -1.93899  -1.93879  -1.18327
 Alpha  occ. eigenvalues --   -1.17875  -1.13603  -1.13066  -1.11732  -1.11296
 Alpha  occ. eigenvalues --   -1.09681  -1.08174  -1.07786  -1.06632  -1.05840
 Alpha  occ. eigenvalues --   -1.05360  -1.05105  -1.04517  -1.04252  -1.03634
 Alpha  occ. eigenvalues --   -0.95176  -0.95020  -0.91967  -0.91205  -0.90847
 Alpha  occ. eigenvalues --   -0.90431  -0.90159  -0.89989  -0.89557  -0.89116
 Alpha  occ. eigenvalues --   -0.89025  -0.88781  -0.88594  -0.87993  -0.86644
 Alpha  occ. eigenvalues --   -0.85971  -0.85841  -0.85103  -0.84836  -0.84545
 Alpha  occ. eigenvalues --   -0.84088  -0.83981  -0.83214  -0.82879  -0.82679
 Alpha  occ. eigenvalues --   -0.82058  -0.80650  -0.80098  -0.79663  -0.79390
 Alpha  occ. eigenvalues --   -0.78903  -0.78587  -0.78500  -0.77491  -0.77198
 Alpha  occ. eigenvalues --   -0.76779  -0.75005  -0.74780  -0.73945  -0.73298
 Alpha  occ. eigenvalues --   -0.71588  -0.71472  -0.71243  -0.70687  -0.70058
 Alpha  occ. eigenvalues --   -0.69745  -0.68985  -0.68547  -0.68344  -0.67389
 Alpha  occ. eigenvalues --   -0.67125  -0.67026  -0.66586  -0.66583  -0.66374
 Alpha  occ. eigenvalues --   -0.65914  -0.64552  -0.63485  -0.62408  -0.62092
 Alpha  occ. eigenvalues --   -0.61916  -0.61509  -0.61486  -0.60827  -0.60778
 Alpha  occ. eigenvalues --   -0.60380  -0.60281  -0.59847  -0.59641  -0.58921
 Alpha  occ. eigenvalues --   -0.58489  -0.58115  -0.57714  -0.57687  -0.57538
 Alpha  occ. eigenvalues --   -0.57006  -0.56393  -0.56387  -0.56217  -0.56077
 Alpha  occ. eigenvalues --   -0.55978  -0.55845  -0.55630  -0.55436  -0.55144
 Alpha  occ. eigenvalues --   -0.54899  -0.54638  -0.54326  -0.53927  -0.53915
 Alpha  occ. eigenvalues --   -0.53816  -0.53655  -0.53579  -0.53305  -0.53144
 Alpha  occ. eigenvalues --   -0.52956  -0.52735  -0.52470  -0.52468  -0.52237
 Alpha  occ. eigenvalues --   -0.52119  -0.51880  -0.51746  -0.51634  -0.51601
 Alpha  occ. eigenvalues --   -0.51437  -0.51083  -0.51023  -0.50786  -0.50618
 Alpha  occ. eigenvalues --   -0.50363  -0.50328  -0.50284  -0.49936  -0.49896
 Alpha  occ. eigenvalues --   -0.49776  -0.49760  -0.49681  -0.49311  -0.49178
 Alpha  occ. eigenvalues --   -0.48993  -0.48985  -0.48696  -0.48484  -0.48306
 Alpha  occ. eigenvalues --   -0.48172  -0.47983  -0.47847  -0.47687  -0.47529
 Alpha  occ. eigenvalues --   -0.47378  -0.47238  -0.47136  -0.47107  -0.47029
 Alpha  occ. eigenvalues --   -0.46983  -0.46802  -0.46673  -0.46480  -0.45980
 Alpha  occ. eigenvalues --   -0.45893  -0.45849  -0.45799  -0.45647  -0.45479
 Alpha  occ. eigenvalues --   -0.45355  -0.45121  -0.45082  -0.44698  -0.44499
 Alpha  occ. eigenvalues --   -0.44480  -0.44368  -0.44015  -0.43997  -0.43817
 Alpha  occ. eigenvalues --   -0.43689  -0.43663  -0.43602  -0.43524  -0.43229
 Alpha  occ. eigenvalues --   -0.43069  -0.42994  -0.42831  -0.42782  -0.42715
 Alpha  occ. eigenvalues --   -0.42414  -0.42061  -0.41828  -0.41242  -0.40727
 Alpha  occ. eigenvalues --   -0.40726  -0.40009  -0.39858  -0.39697  -0.39239
 Alpha  occ. eigenvalues --   -0.39015  -0.38531  -0.38478  -0.38034  -0.37929
 Alpha  occ. eigenvalues --   -0.37756  -0.37682  -0.36588  -0.35949  -0.35900
 Alpha  occ. eigenvalues --   -0.35510  -0.35182  -0.34892  -0.33796  -0.33496
 Alpha  occ. eigenvalues --   -0.33006  -0.32854  -0.32773  -0.32595  -0.32549
 Alpha  occ. eigenvalues --   -0.32454  -0.32313  -0.31945  -0.26021  -0.25522
 Alpha  occ. eigenvalues --   -0.22784  -0.22741
 Alpha virt. eigenvalues --   -0.06913  -0.06526   0.00082   0.00779   0.02771
 Alpha virt. eigenvalues --    0.02918   0.04603   0.04705   0.05633   0.06112
 Alpha virt. eigenvalues --    0.06665   0.07472   0.08113   0.08120   0.08800

 Mulliken charges:
               1
     1  Mg   0.974553
     2  C    0.002920
     3  C   -0.074083
     4  C   -0.058874
     5  C   -0.108681
     6  N   -0.330666
     7  C   -0.063349
     8  C    0.015656
     9  C   -0.121734
    10  C    0.063838
    11  C    0.011240
    12  C    0.011759
    13  C   -0.120002
    14  H    0.035301
    15  N   -0.515829
    16  C    0.190018
    17  C   -0.128823
    18  C   -0.091758
    19  C    0.167198
    20  C    0.036559
    21  C    0.055195
    22  O   -0.254764
    23  C    0.008778
    24  N   -0.326277
    25  C   -0.014223
    26  C   -0.060030
    27  C   -0.104842
    28  C    0.037527
    29  C    0.034225
    30  C    0.005153
    31  C   -0.035254
    32  N   -0.421066
    33  C    0.133145
    34  C   -0.209207
    35  C   -0.009000
    36  C    0.152718
    37  C    0.108944
    38  C    0.073421
    39  O   -0.209186
    40  C   -0.032195
    41  C    0.264709
    42  O   -0.283639
    43  O   -0.351492
    44  C    0.134907
    45  H   -0.012371
    46  H    0.030653
    47  H    0.003618
    48  H    0.033971
    49  H    0.037508
    50  H    0.041023
    51  H    0.017669
    52  H    0.035933
    53  H    0.014271
    54  H    0.025732
    55  H    0.056604
    56  H    0.056702
    57  H    0.040381
    58  H    0.054019
    59  H    0.038995
    60  H    0.053130
    61  H    0.060430
    62  H    0.061918
    63  H    0.043775
    64  H    0.028149
    65  H    0.033580
    66  H    0.048035
    67  H    0.054516
    68  H    0.023073
    69  H    0.008865
    70  H    0.052194
    71  H    0.038562
    72  H    0.041103
    73  H    0.077457
    74  H    0.017126
    75  H    0.049461
    76  H    0.080851
    77  H    0.066845
    78  H    0.047330
    79  H    0.046099
    80  Mg   0.977078
    81  C   -0.038602
    82  C   -0.071917
    83  C   -0.068500
    84  C   -0.096226
    85  N   -0.383206
    86  C   -0.009693
    87  C   -0.026966
    88  C   -0.121302
    89  C    0.109356
    90  C   -0.013775
    91  C   -0.019276
    92  C   -0.123106
    93  H    0.029474
    94  N   -0.491583
    95  C    0.111714
    96  C   -0.136116
    97  C   -0.128098
    98  C    0.164578
    99  C    0.081635
   100  C    0.041220
   101  O   -0.208218
   102  C   -0.027534
   103  N   -0.338859
   104  C    0.031317
   105  C   -0.031750
   106  C   -0.109697
   107  C    0.026612
   108  C    0.019847
   109  C   -0.035764
   110  C   -0.029321
   111  N   -0.401456
   112  C    0.165442
   113  C   -0.241979
   114  C    0.014022
   115  C    0.138127
   116  C    0.096213
   117  C    0.119959
   118  O   -0.173077
   119  C   -0.118373
   120  C    0.285172
   121  O   -0.233255
   122  O   -0.386749
   123  C    0.128205
   124  H   -0.028690
   125  H    0.025167
   126  H    0.001815
   127  H    0.050880
   128  H    0.047775
   129  H    0.031107
   130  H    0.050487
   131  H    0.042816
   132  H    0.033653
   133  H    0.059759
   134  H    0.061120
   135  H    0.063914
   136  H    0.057824
   137  H    0.039859
   138  H    0.047102
   139  H    0.079748
   140  H    0.047375
   141  H    0.039958
   142  H    0.038791
   143  H    0.032544
   144  H    0.032696
   145  H    0.039130
   146  H    0.051696
   147  H    0.028446
   148  H    0.032725
   149  H    0.031916
   150  H    0.042767
   151  H    0.037473
   152  H    0.058695
   153  H    0.027643
   154  H    0.045792
   155  H    0.081002
   156  H    0.063691
   157  H    0.072772
   158  H    0.054978
 Sum of Mulliken charges =  -0.00000

 Dipole moment (field-independent basis, Debye):
    X=              2.5900    Y=              0.5905    Z=              1.2795  Tot=              2.9486
 Quadrupole moment (field-independent basis, Debye-Ang):
   XX=           -804.7815   YY=           -470.7081   ZZ=           -517.7441
   XY=             42.5072   XZ=            128.6952   YZ=              0.7479

 Normal termination of Gaussian 16 at Mon Sep 20 02:59:31 2021.
