 Gaussian 16, Revision A.03,
 Gaussian 16:  ES64L-G16RevA.03 25-Dec-2016

 --------------------------------
 #p wB97XD/Def2SVP td=(nstates=5)
 --------------------------------

 --------------------------------
 TDDFT excited states in gaussian
 --------------------------------
 Symbolic Z-matrix:
 Charge =  0 Multiplicity = 1

                         Standard orientation:
 ---------------------------------------------------------------------
 Center     Atomic      Atomic             Coordinates (Angstroms)
 Number     Number       Type             X           Y           Z
 ---------------------------------------------------------------------
      1         12           0       19.673800   -0.751236    0.304203
      2          6           0       19.302063    2.412813   -1.234158
      3          6           0       20.800797    0.837139    3.153522
      4          6           0       20.296605   -3.798729    1.648272
      5          6           0       18.727601   -2.325941   -2.681498
      6          7           0       20.073601    1.379134    0.755533
      7          6           0       19.647450    2.516862    0.074349
      8          6           0       19.909902    3.829537    0.920171
      9          6           0       20.633447    3.262258    2.170448
     10          6           0       20.561006    1.725825    2.023721
     11          6           0       22.113114    3.724967    2.445438
     12          6           0       18.669303    4.786087    1.151747
     13          6           0       18.827852    6.177821    0.618548
     14          1           0       18.185955    7.331119    1.487088
     15          7           0       20.436000   -1.326136    2.109068
     16          6           0       20.786943   -0.553132    3.197208
     17          6           0       21.271303   -1.413303    4.265479
     18          6           0       21.143512   -2.777536    3.879041
     19          6           0       20.576952   -2.691918    2.482835
     20          6           0       21.684300   -0.905889    5.661771
     21          6           0       21.444720   -4.053088    4.659260
     22          8           0       21.209265   -5.169833    4.245963
     23          6           0       21.999662   -4.080042    6.142263
     24          7           0       19.618306   -2.795456   -0.464963
     25          6           0       19.914781   -3.851026    0.281868
     26          6           0       19.716457   -5.199333   -0.498419
     27          6           0       19.021869   -4.718825   -1.833668
     28          6           0       19.092966   -3.171367   -1.661610
     29          6           0       21.042668   -6.004533   -0.617861
     30          6           0       17.635461   -5.308396   -2.001630
     31          6           0       17.321787   -5.768166   -3.424285
     32          7           0       19.242138   -0.189486   -1.654730
     33          6           0       18.781018   -0.914507   -2.736797
     34          6           0       18.634162   -0.002262   -3.828929
     35          6           0       18.775213    1.309303   -3.311601
     36          6           0       19.161615    1.168857   -1.949492
     37          6           0       18.295104   -0.362510   -5.225583
     38          6           0       18.636604    2.741550   -3.628072
     39          8           0       18.447548    3.348938   -4.677945
     40          6           0       18.969926    3.532826   -2.144011
     41          6           0       20.052491    4.449805   -2.320348
     42          8           0       21.185157    4.262785   -1.931937
     43          8           0       19.608198    5.630802   -2.870640
     44          6           0       20.708766    6.593544   -3.124762
     45          1           0       21.043857    1.298477    4.113169
     46          1           0       20.524404   -4.802212    2.012338
     47          1           0       18.359760   -2.893154   -3.539822
     48          1           0       20.720128    4.327889    0.389022
     49          1           0       20.082586    3.508846    3.078157
     50          1           0       22.195607    3.875904    3.522233
     51          1           0       22.296847    4.641546    1.885417
     52          1           0       22.873016    3.001839    2.148575
     53          1           0       18.486029    4.778188    2.226290
     54          1           0       17.828719    4.342256    0.618057
     55          1           0       18.361508    6.249546   -0.364920
     56          1           0       19.907808    6.292078    0.529410
     57          1           0       20.927290   -1.300331    6.338670
     58          1           0       21.543323    0.174483    5.701604
     59          1           0       22.662002   -1.233436    6.017377
     60          1           0       21.306402   -3.518040    6.769007
     61          1           0       23.067526   -3.866731    6.198311
     62          1           0       22.070621   -5.140173    6.383699
     63          1           0       18.999130   -5.871869   -0.028487
     64          1           0       19.708396   -4.986596   -2.637079
     65          1           0       21.184714   -6.276261   -1.664233
     66          1           0       21.090480   -6.862111    0.053716
     67          1           0       21.880120   -5.373934   -0.323858
     68          1           0       16.854287   -4.620468   -1.679837
     69          1           0       17.427156   -6.156271   -1.347238
     70          1           0       18.085042   -5.436085   -4.128109
     71          1           0       16.380939   -5.289498   -3.697367
     72          1           0       17.118283   -6.837582   -3.481603
     73          1           0       18.162281   -1.420255   -5.452603
     74          1           0       18.961933    0.224476   -5.858309
     75          1           0       17.246423   -0.073126   -5.297683
     76          1           0       18.078764    4.073484   -1.823961
     77          1           0       21.432598    6.154612   -3.811781
     78          1           0       21.101831    6.865198   -2.145100
     79          1           0       20.370669    7.504464   -3.617201
     80         12           0      -20.495659   -0.357239   -0.330649
     81          6           0      -17.817617    1.880087    0.249753
     82          6           0      -22.448914    1.812246    1.169788
     83          6           0      -22.607694   -2.876744    0.020672
     84          6           0      -18.000289   -2.716965   -1.243446
     85          7           0      -20.095154    1.734487    0.441203
     86          6           0      -19.036024    2.455585    0.508690
     87          6           0      -19.384892    3.912603    0.875949
     88          6           0      -20.800099    3.764926    1.635495
     89          6           0      -21.140925    2.303783    1.123560
     90          6           0      -20.772087    3.878155    3.211116
     91          6           0      -19.578894    4.808807   -0.455993
     92          6           0      -19.196268    6.324301   -0.454551
     93          1           0      -19.309647    7.068166    0.926993
     94          7           0      -22.368724   -0.467880    0.295703
     95          6           0      -23.033831    0.615068    0.850686
     96          6           0      -24.434758    0.182863    1.192523
     97          6           0      -24.476763   -1.221639    0.805900
     98          6           0      -23.155301   -1.656822    0.345686
     99          6           0      -25.415585    1.138217    1.845741
    100          6           0      -25.676294   -2.142345    0.852506
    101          8           0      -25.653386   -3.344192    0.552771
    102          6           0      -26.983378   -1.582668    1.244650
    103          7           0      -20.348466   -2.557771   -0.688617
    104          6           0      -21.380634   -3.331371   -0.404784
    105          6           0      -21.162900   -4.782118   -1.026378
    106          6           0      -19.589360   -4.687724   -1.416436
    107          6           0      -19.298758   -3.216227   -1.133737
    108          6           0      -21.555458   -5.950173   -0.062462
    109          6           0      -19.166717   -5.090082   -2.867480
    110          6           0      -18.349548   -6.347412   -3.018443
    111          7           0      -18.342690   -0.406184   -0.696534
    112          6           0      -17.525515   -1.458041   -1.060142
    113          6           0      -16.180832   -1.058761   -1.020486
    114          6           0      -16.251359    0.235129   -0.470335
    115          6           0      -17.555790    0.607784   -0.247411
    116          6           0      -15.006902   -1.826617   -1.369036
    117          6           0      -15.413165    1.326009   -0.154768
    118          8           0      -14.186748    1.590990   -0.280734
    119          6           0      -16.383868    2.349749    0.588682
    120          6           0      -16.085571    3.741629    0.166742
    121          8           0      -16.192384    4.229592   -0.956471
    122          8           0      -15.749487    4.475496    1.347875
    123          6           0      -15.401815    5.892225    1.179400
    124          1           0      -23.082551    2.618070    1.547226
    125          1           0      -23.337292   -3.685876    0.085145
    126          1           0      -17.249424   -3.425590   -1.600989
    127          1           0      -18.708945    4.208513    1.677796
    128          1           0      -21.431471    4.603076    1.342580
    129          1           0      -19.757771    3.821885    3.605619
    130          1           0      -21.296722    3.047534    3.682942
    131          1           0      -21.216500    4.845512    3.444988
    132          1           0      -20.597214    4.724415   -0.835793
    133          1           0      -19.020723    4.333511   -1.262859
    134          1           0      -19.785371    6.926318   -1.147131
    135          1           0      -18.116475    6.371004   -0.601224
    136          1           0      -26.403823    1.090065    1.386980
    137          1           0      -25.080448    2.175304    1.828974
    138          1           0      -25.415081    0.972609    2.922804
    139          1           0      -26.938233   -1.136774    2.238651
    140          1           0      -27.740437   -2.366764    1.228984
    141          1           0      -27.390912   -0.823660    0.576870
    142          1           0      -21.693930   -4.919688   -1.968212
    143          1           0      -18.952428   -5.167746   -0.672011
    144          1           0      -21.819892   -5.558783    0.920041
    145          1           0      -20.674914   -6.586912   -0.150300
    146          1           0      -22.348357   -6.510066   -0.556684
    147          1           0      -18.562581   -4.274426   -3.265369
    148          1           0      -20.054355   -5.161112   -3.496412
    149          1           0      -18.385212   -6.787820   -2.022896
    150          1           0      -17.319594   -6.050671   -3.219902
    151          1           0      -18.776435   -7.060151   -3.722956
    152          1           0      -15.182393   -2.230879   -2.365613
    153          1           0      -14.874849   -2.767307   -0.834386
    154          1           0      -14.133772   -1.174058   -1.385022
    155          1           0      -16.228517    2.243256    1.662762
    156          1           0      -15.079156    6.325675    2.126393
    157          1           0      -16.315600    6.448690    0.970140
    158          1           0      -14.571156    5.975638    0.479375
 ---------------------------------------------------------------------

 SCF Done:  E(RwB97XD) =  -4070.57628055     A.U. after   19 cycles

 Excitation energies and oscillator strengths:

 Excited State   1:      Singlet-A      1.7434 eV  711.15 nm  f=0.3658  <S**2>=0.000
     309 -> 315        0.21763
     311 -> 313        0.67285
     309 <- 315        0.11920
 This state for optimization and/or second-order correction.
 Total Energy, E(TD-HF/TD-DFT) =  -4070.51221062
 Copying the excited state density for this state as the 1-particle RhoCI density.

 Excited State   2:      Singlet-A      1.7606 eV  704.20 nm  f=0.3701  <S**2>=0.000
     310 -> 316        0.17861
     312 -> 314        0.68312
     310 <- 316        0.10772

 Excited State   3:      Singlet-A      2.1695 eV  571.48 nm  f=0.0779  <S**2>=0.000
     309 -> 313        0.62750
     311 -> 315       -0.30976

 Excited State   4:      Singlet-A      2.2094 eV  561.16 nm  f=0.1123  <S**2>=0.000
     310 -> 314        0.63738
     312 -> 316       -0.28432

 Excited State   5:      Singlet-A      3.3076 eV  374.85 nm  f=0.0360  <S**2>=0.000
     305 -> 313        0.13298
     307 -> 313        0.60463
     311 -> 315        0.28144

 The electronic state is 1-A.
 Alpha  occ. eigenvalues --  -46.95739 -46.94545 -19.29451 -19.29190 -19.25158
 Alpha  occ. eigenvalues --  -19.24934 -19.24323 -19.24045 -19.24041 -19.23541
 Alpha  occ. eigenvalues --  -14.46867 -14.46723 -14.46308 -14.46304 -14.44983
 Alpha  occ. eigenvalues --  -14.44621 -14.43241 -14.43192 -10.43169 -10.42037
 Alpha  occ. eigenvalues --  -10.40425 -10.39933 -10.39098 -10.38535 -10.36634
 Alpha  occ. eigenvalues --  -10.36139 -10.35590 -10.35328 -10.35252 -10.35035
 Alpha  occ. eigenvalues --  -10.34927 -10.34841 -10.34812 -10.34709 -10.34644
 Alpha  occ. eigenvalues --  -10.34449 -10.34430 -10.34293 -10.34114 -10.33714
 Alpha  occ. eigenvalues --  -10.33321 -10.33048 -10.32764 -10.32731 -10.32630
 Alpha  occ. eigenvalues --  -10.32569 -10.32555 -10.32522 -10.32393 -10.32372
 Alpha  occ. eigenvalues --  -10.32353 -10.32057 -10.31984 -10.31976 -10.31892
 Alpha  occ. eigenvalues --  -10.31876 -10.31823 -10.31666 -10.31666 -10.31634
 Alpha  occ. eigenvalues --  -10.31605 -10.31587 -10.31473 -10.31363 -10.31134
 Alpha  occ. eigenvalues --  -10.31017 -10.30851 -10.30658 -10.30628 -10.30561
 Alpha  occ. eigenvalues --  -10.30415 -10.30269 -10.30248 -10.30177 -10.30099
 Alpha  occ. eigenvalues --  -10.30076 -10.29842 -10.29805 -10.29698 -10.29679
 Alpha  occ. eigenvalues --  -10.29654 -10.29227 -10.29047 -10.28882 -10.28810
 Alpha  occ. eigenvalues --  -10.28681  -3.21651  -3.20511  -1.95242  -1.94783
 Alpha  occ. eigenvalues --   -1.94598  -1.94109  -1.93627  -1.93488  -1.17921
 Alpha  occ. eigenvalues --   -1.16119  -1.13765  -1.11643  -1.11400  -1.09522
 Alpha  occ. eigenvalues --   -1.09518  -1.08942  -1.07802  -1.07226  -1.06050
 Alpha  occ. eigenvalues --   -1.05564  -1.04510  -1.03930  -1.03522  -1.02907
 Alpha  occ. eigenvalues --   -0.94964  -0.93721  -0.91435  -0.90953  -0.90529
 Alpha  occ. eigenvalues --   -0.90260  -0.89978  -0.89811  -0.89494  -0.89277
 Alpha  occ. eigenvalues --   -0.89228  -0.88867  -0.88790  -0.87438  -0.86246
 Alpha  occ. eigenvalues --   -0.86227  -0.85881  -0.85467  -0.84657  -0.84381
 Alpha  occ. eigenvalues --   -0.83963  -0.83458  -0.82966  -0.82642  -0.82627
 Alpha  occ. eigenvalues --   -0.82023  -0.80950  -0.80420  -0.79662  -0.78901
 Alpha  occ. eigenvalues --   -0.78796  -0.78321  -0.77838  -0.77623  -0.77181
 Alpha  occ. eigenvalues --   -0.76647  -0.75233  -0.74258  -0.74179  -0.73256
 Alpha  occ. eigenvalues --   -0.71062  -0.70952  -0.70705  -0.70517  -0.69902
 Alpha  occ. eigenvalues --   -0.69396  -0.69216  -0.69111  -0.67900  -0.67591
 Alpha  occ. eigenvalues --   -0.67565  -0.67496  -0.66709  -0.66607  -0.66570
 Alpha  occ. eigenvalues --   -0.66314  -0.63269  -0.63091  -0.62557  -0.62134
 Alpha  occ. eigenvalues --   -0.62057  -0.61309  -0.61122  -0.60736  -0.60363
 Alpha  occ. eigenvalues --   -0.59908  -0.59734  -0.59714  -0.59307  -0.58976
 Alpha  occ. eigenvalues --   -0.58973  -0.57913  -0.57768  -0.57631  -0.57420
 Alpha  occ. eigenvalues --   -0.56682  -0.56319  -0.56096  -0.55751  -0.55583
 Alpha  occ. eigenvalues --   -0.55482  -0.55204  -0.55136  -0.55125  -0.54916
 Alpha  occ. eigenvalues --   -0.54895  -0.54566  -0.54463  -0.54411  -0.54196
 Alpha  occ. eigenvalues --   -0.54014  -0.53578  -0.53468  -0.53281  -0.53093
 Alpha  occ. eigenvalues --   -0.53010  -0.52855  -0.52741  -0.52518  -0.52468
 Alpha  occ. eigenvalues --   -0.52276  -0.52011  -0.51845  -0.51507  -0.51488
 Alpha  occ. eigenvalues --   -0.51420  -0.51320  -0.51119  -0.50750  -0.50628
 Alpha  occ. eigenvalues --   -0.50599  -0.50531  -0.50322  -0.49967  -0.49928
 Alpha  occ. eigenvalues --   -0.49879  -0.49739  -0.49642  -0.49574  -0.49440
 Alpha  occ. eigenvalues --   -0.49255  -0.49016  -0.48737  -0.48659  -0.48297
 Alpha  occ. eigenvalues --   -0.48257  -0.48089  -0.48065  -0.47881  -0.47533
 Alpha  occ. eigenvalues --   -0.47431  -0.47303  -0.47065  -0.46881  -0.46717
 Alpha  occ. eigenvalues --   -0.46624  -0.46379  -0.46199  -0.45926  -0.45910
 Alpha  occ. eigenvalues --   -0.45862  -0.45840  -0.45507  -0.45442  -0.45251
 Alpha  occ. eigenvalues --   -0.45157  -0.45122  -0.44949  -0.44929  -0.44564
 Alpha  occ. eigenvalues --   -0.44265  -0.44156  -0.43899  -0.43856  -0.43628
 Alpha  occ. eigenvalues --   -0.43584  -0.43369  -0.43123  -0.43099  -0.42959
 Alpha  occ. eigenvalues --   -0.42668  -0.42544  -0.42428  -0.42247  -0.42168
 Alpha  occ. eigenvalues --   -0.41987  -0.41901  -0.41529  -0.41275  -0.40962
 Alpha  occ. eigenvalues --   -0.40566  -0.40432  -0.39920  -0.39616  -0.39419
 Alpha  occ. eigenvalues --   -0.39170  -0.38859  -0.38406  -0.38189  -0.38106
 Alpha  occ. eigenvalues --   -0.37802  -0.37620  -0.36593  -0.36129  -0.35905
 Alpha  occ. eigenvalues --   -0.35746  -0.35648  -0.35296  -0.34025  -0.33881
 Alpha  occ. eigenvalues --   -0.33462  -0.33237  -0.32847  -0.32629  -0.32320
 Alpha  occ. eigenvalues --   -0.32144  -0.31477  -0.30715  -0.26102  -0.25983
 Alpha  occ. eigenvalues --   -0.23503  -0.23118
 Alpha virt. eigenvalues --   -0.06976  -0.06803  -0.00745   0.00186   0.01807
 Alpha virt. eigenvalues --    0.02128   0.04248   0.04346   0.05422   0.06056
 Alpha virt. eigenvalues --    0.06733   0.06959   0.07851   0.07949   0.08118

 Mulliken charges:
               1
     1  Mg   0.955477
     2  C    0.013539
     3  C   -0.100402
     4  C   -0.065486
     5  C   -0.067028
     6  N   -0.380898
     7  C   -0.011635
     8  C   -0.052133
     9  C   -0.156828
    10  C    0.113139
    11  C    0.022938
    12  C    0.049708
    13  C   -0.135390
    14  H    0.029643
    15  N   -0.509989
    16  C    0.184395
    17  C   -0.168024
    18  C   -0.051428
    19  C    0.184675
    20  C    0.065802
    21  C    0.037412
    22  O   -0.218212
    23  C   -0.018999
    24  N   -0.317983
    25  C    0.037543
    26  C   -0.121178
    27  C   -0.060571
    28  C    0.021407
    29  C    0.018088
    30  C    0.000712
    31  C   -0.057040
    32  N   -0.463890
    33  C    0.166515
    34  C   -0.208585
    35  C   -0.042135
    36  C    0.161356
    37  C    0.091183
    38  C    0.152330
    39  O   -0.199056
    40  C   -0.162689
    41  C    0.269604
    42  O   -0.250552
    43  O   -0.372326
    44  C    0.150436
    45  H   -0.008638
    46  H    0.020394
    47  H   -0.018258
    48  H    0.051682
    49  H    0.032781
    50  H    0.036865
    51  H    0.043446
    52  H    0.050767
    53  H    0.038850
    54  H    0.034514
    55  H    0.066058
    56  H    0.050569
    57  H    0.052559
    58  H    0.034061
    59  H    0.066366
    60  H    0.061592
    61  H    0.055589
    62  H    0.047339
    63  H    0.040348
    64  H    0.034373
    65  H    0.035196
    66  H    0.050568
    67  H    0.041456
    68  H    0.031004
    69  H    0.027961
    70  H    0.041035
    71  H    0.031154
    72  H    0.041220
    73  H    0.019062
    74  H    0.070150
    75  H    0.044904
    76  H    0.079946
    77  H    0.060062
    78  H    0.049475
    79  H    0.052103
    80  Mg   0.950961
    81  C   -0.001545
    82  C   -0.092533
    83  C   -0.057236
    84  C   -0.097685
    85  N   -0.289296
    86  C   -0.079826
    87  C   -0.022303
    88  C   -0.152112
    89  C    0.044825
    90  C    0.020218
    91  C    0.019294
    92  C   -0.121928
    93  H   -0.003196
    94  N   -0.573562
    95  C    0.230560
    96  C   -0.157436
    97  C   -0.064075
    98  C    0.176427
    99  C    0.067743
   100  C    0.057089
   101  O   -0.243273
   102  C   -0.029442
   103  N   -0.281973
   104  C    0.040663
   105  C   -0.118716
   106  C   -0.082481
   107  C    0.022871
   108  C    0.039330
   109  C   -0.018071
   110  C   -0.034998
   111  N   -0.421280
   112  C    0.154680
   113  C   -0.152088
   114  C   -0.029599
   115  C    0.146508
   116  C    0.092539
   117  C    0.133274
   118  O   -0.250622
   119  C   -0.095357
   120  C    0.288833
   121  O   -0.246471
   122  O   -0.409275
   123  C    0.146583
   124  H   -0.006537
   125  H    0.019227
   126  H   -0.015420
   127  H    0.025053
   128  H    0.044110
   129  H    0.036931
   130  H    0.039592
   131  H    0.044104
   132  H    0.028279
   133  H    0.057698
   134  H    0.065778
   135  H    0.078866
   136  H    0.055749
   137  H    0.031548
   138  H    0.060640
   139  H    0.053856
   140  H    0.050865
   141  H    0.060042
   142  H    0.047725
   143  H    0.033916
   144  H    0.061742
   145  H    0.028987
   146  H    0.039262
   147  H    0.034212
   148  H    0.025077
   149  H    0.022669
   150  H    0.040444
   151  H    0.046566
   152  H    0.029897
   153  H    0.045537
   154  H    0.071959
   155  H    0.082454
   156  H    0.044108
   157  H    0.042319
   158  H    0.066729
 Sum of Mulliken charges =  -0.00000

 Dipole moment (field-independent basis, Debye):
    X=             -4.2508    Y=             -0.8040    Z=              6.2124  Tot=              7.5703
 Quadrupole moment (field-independent basis, Debye-Ang):
   XX=           -342.1816   YY=           -482.4606   ZZ=           -496.8441
   XY=            -52.4173   XZ=             77.5202   YZ=             43.4483

 Normal termination of Gaussian 16 at Mon Sep 20 12:51:15 2021.
