 Gaussian 16, Revision A.03,
 Gaussian 16:  ES64L-G16RevA.03 25-Dec-2016

 --------------------------------
 #p wB97XD/Def2SVP td=(nstates=5)
 --------------------------------

 --------------------------------
 TDDFT excited states in gaussian
 --------------------------------
 Symbolic Z-matrix:
 Charge =  0 Multiplicity = 1

                         Standard orientation:
 ---------------------------------------------------------------------
 Center     Atomic      Atomic             Coordinates (Angstroms)
 Number     Number       Type             X           Y           Z
 ---------------------------------------------------------------------
      1         12           0        4.972752    0.701225    0.287247
      2          6           0        2.981347   -2.178102    1.127474
      3          6           0        7.538508   -1.461976   -0.338293
      4          6           0        6.902876    3.401414   -0.197591
      5          6           0        2.442034    2.662755    1.426994
      6          7           0        5.194551   -1.666218    0.347864
      7          6           0        4.209949   -2.550548    0.680960
      8          6           0        4.722870   -3.908189    0.382530
      9          6           0        6.226825   -3.713272    0.044157
     10          6           0        6.425020   -2.172755    0.043845
     11          6           0        7.154271   -4.390560    1.102732
     12          6           0        3.973334   -4.677583   -0.676235
     13          6           0        4.279394   -6.152962   -0.877548
     14          1           0        3.129902   -7.069927   -0.919659
     15          7           0        6.888136    0.929165   -0.300698
     16          6           0        7.850830   -0.110941   -0.419794
     17          6           0        9.078759    0.513769   -0.946616
     18          6           0        8.897083    1.887466   -0.809324
     19          6           0        7.516395    2.127164   -0.351718
     20          6           0       10.283353   -0.321433   -1.327260
     21          6           0        9.861575    3.046483   -1.141523
     22          8           0        9.690653    4.223994   -0.774133
     23          6           0       11.035511    2.718739   -1.970863
     24          7           0        4.753249    2.780474    0.630547
     25          6           0        5.635886    3.719774    0.358929
     26          6           0        5.145270    5.150051    0.714835
     27          6           0        3.662533    4.881861    0.981788
     28          6           0        3.600321    3.371653    0.970623
     29          6           0        5.896215    5.722269    1.964243
     30          6           0        2.671833    5.503737    0.023580
     31          6           0        1.414874    6.137733    0.645445
     32          7           0        3.084019    0.324383    1.012745
     33          6           0        2.159281    1.257168    1.428722
     34          6           0        0.877221    0.607190    1.836290
     35          6           0        1.247652   -0.717909    1.725963
     36          6           0        2.569783   -0.860637    1.287909
     37          6           0       -0.445792    1.245271    2.114655
     38          6           0        0.724367   -2.062603    1.916863
     39          8           0       -0.410121   -2.382836    2.253156
     40          6           0        1.819671   -3.085230    1.536871
     41          6           0        1.915584   -4.010075    2.637320
     42          8           0        2.467222   -3.808701    3.746042
     43          8           0        1.463195   -5.238314    2.261503
     44          6           0        1.724727   -6.368973    3.125165
     45          1           0        8.341731   -2.143777   -0.624513
     46          1           0        7.568347    4.267023   -0.193767
     47          1           0        1.801082    3.353191    1.978857
     48          1           0        4.627532   -4.415349    1.341740
     49          1           0        6.492319   -4.131814   -0.926790
     50          1           0        7.965361   -5.071944    0.843989
     51          1           0        6.467448   -4.961038    1.727776
     52          1           0        7.579885   -3.714158    1.844457
     53          1           0        4.176170   -4.279594   -1.670643
     54          1           0        2.907109   -4.453152   -0.664883
     55          1           0        4.915844   -6.526534   -0.076779
     56          1           0        4.617623   -6.234396   -1.910213
     57          1           0       11.230087    0.055869   -0.941250
     58          1           0       10.406720   -0.458456   -2.401364
     59          1           0       10.286142   -1.333821   -0.922574
     60          1           0       10.692595    2.181108   -2.854980
     61          1           0       11.602515    2.058305   -1.315712
     62          1           0       11.439367    3.669034   -2.318118
     63          1           0        5.305624    5.754516   -0.178574
     64          1           0        3.295104    5.160288    1.969088
     65          1           0        5.230846    5.822146    2.821293
     66          1           0        6.272231    6.727530    1.773999
     67          1           0        6.678091    4.995811    2.186191
     68          1           0        2.348988    4.796934   -0.740155
     69          1           0        3.289946    6.126688   -0.622113
     70          1           0        1.095259    6.927280   -0.033979
     71          1           0        1.554932    6.434195    1.685419
     72          1           0        0.735824    5.285392    0.653351
     73          1           0       -1.151773    1.193509    1.285583
     74          1           0       -0.208581    2.236144    2.500907
     75          1           0       -0.861478    0.819628    3.028810
     76          1           0        1.370001   -3.675490    0.738490
     77          1           0        2.375004   -6.152756    3.973221
     78          1           0        2.075719   -7.222233    2.545418
     79          1           0        0.811289   -6.759404    3.574587
     80         12           0       -4.982557    0.534115   -0.365224
     81          6           0       -2.853534   -2.147290   -1.001512
     82          6           0       -7.532862   -1.678799    0.293416
     83          6           0       -6.983005    3.236577   -0.053371
     84          6           0       -2.374693    2.719691   -1.457017
     85          7           0       -5.158209   -1.631287   -0.473287
     86          6           0       -4.174892   -2.538408   -0.721574
     87          6           0       -4.672255   -3.974738   -0.513557
     88          6           0       -6.223572   -3.737545   -0.242465
     89          6           0       -6.295933   -2.211815   -0.120835
     90          6           0       -7.090486   -4.252088   -1.385300
     91          6           0       -4.089416   -4.729383    0.734023
     92          6           0       -4.008649   -6.231950    0.658586
     93          1           0       -4.758710   -6.945399   -0.375401
     94          7           0       -6.922006    0.738377    0.140870
     95          6           0       -7.822614   -0.321401    0.368363
     96          6           0       -9.034696    0.279774    0.859776
     97          6           0       -8.910810    1.691865    0.829187
     98          6           0       -7.556384    1.955375    0.283860
     99          6           0      -10.302918   -0.505435    1.117562
    100          6           0       -9.831521    2.757229    1.255538
    101          8           0       -9.666576    3.927715    0.985134
    102          6           0      -11.189806    2.399654    1.961025
    103          7           0       -4.700937    2.751631   -0.538544
    104          6           0       -5.677010    3.595271   -0.382792
    105          6           0       -5.217612    5.057076   -0.666729
    106          6           0       -3.751464    4.928779   -1.038104
    107          6           0       -3.549549    3.371268   -1.080716
    108          6           0       -6.188689    5.751133   -1.733739
    109          6           0       -2.813012    5.681927   -0.071686
    110          6           0       -2.357622    7.129209   -0.492265
    111          7           0       -3.011870    0.416794   -0.817381
    112          6           0       -2.064813    1.379307   -1.247079
    113          6           0       -0.804859    0.786258   -1.488165
    114          6           0       -1.126254   -0.637364   -1.474627
    115          6           0       -2.472992   -0.749649   -1.025039
    116          6           0        0.417719    1.486911   -2.052095
    117          6           0       -0.525104   -1.890200   -1.748882
    118          8           0        0.609304   -2.201833   -2.088990
    119          6           0       -1.696063   -3.003615   -1.336426
    120          6           0       -1.831902   -3.891197   -2.538638
    121          8           0       -2.141804   -3.497026   -3.667814
    122          8           0       -1.431719   -5.235326   -2.277812
    123          6           0       -1.528551   -6.178945   -3.435166
    124          1           0       -8.294852   -2.437797    0.486265
    125          1           0       -7.732173    4.028312   -0.113671
    126          1           0       -1.528368    3.344581   -1.748551
    127          1           0       -4.497450   -4.494764   -1.455688
    128          1           0       -6.579504   -4.241489    0.656025
    129          1           0       -6.525674   -4.912498   -2.042730
    130          1           0       -7.587657   -3.450304   -1.931931
    131          1           0       -7.859499   -4.957803   -1.071072
    132          1           0       -4.682314   -4.435322    1.599404
    133          1           0       -3.118453   -4.278660    0.940562
    134          1           0       -4.440176   -6.617281    1.582123
    135          1           0       -2.964319   -6.526686    0.555284
    136          1           0      -11.107169   -0.262002    0.423368
    137          1           0      -10.599484   -0.334357    2.153242
    138          1           0      -10.228319   -1.587196    1.007696
    139          1           0      -11.879528    2.137698    1.158258
    140          1           0      -11.633272    3.295407    2.396055
    141          1           0      -11.072666    1.538386    2.617618
    142          1           0       -5.362536    5.547415    0.296087
    143          1           0       -3.570044    5.211867   -2.073807
    144          1           0       -5.620698    6.112792   -2.590769
    145          1           0       -6.663260    6.660378   -1.364218
    146          1           0       -6.869901    4.955178   -2.037393
    147          1           0       -1.922277    5.060239    0.025462
    148          1           0       -3.312568    5.696474    0.897104
    149          1           0       -1.482400    7.025038   -1.134512
    150          1           0       -2.181232    7.873960    0.284072
    151          1           0       -3.178639    7.407304   -1.152232
    152          1           0        0.885591    1.916629   -1.166739
    153          1           0        0.137994    2.286161   -2.737409
    154          1           0        1.040320    0.904826   -2.732755
    155          1           0       -1.374792   -3.532977   -0.438542
    156          1           0       -0.861918   -5.888744   -4.246454
    157          1           0       -2.506102   -6.346002   -3.888262
    158          1           0       -1.126100   -7.072211   -2.957458
 ---------------------------------------------------------------------

 SCF Done:  E(RwB97XD) =  -4070.67064746     A.U. after   19 cycles

 Excitation energies and oscillator strengths:

 Excited State   1:      Singlet-A      1.6425 eV  754.87 nm  f=0.8792  <S**2>=0.000
     310 -> 316       -0.12202
     311 -> 313       -0.45944
     312 -> 314        0.50822
 This state for optimization and/or second-order correction.
 Total Energy, E(TD-HF/TD-DFT) =  -4070.61028815
 Copying the excited state density for this state as the 1-particle RhoCI density.

 Excited State   2:      Singlet-A      1.7221 eV  719.97 nm  f=0.0039  <S**2>=0.000
     309 -> 315        0.13179
     310 -> 316       -0.13708
     311 -> 313        0.50605
     312 -> 314        0.45021

 Excited State   3:      Singlet-A      2.1605 eV  573.87 nm  f=0.0999  <S**2>=0.000
     309 -> 313        0.63391
     310 -> 313        0.11236
     311 -> 315       -0.23368

 Excited State   4:      Singlet-A      2.2536 eV  550.17 nm  f=0.0807  <S**2>=0.000
     310 -> 314        0.60492
     312 -> 315        0.13646
     312 -> 316        0.30357

 Excited State   5:      Singlet-A      2.5681 eV  482.79 nm  f=0.0000  <S**2>=0.000
     312 -> 313        0.69803

 The electronic state is 1-A.
 Alpha  occ. eigenvalues --  -46.94268 -46.94147 -19.30083 -19.29232 -19.24250
 Alpha  occ. eigenvalues --  -19.24209 -19.23674 -19.23473 -19.23454 -19.23311
 Alpha  occ. eigenvalues --  -14.47050 -14.46080 -14.45996 -14.45118 -14.44676
 Alpha  occ. eigenvalues --  -14.43877 -14.43795 -14.43597 -10.42730 -10.42597
 Alpha  occ. eigenvalues --  -10.39390 -10.38820 -10.38281 -10.38170 -10.35757
 Alpha  occ. eigenvalues --  -10.35488 -10.35187 -10.34863 -10.34756 -10.34745
 Alpha  occ. eigenvalues --  -10.34545 -10.34517 -10.34197 -10.34197 -10.34128
 Alpha  occ. eigenvalues --  -10.34024 -10.33967 -10.33943 -10.33856 -10.33441
 Alpha  occ. eigenvalues --  -10.32718 -10.32668 -10.32606 -10.31931 -10.31921
 Alpha  occ. eigenvalues --  -10.31830 -10.31781 -10.31723 -10.31722 -10.31710
 Alpha  occ. eigenvalues --  -10.31701 -10.31643 -10.31611 -10.31601 -10.31551
 Alpha  occ. eigenvalues --  -10.31514 -10.31491 -10.31479 -10.31388 -10.31385
 Alpha  occ. eigenvalues --  -10.31103 -10.31075 -10.30950 -10.30849 -10.30659
 Alpha  occ. eigenvalues --  -10.30598 -10.30499 -10.30440 -10.30319 -10.30282
 Alpha  occ. eigenvalues --  -10.30162 -10.30001 -10.29830 -10.29778 -10.29730
 Alpha  occ. eigenvalues --  -10.29695 -10.29601 -10.29562 -10.29477 -10.29475
 Alpha  occ. eigenvalues --  -10.29357 -10.29326 -10.29072 -10.29030 -10.28327
 Alpha  occ. eigenvalues --  -10.28086  -3.20304  -3.20257  -1.93903  -1.93865
 Alpha  occ. eigenvalues --   -1.93423  -1.93379  -1.93286  -1.93249  -1.17974
 Alpha  occ. eigenvalues --   -1.15430  -1.13295  -1.11465  -1.10881  -1.10863
 Alpha  occ. eigenvalues --   -1.07865  -1.07800  -1.07323  -1.06947  -1.06034
 Alpha  occ. eigenvalues --   -1.05805  -1.05259  -1.04487  -1.04389  -1.03695
 Alpha  occ. eigenvalues --   -0.94568  -0.93773  -0.91692  -0.91057  -0.90521
 Alpha  occ. eigenvalues --   -0.90424  -0.90153  -0.89880  -0.89620  -0.89279
 Alpha  occ. eigenvalues --   -0.89018  -0.88577  -0.88086  -0.87926  -0.86119
 Alpha  occ. eigenvalues --   -0.85900  -0.85592  -0.84785  -0.84399  -0.84017
 Alpha  occ. eigenvalues --   -0.83899  -0.83295  -0.82683  -0.82325  -0.82164
 Alpha  occ. eigenvalues --   -0.81810  -0.80649  -0.80156  -0.79300  -0.79041
 Alpha  occ. eigenvalues --   -0.78779  -0.78522  -0.78083  -0.77581  -0.76880
 Alpha  occ. eigenvalues --   -0.76666  -0.74937  -0.74435  -0.73449  -0.73431
 Alpha  occ. eigenvalues --   -0.71413  -0.71261  -0.70842  -0.70678  -0.69685
 Alpha  occ. eigenvalues --   -0.69349  -0.69012  -0.68047  -0.67959  -0.67313
 Alpha  occ. eigenvalues --   -0.67092  -0.66795  -0.66779  -0.66512  -0.66424
 Alpha  occ. eigenvalues --   -0.66039  -0.64159  -0.63224  -0.62294  -0.61981
 Alpha  occ. eigenvalues --   -0.61380  -0.61352  -0.61133  -0.60943  -0.60322
 Alpha  occ. eigenvalues --   -0.60299  -0.59864  -0.59617  -0.59180  -0.58942
 Alpha  occ. eigenvalues --   -0.58140  -0.57991  -0.57246  -0.56993  -0.56795
 Alpha  occ. eigenvalues --   -0.56382  -0.55984  -0.55685  -0.55569  -0.55257
 Alpha  occ. eigenvalues --   -0.55202  -0.55028  -0.55016  -0.54770  -0.54739
 Alpha  occ. eigenvalues --   -0.54313  -0.54272  -0.54112  -0.54040  -0.53803
 Alpha  occ. eigenvalues --   -0.53627  -0.53575  -0.53488  -0.53345  -0.52592
 Alpha  occ. eigenvalues --   -0.52412  -0.52386  -0.52137  -0.52033  -0.51974
 Alpha  occ. eigenvalues --   -0.51866  -0.51709  -0.51519  -0.51400  -0.51280
 Alpha  occ. eigenvalues --   -0.51048  -0.50942  -0.50685  -0.50600  -0.50449
 Alpha  occ. eigenvalues --   -0.50217  -0.50124  -0.49987  -0.49900  -0.49846
 Alpha  occ. eigenvalues --   -0.49557  -0.49411  -0.49343  -0.49281  -0.49092
 Alpha  occ. eigenvalues --   -0.48904  -0.48760  -0.48663  -0.48518  -0.48481
 Alpha  occ. eigenvalues --   -0.48273  -0.48084  -0.47632  -0.47567  -0.47427
 Alpha  occ. eigenvalues --   -0.47035  -0.46826  -0.46736  -0.46574  -0.46513
 Alpha  occ. eigenvalues --   -0.46466  -0.46324  -0.46084  -0.45992  -0.45940
 Alpha  occ. eigenvalues --   -0.45583  -0.45458  -0.45346  -0.45207  -0.45082
 Alpha  occ. eigenvalues --   -0.44871  -0.44842  -0.44701  -0.44613  -0.44417
 Alpha  occ. eigenvalues --   -0.44334  -0.44094  -0.43967  -0.43730  -0.43481
 Alpha  occ. eigenvalues --   -0.43455  -0.43345  -0.43249  -0.43190  -0.43074
 Alpha  occ. eigenvalues --   -0.43038  -0.42703  -0.42573  -0.42421  -0.42324
 Alpha  occ. eigenvalues --   -0.41878  -0.41605  -0.41318  -0.41261  -0.41241
 Alpha  occ. eigenvalues --   -0.40498  -0.40312  -0.39605  -0.39311  -0.39043
 Alpha  occ. eigenvalues --   -0.38666  -0.38591  -0.37762  -0.37659  -0.37540
 Alpha  occ. eigenvalues --   -0.37466  -0.36972  -0.36278  -0.35760  -0.35403
 Alpha  occ. eigenvalues --   -0.35366  -0.34981  -0.34659  -0.33682  -0.33285
 Alpha  occ. eigenvalues --   -0.33031  -0.32585  -0.32555  -0.32277  -0.32208
 Alpha  occ. eigenvalues --   -0.31948  -0.31713  -0.31353  -0.25948  -0.25446
 Alpha  occ. eigenvalues --   -0.23242  -0.22199
 Alpha virt. eigenvalues --   -0.07254  -0.06009   0.00404   0.00636   0.02331
 Alpha virt. eigenvalues --    0.03221   0.04517   0.05124   0.06873   0.07053
 Alpha virt. eigenvalues --    0.07095   0.07230   0.08103   0.08635   0.08753

 Mulliken charges:
               1
     1  Mg   0.974600
     2  C    0.021605
     3  C   -0.073203
     4  C   -0.060257
     5  C   -0.114174
     6  N   -0.330739
     7  C   -0.059587
     8  C    0.010793
     9  C   -0.120888
    10  C    0.064593
    11  C    0.011844
    12  C    0.006382
    13  C   -0.118308
    14  H    0.030534
    15  N   -0.515370
    16  C    0.189419
    17  C   -0.128866
    18  C   -0.092626
    19  C    0.167180
    20  C    0.036989
    21  C    0.054696
    22  O   -0.256033
    23  C    0.008877
    24  N   -0.326253
    25  C   -0.013052
    26  C   -0.059977
    27  C   -0.104016
    28  C    0.037672
    29  C    0.034608
    30  C    0.005979
    31  C   -0.045176
    32  N   -0.420547
    33  C    0.121809
    34  C   -0.204202
    35  C    0.002046
    36  C    0.158750
    37  C    0.101393
    38  C    0.071665
    39  O   -0.219735
    40  C   -0.031167
    41  C    0.262704
    42  O   -0.284859
    43  O   -0.350287
    44  C    0.136174
    45  H   -0.013005
    46  H    0.029088
    47  H    0.003186
    48  H    0.030626
    49  H    0.037741
    50  H    0.039389
    51  H    0.016571
    52  H    0.034170
    53  H    0.021525
    54  H    0.042853
    55  H    0.052111
    56  H    0.056008
    57  H    0.039061
    58  H    0.053664
    59  H    0.038532
    60  H    0.053257
    61  H    0.059940
    62  H    0.060758
    63  H    0.042860
    64  H    0.027565
    65  H    0.032464
    66  H    0.046877
    67  H    0.054877
    68  H    0.020729
    69  H    0.008404
    70  H    0.053211
    71  H    0.038963
    72  H    0.046183
    73  H    0.100711
    74  H    0.012247
    75  H    0.042202
    76  H    0.085841
    77  H    0.066366
    78  H    0.047950
    79  H    0.041804
    80  Mg   0.980974
    81  C   -0.055886
    82  C   -0.106297
    83  C   -0.079011
    84  C   -0.071580
    85  N   -0.334409
    86  C    0.004042
    87  C   -0.042741
    88  C   -0.139916
    89  C    0.074706
    90  C    0.018846
    91  C    0.010834
    92  C   -0.104396
    93  H    0.030010
    94  N   -0.531773
    95  C    0.234471
    96  C   -0.150085
    97  C   -0.046021
    98  C    0.153761
    99  C    0.051856
   100  C    0.017348
   101  O   -0.225129
   102  C   -0.005356
   103  N   -0.321386
   104  C    0.056804
   105  C   -0.093580
   106  C   -0.045327
   107  C    0.025415
   108  C    0.014984
   109  C   -0.003815
   110  C   -0.041933
   111  N   -0.449320
   112  C    0.101877
   113  C   -0.144910
   114  C   -0.067588
   115  C    0.188716
   116  C    0.062189
   117  C    0.106970
   118  O   -0.219563
   119  C   -0.088500
   120  C    0.287116
   121  O   -0.261669
   122  O   -0.403119
   123  C    0.141666
   124  H    0.004464
   125  H    0.031424
   126  H   -0.002776
   127  H    0.041550
   128  H    0.039493
   129  H    0.032969
   130  H    0.047905
   131  H    0.022493
   132  H    0.025450
   133  H    0.046846
   134  H    0.047998
   135  H    0.067653
   136  H    0.063173
   137  H    0.050347
   138  H    0.031219
   139  H    0.053063
   140  H    0.055747
   141  H    0.038579
   142  H    0.047857
   143  H    0.026527
   144  H    0.029398
   145  H    0.045367
   146  H    0.051515
   147  H    0.024327
   148  H    0.026332
   149  H    0.034918
   150  H    0.053879
   151  H    0.027630
   152  H    0.058691
   153  H    0.033832
   154  H    0.059816
   155  H    0.083193
   156  H    0.056096
   157  H    0.054840
   158  H    0.053185
 Sum of Mulliken charges =  -0.00000

 Dipole moment (field-independent basis, Debye):
    X=             -2.6233    Y=             -2.0609    Z=             -0.8195  Tot=              3.4352
 Quadrupole moment (field-independent basis, Debye-Ang):
   XX=           -452.5517   YY=           -466.1070   ZZ=           -525.7948
   XY=              1.5833   XZ=            -21.4975   YZ=              0.3447

 Normal termination of Gaussian 16 at Mon Sep 20 04:28:35 2021.
