 Gaussian 16, Revision A.03,
 Gaussian 16:  ES64L-G16RevA.03 25-Dec-2016

 --------------------------------
 #p wB97XD/Def2SVP td=(nstates=5)
 --------------------------------

 --------------------------------
 TDDFT excited states in gaussian
 --------------------------------
 Symbolic Z-matrix:
 Charge =  0 Multiplicity = 1

                         Standard orientation:
 ---------------------------------------------------------------------
 Center     Atomic      Atomic             Coordinates (Angstroms)
 Number     Number       Type             X           Y           Z
 ---------------------------------------------------------------------
      1         12           0      -21.999845    0.225167   -0.112862
      2          6           0      -18.576246    0.511476    0.300088
      3          6           0      -21.495933   -0.754120   -3.391707
      4          6           0      -25.229044   -0.753119   -0.213207
      5          6           0      -22.265753    0.908551    3.336765
      6          7           0      -20.202307   -0.360210   -1.314724
      7          6           0      -18.974647    0.037126   -0.968613
      8          6           0      -17.948555   -0.379349   -2.067417
      9          6           0      -18.908490   -0.521197   -3.341328
     10          6           0      -20.334483   -0.474283   -2.670514
     11          6           0      -18.610028    0.526396   -4.440863
     12          6           0      -17.325966   -1.714742   -1.729004
     13          6           0      -15.836695   -1.834142   -2.012594
     14          1           0      -15.175112   -3.155906   -2.557000
     15          7           0      -23.223643   -0.487055   -1.710927
     16          6           0      -22.853290   -0.896300   -2.936536
     17          6           0      -24.034694   -1.290070   -3.633237
     18          6           0      -25.174626   -1.132728   -2.787849
     19          6           0      -24.594606   -0.738051   -1.498177
     20          6           0      -24.016270   -1.595615   -5.085346
     21          6           0      -26.556109   -1.534499   -3.165341
     22          8           0      -26.791487   -1.935993   -4.292870
     23          6           0      -27.722139   -1.394527   -2.194071
     24          7           0      -23.601966    0.182234    1.416146
     25          6           0      -24.810326   -0.344663    1.071903
     26          6           0      -25.652633   -0.569590    2.285383
     27          6           0      -24.671035   -0.031010    3.430704
     28          6           0      -23.429513    0.463913    2.731093
     29          6           0      -27.044956    0.087008    2.236238
     30          6           0      -24.345476   -1.053340    4.607901
     31          6           0      -24.530849   -0.635488    6.085621
     32          7           0      -20.746852    0.646371    1.478782
     33          6           0      -20.998097    0.966818    2.775871
     34          6           0      -19.865481    1.539570    3.356104
     35          6           0      -18.842502    1.423059    2.425318
     36          6           0      -19.407090    0.809985    1.335016
     37          6           0      -19.790032    2.055214    4.823143
     38          6           0      -17.506140    1.676860    2.151128
     39          8           0      -16.644815    2.097949    2.915299
     40          6           0      -17.165196    1.054350    0.712261
     41          6           0      -16.798785    2.053820   -0.225135
     42          8           0      -17.484386    2.871297   -0.843829
     43          8           0      -15.418354    1.955020   -0.369735
     44          6           0      -14.698608    2.843542   -1.266030
     45          1           0      -21.358514   -0.910999   -4.463388
     46          1           0      -26.280064   -1.025870   -0.093443
     47          1           0      -22.477483    1.188797    4.370836
     48          1           0      -17.186693    0.397676   -2.123356
     49          1           0      -18.915595   -1.517042   -3.783244
     50          1           0      -17.865318    1.252856   -4.116246
     51          1           0      -19.532803    1.038702   -4.714993
     52          1           0      -18.284066   -0.015514   -5.328361
     53          1           0      -17.789178   -2.608792   -2.146881
     54          1           0      -17.569858   -1.866342   -0.677527
     55          1           0      -15.324763   -1.503162   -1.109162
     56          1           0      -15.702559   -1.047020   -2.754565
     57          1           0      -24.348799   -0.657788   -5.529933
     58          1           0      -24.678029   -2.427225   -5.328178
     59          1           0      -23.026047   -1.860606   -5.456098
     60          1           0      -27.655064   -2.255961   -1.529418
     61          1           0      -28.618898   -1.575647   -2.786123
     62          1           0      -27.681681   -0.436328   -1.676238
     63          1           0      -25.718508   -1.656979    2.267985
     64          1           0      -25.128083    0.776434    4.002783
     65          1           0      -27.752085   -0.728064    2.078695
     66          1           0      -27.128020    0.850494    1.462055
     67          1           0      -27.273150    0.520938    3.209450
     68          1           0      -23.300720   -1.351088    4.520012
     69          1           0      -24.959459   -1.953395    4.569054
     70          1           0      -23.537216   -0.233448    6.283077
     71          1           0      -24.683920   -1.513776    6.711404
     72          1           0      -25.160337    0.217253    6.339596
     73          1           0      -19.758724    1.193820    5.489093
     74          1           0      -20.652288    2.619635    5.178698
     75          1           0      -18.887899    2.646677    4.981884
     76          1           0      -16.398399    0.300645    0.891954
     77          1           0      -13.706567    2.988554   -0.839440
     78          1           0      -15.215542    3.770492   -1.515730
     79          1           0      -14.507377    2.292923   -2.187198
     80         12           0       21.132730   -0.932531   -0.199633
     81          6           0       21.939034    2.482240   -0.640276
     82          6           0       18.035335    0.039627    0.891298
     83          6           0       20.620143   -4.042022    0.818277
     84          6           0       24.478982   -1.708091   -0.872356
     85          7           0       20.164179    1.055566    0.244811
     86          6           0       20.672655    2.301147   -0.132974
     87          6           0       19.554409    3.370227   -0.063437
     88          6           0       18.311062    2.557778    0.452753
     89          6           0       18.814344    1.088967    0.514278
     90          6           0       17.567412    3.116975    1.653082
     91          6           0       19.267978    4.148608   -1.357009
     92          6           0       19.349207    5.691429   -1.195174
     93          1           0       18.109620    6.454657   -1.606125
     94          7           0       19.489655   -1.868395    0.653996
     95          6           0       18.311016   -1.322408    1.070083
     96          6           0       17.435670   -2.405868    1.449114
     97          6           0       18.241808   -3.617133    1.574108
     98          6           0       19.507980   -3.162281    1.020437
     99          6           0       15.917261   -2.162335    1.944753
    100          6           0       18.026826   -4.863539    2.319414
    101          8           0       18.746244   -5.820515    2.362863
    102          6           0       16.743583   -4.934839    3.141743
    103          7           0       22.471674   -2.594803    0.140392
    104          6           0       21.979030   -3.792848    0.510781
    105          6           0       23.027918   -4.891268    0.322031
    106          6           0       24.095442   -4.197170   -0.538987
    107          6           0       23.665992   -2.748565   -0.472019
    108          6           0       23.609568   -5.389664    1.723785
    109          6           0       23.970328   -4.747337   -2.050010
    110          6           0       22.733456   -4.251171   -2.847628
    111          7           0       22.895570    0.081697   -0.785948
    112          6           0       24.137973   -0.368429   -1.024748
    113          6           0       24.958418    0.753683   -1.393883
    114          6           0       24.135115    1.860448   -1.305162
    115          6           0       22.879739    1.433106   -0.864029
    116          6           0       26.425985    0.782063   -1.776276
    117          6           0       24.186768    3.317965   -1.447555
    118          8           0       25.003009    4.172016   -1.650814
    119          6           0       22.746454    3.778657   -1.100204
    120          6           0       22.893737    4.721332    0.036474
    121          8           0       23.470458    4.403751    1.046171
    122          8           0       22.391665    5.985972   -0.225319
    123          6           0       22.766850    7.066381    0.747151
    124          1           0       16.996130    0.343495    1.034185
    125          1           0       20.469779   -5.103683    1.026845
    126          1           0       25.469884   -1.875119   -1.299824
    127          1           0       19.792808    4.071408    0.736591
    128          1           0       17.528215    2.630292   -0.302478
    129          1           0       18.167217    3.859687    2.177035
    130          1           0       17.235658    2.354781    2.358587
    131          1           0       16.719414    3.666856    1.245655
    132          1           0       18.289564    4.026879   -1.821785
    133          1           0       19.961909    3.855760   -2.144592
    134          1           0       20.254595    6.093625   -1.649602
    135          1           0       19.444331    5.903219   -0.130948
    136          1           0       15.277117   -2.864868    1.411237
    137          1           0       15.491075   -1.183020    1.730322
    138          1           0       15.697895   -2.223805    3.010654
    139          1           0       15.959799   -4.854306    2.388187
    140          1           0       16.785373   -4.063534    3.794570
    141          1           0       16.588062   -5.879695    3.663394
    142          1           0       22.668832   -5.742013   -0.258074
    143          1           0       25.141869   -4.206857   -0.233224
    144          1           0       23.907918   -6.429652    1.588854
    145          1           0       22.953094   -5.380643    2.594535
    146          1           0       24.493846   -4.770957    1.875824
    147          1           0       23.997555   -5.835346   -2.106684
    148          1           0       24.763685   -4.315683   -2.660379
    149          1           0       22.557598   -4.752639   -3.798723
    150          1           0       22.888825   -3.194683   -3.066835
    151          1           0       21.863508   -4.349931   -2.197549
    152          1           0       26.665091    0.227066   -2.683134
    153          1           0       26.917798    0.297137   -0.933433
    154          1           0       26.831330    1.793098   -1.815940
    155          1           0       22.440813    4.327921   -1.990527
    156          1           0       21.791850    7.543601    0.845813
    157          1           0       23.484369    7.778076    0.339214
    158          1           0       23.175841    6.809392    1.723962
 ---------------------------------------------------------------------

 SCF Done:  E(RwB97XD) =  -4070.59765274     A.U. after   20 cycles

 Excitation energies and oscillator strengths:

 Excited State   1:      Singlet-A      1.6375 eV  757.16 nm  f=0.4332  <S**2>=0.000
     309 -> 315        0.19018
     312 -> 313        0.67991
     309 <- 315        0.11920
 This state for optimization and/or second-order correction.
 Total Energy, E(TD-HF/TD-DFT) =  -4070.53747601
 Copying the excited state density for this state as the 1-particle RhoCI density.

 Excited State   2:      Singlet-A      1.6443 eV  754.04 nm  f=0.3703  <S**2>=0.000
     310 -> 316        0.18076
     311 -> 314        0.68236
     310 <- 316        0.11648

 Excited State   3:      Singlet-A      2.1359 eV  580.49 nm  f=0.1350  <S**2>=0.000
     310 -> 314        0.65466
     311 -> 316       -0.25211

 Excited State   4:      Singlet-A      2.1723 eV  570.76 nm  f=0.0972  <S**2>=0.000
     309 -> 313        0.63454
     312 -> 315       -0.29671

 Excited State   5:      Singlet-A      3.2596 eV  380.36 nm  f=0.0048  <S**2>=0.000
     308 -> 313        0.67181
     312 -> 315        0.12873

 The electronic state is 1-A.
 Alpha  occ. eigenvalues --  -46.96064 -46.95883 -19.30369 -19.29918 -19.25169
 Alpha  occ. eigenvalues --  -19.24656 -19.24355 -19.24210 -19.23406 -19.23398
 Alpha  occ. eigenvalues --  -14.46957 -14.46720 -14.46642 -14.46515 -14.44452
 Alpha  occ. eigenvalues --  -14.44363 -14.43848 -14.43821 -10.43488 -10.42638
 Alpha  occ. eigenvalues --  -10.39288 -10.39182 -10.38606 -10.38307 -10.35600
 Alpha  occ. eigenvalues --  -10.35578 -10.35563 -10.35473 -10.35420 -10.35351
 Alpha  occ. eigenvalues --  -10.35183 -10.34920 -10.34794 -10.34770 -10.34760
 Alpha  occ. eigenvalues --  -10.34260 -10.33978 -10.33838 -10.33812 -10.33464
 Alpha  occ. eigenvalues --  -10.33367 -10.33193 -10.32840 -10.32822 -10.32795
 Alpha  occ. eigenvalues --  -10.32522 -10.32508 -10.32421 -10.32378 -10.32277
 Alpha  occ. eigenvalues --  -10.32262 -10.32262 -10.32093 -10.32056 -10.32024
 Alpha  occ. eigenvalues --  -10.31949 -10.31941 -10.31940 -10.31922 -10.31912
 Alpha  occ. eigenvalues --  -10.31541 -10.31465 -10.31358 -10.31106 -10.31077
 Alpha  occ. eigenvalues --  -10.30995 -10.30768 -10.30758 -10.30737 -10.30676
 Alpha  occ. eigenvalues --  -10.30571 -10.30474 -10.30471 -10.30354 -10.30076
 Alpha  occ. eigenvalues --  -10.30021 -10.29936 -10.29824 -10.29803 -10.29753
 Alpha  occ. eigenvalues --  -10.29733 -10.29462 -10.29102 -10.28922 -10.28900
 Alpha  occ. eigenvalues --  -10.28858  -3.21852  -3.21745  -1.95450  -1.95313
 Alpha  occ. eigenvalues --   -1.94965  -1.94879  -1.94810  -1.94706  -1.17945
 Alpha  occ. eigenvalues --   -1.17845  -1.13923  -1.13273  -1.12318  -1.12224
 Alpha  occ. eigenvalues --   -1.09824  -1.09749  -1.07595  -1.07207  -1.06332
 Alpha  occ. eigenvalues --   -1.06120  -1.05903  -1.05868  -1.04699  -1.04005
 Alpha  occ. eigenvalues --   -0.95936  -0.94346  -0.91440  -0.91041  -0.90772
 Alpha  occ. eigenvalues --   -0.90672  -0.90294  -0.90152  -0.89867  -0.89673
 Alpha  occ. eigenvalues --   -0.88882  -0.88511  -0.88271  -0.88205  -0.87405
 Alpha  occ. eigenvalues --   -0.86565  -0.86337  -0.85393  -0.84982  -0.84393
 Alpha  occ. eigenvalues --   -0.84195  -0.83487  -0.83147  -0.82819  -0.82780
 Alpha  occ. eigenvalues --   -0.82111  -0.80323  -0.80166  -0.79588  -0.79353
 Alpha  occ. eigenvalues --   -0.78704  -0.78539  -0.78460  -0.78077  -0.77160
 Alpha  occ. eigenvalues --   -0.77154  -0.75535  -0.75100  -0.74418  -0.73746
 Alpha  occ. eigenvalues --   -0.71871  -0.71286  -0.71232  -0.71203  -0.70128
 Alpha  occ. eigenvalues --   -0.70059  -0.69390  -0.69236  -0.68128  -0.67880
 Alpha  occ. eigenvalues --   -0.67524  -0.67420  -0.67287  -0.67141  -0.66899
 Alpha  occ. eigenvalues --   -0.66452  -0.64745  -0.64284  -0.62520  -0.62417
 Alpha  occ. eigenvalues --   -0.61957  -0.61692  -0.61285  -0.61131  -0.61099
 Alpha  occ. eigenvalues --   -0.60731  -0.60202  -0.60099  -0.60038  -0.59538
 Alpha  occ. eigenvalues --   -0.58369  -0.58140  -0.57981  -0.57496  -0.57339
 Alpha  occ. eigenvalues --   -0.57163  -0.56822  -0.56589  -0.56351  -0.56111
 Alpha  occ. eigenvalues --   -0.55548  -0.55367  -0.55360  -0.54928  -0.54622
 Alpha  occ. eigenvalues --   -0.54602  -0.54332  -0.54288  -0.54083  -0.54063
 Alpha  occ. eigenvalues --   -0.54037  -0.53842  -0.53829  -0.53479  -0.53469
 Alpha  occ. eigenvalues --   -0.53253  -0.53214  -0.52679  -0.52329  -0.52115
 Alpha  occ. eigenvalues --   -0.51997  -0.51964  -0.51741  -0.51555  -0.51454
 Alpha  occ. eigenvalues --   -0.51435  -0.51294  -0.51233  -0.51010  -0.50973
 Alpha  occ. eigenvalues --   -0.50955  -0.50365  -0.50339  -0.50236  -0.50193
 Alpha  occ. eigenvalues --   -0.49870  -0.49530  -0.49467  -0.49406  -0.48958
 Alpha  occ. eigenvalues --   -0.48867  -0.48740  -0.48681  -0.48565  -0.48366
 Alpha  occ. eigenvalues --   -0.48111  -0.48065  -0.48043  -0.47930  -0.47818
 Alpha  occ. eigenvalues --   -0.47789  -0.47489  -0.47456  -0.47291  -0.47235
 Alpha  occ. eigenvalues --   -0.47125  -0.47042  -0.46697  -0.46522  -0.46475
 Alpha  occ. eigenvalues --   -0.45993  -0.45867  -0.45596  -0.45591  -0.45409
 Alpha  occ. eigenvalues --   -0.45356  -0.45283  -0.45118  -0.44991  -0.44861
 Alpha  occ. eigenvalues --   -0.44840  -0.44391  -0.44296  -0.44178  -0.44039
 Alpha  occ. eigenvalues --   -0.44026  -0.43941  -0.43889  -0.43835  -0.43367
 Alpha  occ. eigenvalues --   -0.43359  -0.43298  -0.42951  -0.42794  -0.42233
 Alpha  occ. eigenvalues --   -0.42228  -0.41664  -0.41642  -0.40982  -0.40333
 Alpha  occ. eigenvalues --   -0.40226  -0.40177  -0.40012  -0.39938  -0.39806
 Alpha  occ. eigenvalues --   -0.39442  -0.39276  -0.39147  -0.38352  -0.38318
 Alpha  occ. eigenvalues --   -0.38211  -0.37618  -0.36869  -0.36530  -0.36400
 Alpha  occ. eigenvalues --   -0.36037  -0.35796  -0.35645  -0.34068  -0.33827
 Alpha  occ. eigenvalues --   -0.33304  -0.33244  -0.32708  -0.32655  -0.32557
 Alpha  occ. eigenvalues --   -0.32373  -0.32215  -0.31678  -0.26515  -0.26102
 Alpha  occ. eigenvalues --   -0.23392  -0.23381
 Alpha virt. eigenvalues --   -0.07583  -0.07532  -0.00408   0.00484   0.01861
 Alpha virt. eigenvalues --    0.02597   0.04414   0.04581   0.04803   0.05644
 Alpha virt. eigenvalues --    0.06189   0.07148   0.07559   0.07915   0.08095

 Mulliken charges:
               1
     1  Mg   0.939006
     2  C   -0.063568
     3  C   -0.088066
     4  C   -0.039664
     5  C   -0.124204
     6  N   -0.332081
     7  C    0.013093
     8  C   -0.124706
     9  C   -0.103013
    10  C    0.083797
    11  C    0.035825
    12  C    0.029679
    13  C   -0.116571
    14  H    0.044687
    15  N   -0.455893
    16  C    0.158255
    17  C   -0.182153
    18  C   -0.057249
    19  C    0.198347
    20  C    0.076162
    21  C    0.004720
    22  O   -0.236010
    23  C    0.002890
    24  N   -0.353929
    25  C   -0.009457
    26  C   -0.086549
    27  C   -0.051324
    28  C    0.062203
    29  C    0.022924
    30  C   -0.053248
    31  C   -0.067797
    32  N   -0.433956
    33  C    0.194504
    34  C   -0.187362
    35  C    0.053577
    36  C    0.161997
    37  C    0.075230
    38  C    0.056284
    39  O   -0.207054
    40  C   -0.077532
    41  C    0.295458
    42  O   -0.257332
    43  O   -0.388897
    44  C    0.139799
    45  H   -0.000124
    46  H   -0.030112
    47  H   -0.003590
    48  H    0.037060
    49  H    0.045716
    50  H    0.048940
    51  H    0.034023
    52  H    0.036023
    53  H    0.037206
    54  H    0.027176
    55  H    0.055773
    56  H    0.044456
    57  H    0.060714
    58  H    0.065607
    59  H    0.024423
    60  H    0.059364
    61  H    0.052027
    62  H    0.063645
    63  H    0.053051
    64  H    0.024121
    65  H    0.042397
    66  H    0.053161
    67  H    0.040460
    68  H    0.043613
    69  H    0.030927
    70  H    0.022315
    71  H    0.048019
    72  H    0.040162
    73  H    0.047480
    74  H    0.037850
    75  H    0.062224
    76  H    0.082989
    77  H    0.056807
    78  H    0.068864
    79  H    0.036410
    80  Mg   0.945838
    81  C   -0.040774
    82  C   -0.093409
    83  C   -0.065186
    84  C   -0.068608
    85  N   -0.371946
    86  C    0.009228
    87  C   -0.037949
    88  C   -0.103030
    89  C    0.075254
    90  C    0.021429
    91  C    0.015579
    92  C   -0.142051
    93  H    0.025743
    94  N   -0.445289
    95  C    0.174611
    96  C   -0.128344
    97  C   -0.081867
    98  C    0.149816
    99  C    0.018079
   100  C    0.023446
   101  O   -0.210426
   102  C   -0.005990
   103  N   -0.331012
   104  C    0.048335
   105  C   -0.089158
   106  C   -0.066708
   107  C    0.055925
   108  C    0.021710
   109  C   -0.041422
   110  C   -0.066559
   111  N   -0.411866
   112  C    0.080821
   113  C   -0.175951
   114  C   -0.085167
   115  C    0.178069
   116  C    0.073492
   117  C    0.147751
   118  O   -0.174254
   119  C   -0.066752
   120  C    0.252373
   121  O   -0.231227
   122  O   -0.382085
   123  C    0.126246
   124  H   -0.009961
   125  H    0.025878
   126  H   -0.003902
   127  H    0.040965
   128  H    0.033972
   129  H    0.030252
   130  H    0.043345
   131  H    0.031405
   132  H    0.042738
   133  H    0.032961
   134  H    0.067825
   135  H    0.036381
   136  H    0.048986
   137  H    0.027033
   138  H    0.053841
   139  H    0.041758
   140  H    0.056558
   141  H    0.049668
   142  H    0.042161
   143  H    0.039931
   144  H    0.039810
   145  H    0.057662
   146  H    0.036734
   147  H    0.045235
   148  H    0.027645
   149  H    0.048329
   150  H    0.041046
   151  H    0.039461
   152  H    0.051865
   153  H    0.041780
   154  H    0.060830
   155  H    0.062981
   156  H    0.053006
   157  H    0.061571
   158  H    0.073537
 Sum of Mulliken charges =  -0.00000

 Dipole moment (field-independent basis, Debye):
    X=             -4.5095    Y=             -1.0703    Z=              0.1371  Tot=              4.6368
 Quadrupole moment (field-independent basis, Debye-Ang):
   XX=           -551.8613   YY=           -520.6649   ZZ=           -508.8666
   XY=            -23.0052   XZ=           -117.4431   YZ=              6.3226

 Normal termination of Gaussian 16 at Sun Sep 19 04:02:08 2021.
