 Gaussian 16, Revision A.03,
 Gaussian 16:  ES64L-G16RevA.03 25-Dec-2016

 --------------------------------
 #p wB97XD/Def2SVP td=(nstates=5)
 --------------------------------

 --------------------------------
 TDDFT excited states in gaussian
 --------------------------------
 Symbolic Z-matrix:
 Charge =  0 Multiplicity = 1

                         Standard orientation:
 ---------------------------------------------------------------------
 Center     Atomic      Atomic             Coordinates (Angstroms)
 Number     Number       Type             X           Y           Z
 ---------------------------------------------------------------------
      1         12           0       13.442813    0.600192   -0.353789
      2          6           0       11.832203   -1.891622    1.563678
      3          6           0       15.108602   -1.714106   -2.010175
      4          6           0       15.527317    3.074821   -1.451006
      5          6           0       12.328181    2.978108    2.249729
      6          7           0       13.475828   -1.568157   -0.159990
      7          6           0       12.592397   -2.354709    0.488215
      8          6           0       12.719496   -3.797549   -0.038692
      9          6           0       13.710554   -3.734374   -1.156349
     10          6           0       14.185579   -2.250452   -1.111819
     11          6           0       14.799189   -4.881806   -1.081836
     12          6           0       11.412169   -4.575918   -0.406655
     13          6           0       11.344007   -5.604708   -1.615355
     14          1           0       10.640802   -6.951505   -1.391620
     15          7           0       14.932915    0.674073   -1.759203
     16          6           0       15.492210   -0.436174   -2.350475
     17          6           0       16.463220    0.020810   -3.303575
     18          6           0       16.666314    1.448644   -3.160311
     19          6           0       15.733850    1.779152   -2.060132
     20          6           0       17.175630   -0.990210   -4.107351
     21          6           0       17.551118    2.431207   -3.966617
     22          8           0       17.609008    3.575244   -3.656248
     23          6           0       18.137162    2.018402   -5.277456
     24          7           0       13.885423    2.719392    0.374078
     25          6           0       14.696423    3.484143   -0.390937
     26          6           0       14.767890    4.958294    0.121169
     27          6           0       13.723285    4.960648    1.278882
     28          6           0       13.272788    3.480447    1.348608
     29          6           0       16.124899    5.424834    0.576913
     30          6           0       12.485423    5.916576    1.156844
     31          6           0       11.353375    5.532027    0.265401
     32          7           0       12.318005    0.673886    1.521425
     33          6           0       11.937474    1.677460    2.365531
     34          6           0       11.030498    1.150129    3.355671
     35          6           0       10.935738   -0.245986    3.115708
     36          6           0       11.779308   -0.488233    2.012564
     37          6           0       10.452126    1.856710    4.530576
     38          6           0       10.377167   -1.490742    3.560661
     39          8           0        9.593576   -1.790409    4.454223
     40          6           0       10.890959   -2.609559    2.547435
     41          6           0       11.469137   -3.826343    3.250047
     42          8           0       12.467140   -3.801814    3.923047
     43          8           0       10.695978   -4.936420    2.949348
     44          6           0       11.155443   -6.157320    3.612412
     45          1           0       15.549519   -2.396915   -2.739965
     46          1           0       16.191591    3.821410   -1.890623
     47          1           0       11.911629    3.696671    2.958543
     48          1           0       13.097785   -4.261303    0.872324
     49          1           0       13.174616   -3.954228   -2.080087
     50          1           0       14.528700   -5.586074   -0.295276
     51          1           0       15.776249   -4.403732   -1.012381
     52          1           0       14.763942   -5.518152   -1.966294
     53          1           0       10.652243   -3.822469   -0.615298
     54          1           0       11.012032   -5.123707    0.446929
     55          1           0       12.387253   -5.770596   -1.884837
     56          1           0       10.869512   -5.117937   -2.467501
     57          1           0       18.192547   -0.613300   -4.214187
     58          1           0       16.717291   -0.991396   -5.095594
     59          1           0       17.238374   -2.034010   -3.799259
     60          1           0       19.113166    1.635529   -4.982131
     61          1           0       18.105847    2.865481   -5.963393
     62          1           0       17.651214    1.166654   -5.753868
     63          1           0       14.356662    5.660444   -0.604352
     64          1           0       14.057212    5.107375    2.305567
     65          1           0       16.905481    4.716848    0.295422
     66          1           0       16.189073    5.509752    1.662027
     67          1           0       16.283421    6.383805    0.084236
     68          1           0       12.815558    6.902346    0.828995
     69          1           0       12.150160    6.150141    2.167615
     70          1           0       11.703753    4.830994   -0.492399
     71          1           0       10.843319    6.273582   -0.349854
     72          1           0       10.588135    5.143572    0.938171
     73          1           0       11.184864    2.262277    5.227628
     74          1           0       10.052384    1.068935    5.169592
     75          1           0        9.714937    2.602798    4.232631
     76          1           0       10.019596   -2.892247    1.956401
     77          1           0       11.454842   -6.571166    2.650001
     78          1           0       10.235753   -6.585578    4.010288
     79          1           0       11.950316   -5.980136    4.337222
     80         12           0      -13.800300    0.487978    0.008727
     81          6           0      -11.517214   -1.978533   -0.515619
     82          6           0      -16.379827   -1.785357   -0.113241
     83          6           0      -15.965713    3.067156    0.354557
     84          6           0      -11.180831    2.833410   -0.350566
     85          7           0      -13.941183   -1.626092   -0.506095
     86          6           0      -12.864675   -2.442009   -0.349704
     87          6           0      -13.227390   -3.879825   -0.192726
     88          6           0      -14.833281   -3.766954   -0.332004
     89          6           0      -15.097156   -2.297023   -0.317382
     90          6           0      -15.386764   -4.454271   -1.661396
     91          6           0      -12.781461   -4.368718    1.263630
     92          6           0      -12.562752   -5.870030    1.463225
     93          1           0      -13.033028   -6.962170    0.470464
     94          7           0      -15.874396    0.665012    0.211663
     95          6           0      -16.768279   -0.413177    0.106933
     96          6           0      -18.099985    0.127058    0.253235
     97          6           0      -17.993167    1.522889    0.419384
     98          6           0      -16.559323    1.775203    0.378790
     99          6           0      -19.339975   -0.796981    0.273061
    100          6           0      -19.195597    2.599879    0.523683
    101          8           0      -19.004823    3.788596    0.810081
    102          6           0      -20.663996    2.264074    0.321763
    103          7           0      -13.555852    2.687231    0.068035
    104          6           0      -14.639401    3.491810    0.182762
    105          6           0      -14.281932    4.951856   -0.090394
    106          6           0      -12.649547    4.913383    0.011200
    107          6           0      -12.390493    3.398625    0.015160
    108          6           0      -14.918484    5.598303   -1.404747
    109          6           0      -12.001573    5.468572    1.379214
    110          6           0      -10.860388    6.467404    1.322816
    111          7           0      -11.735699    0.516137   -0.306662
    112          6           0      -10.820881    1.492195   -0.441705
    113          6           0       -9.455627    0.892835   -0.570012
    114          6           0       -9.729875   -0.495149   -0.542554
    115          6           0      -11.139148   -0.632018   -0.508334
    116          6           0       -8.113395    1.528952   -0.655591
    117          6           0       -9.052725   -1.736097   -0.600538
    118          8           0       -7.833617   -1.986431   -0.695846
    119          6           0      -10.182198   -2.763083   -0.590348
    120          6           0      -10.118383   -3.538375   -1.808145
    121          8           0      -10.122546   -3.197354   -2.949551
    122          8           0      -10.165249   -4.873849   -1.419348
    123          6           0      -10.182424   -6.006598   -2.422325
    124          1           0      -17.216339   -2.458346    0.084246
    125          1           0      -16.676668    3.896299    0.369002
    126          1           0      -10.364465    3.487821   -0.661278
    127          1           0      -12.855331   -4.641120   -0.878080
    128          1           0      -15.338119   -4.235033    0.513043
    129          1           0      -16.352455   -4.951519   -1.573367
    130          1           0      -14.608388   -5.089066   -2.084518
    131          1           0      -15.542016   -3.647829   -2.378830
    132          1           0      -13.491713   -4.050396    2.026973
    133          1           0      -11.843418   -3.849087    1.460617
    134          1           0      -12.987370   -6.098142    2.441679
    135          1           0      -11.497101   -6.048011    1.602372
    136          1           0      -19.107714   -1.860695    0.223142
    137          1           0      -19.967711   -0.490753   -0.563108
    138          1           0      -19.890437   -0.571123    1.186632
    139          1           0      -20.922762    1.652190    1.185112
    140          1           0      -20.819809    1.528415   -0.467560
    141          1           0      -21.227451    3.159977    0.061837
    142          1           0      -14.635039    5.540967    0.756831
    143          1           0      -12.194451    5.455879   -0.817697
    144          1           0      -14.145267    5.966146   -2.079644
    145          1           0      -15.599369    6.404151   -1.133073
    146          1           0      -15.453350    4.844530   -1.983031
    147          1           0      -11.711914    4.658527    2.048400
    148          1           0      -12.817583    5.938772    1.927148
    149          1           0      -10.035547    6.024002    1.879520
    150          1           0      -11.131923    7.447146    1.714868
    151          1           0      -10.504582    6.559700    0.295710
    152          1           0       -8.111448    2.613366   -0.546629
    153          1           0       -7.645291    1.320903   -1.618071
    154          1           0       -7.485573    1.109059    0.130049
    155          1           0      -10.115767   -3.440266    0.261686
    156          1           0      -10.208809   -5.613183   -3.438739
    157          1           0      -11.094453   -6.591693   -2.296796
    158          1           0       -9.271900   -6.574558   -2.231547
 ---------------------------------------------------------------------

 SCF Done:  E(RwB97XD) =  -4070.59397445     A.U. after   20 cycles

 Excitation energies and oscillator strengths:

 Excited State   1:      Singlet-A      1.6415 eV  755.32 nm  f=0.4147  <S**2>=0.000
     310 -> 316        0.19272
     312 -> 313        0.68073
     310 <- 316        0.11985
 This state for optimization and/or second-order correction.
 Total Energy, E(TD-HF/TD-DFT) =  -4070.53365085
 Copying the excited state density for this state as the 1-particle RhoCI density.

 Excited State   2:      Singlet-A      1.6819 eV  737.17 nm  f=0.3692  <S**2>=0.000
     309 -> 315        0.19752
     311 -> 314        0.67970
     309 <- 315        0.11919

 Excited State   3:      Singlet-A      2.1317 eV  581.61 nm  f=0.1030  <S**2>=0.000
     310 -> 313        0.64019
     312 -> 316       -0.28530

 Excited State   4:      Singlet-A      2.1740 eV  570.31 nm  f=0.0997  <S**2>=0.000
     309 -> 314        0.63664
     311 -> 315       -0.29863

 Excited State   5:      Singlet-A      3.3478 eV  370.35 nm  f=0.0009  <S**2>=0.000
     307 -> 313       -0.21274
     308 -> 313        0.65171

 The electronic state is 1-A.
 Alpha  occ. eigenvalues --  -46.96262 -46.95711 -19.29905 -19.28916 -19.24880
 Alpha  occ. eigenvalues --  -19.24538 -19.24509 -19.24190 -19.23876 -19.23605
 Alpha  occ. eigenvalues --  -14.47027 -14.46725 -14.46311 -14.46259 -14.44110
 Alpha  occ. eigenvalues --  -14.44040 -14.43956 -14.43315 -10.42889 -10.42468
 Alpha  occ. eigenvalues --  -10.40200 -10.39627 -10.38738 -10.38507 -10.35777
 Alpha  occ. eigenvalues --  -10.35647 -10.35606 -10.35073 -10.34918 -10.34899
 Alpha  occ. eigenvalues --  -10.34677 -10.34652 -10.34641 -10.34285 -10.34188
 Alpha  occ. eigenvalues --  -10.34019 -10.33869 -10.33703 -10.33523 -10.33412
 Alpha  occ. eigenvalues --  -10.33039 -10.32964 -10.32959 -10.32776 -10.32761
 Alpha  occ. eigenvalues --  -10.32487 -10.32363 -10.32321 -10.32310 -10.32268
 Alpha  occ. eigenvalues --  -10.32248 -10.32009 -10.32001 -10.32000 -10.31996
 Alpha  occ. eigenvalues --  -10.31844 -10.31801 -10.31622 -10.31602 -10.31577
 Alpha  occ. eigenvalues --  -10.31405 -10.31382 -10.31338 -10.31295 -10.31254
 Alpha  occ. eigenvalues --  -10.30903 -10.30684 -10.30676 -10.30501 -10.30449
 Alpha  occ. eigenvalues --  -10.30379 -10.30375 -10.30350 -10.30189 -10.30092
 Alpha  occ. eigenvalues --  -10.30024 -10.30008 -10.29986 -10.29936 -10.29900
 Alpha  occ. eigenvalues --  -10.29195 -10.29141 -10.28889 -10.28842 -10.28813
 Alpha  occ. eigenvalues --  -10.28705  -3.22056  -3.21567  -1.95608  -1.95179
 Alpha  occ. eigenvalues --   -1.95176  -1.95005  -1.94670  -1.94547  -1.18380
 Alpha  occ. eigenvalues --   -1.17770  -1.15065  -1.11699  -1.11366  -1.10667
 Alpha  occ. eigenvalues --   -1.10571  -1.09400  -1.07600  -1.06450  -1.06145
 Alpha  occ. eigenvalues --   -1.05566  -1.05066  -1.04628  -1.04445  -1.03804
 Alpha  occ. eigenvalues --   -0.95492  -0.93500  -0.91085  -0.90672  -0.90520
 Alpha  occ. eigenvalues --   -0.90122  -0.90108  -0.89412  -0.89236  -0.89048
 Alpha  occ. eigenvalues --   -0.88969  -0.88772  -0.88138  -0.87963  -0.86254
 Alpha  occ. eigenvalues --   -0.85813  -0.85522  -0.85333  -0.84388  -0.84229
 Alpha  occ. eigenvalues --   -0.83830  -0.83500  -0.83109  -0.82708  -0.82293
 Alpha  occ. eigenvalues --   -0.82247  -0.80349  -0.80197  -0.79384  -0.79039
 Alpha  occ. eigenvalues --   -0.78987  -0.78943  -0.78107  -0.77732  -0.77086
 Alpha  occ. eigenvalues --   -0.76531  -0.74584  -0.74248  -0.73938  -0.73360
 Alpha  occ. eigenvalues --   -0.71655  -0.71257  -0.71121  -0.70542  -0.70138
 Alpha  occ. eigenvalues --   -0.70137  -0.68866  -0.67941  -0.67229  -0.67143
 Alpha  occ. eigenvalues --   -0.66858  -0.66493  -0.66226  -0.66163  -0.66013
 Alpha  occ. eigenvalues --   -0.65932  -0.63817  -0.63612  -0.62444  -0.61977
 Alpha  occ. eigenvalues --   -0.61868  -0.61435  -0.61155  -0.60780  -0.60731
 Alpha  occ. eigenvalues --   -0.60416  -0.60245  -0.59904  -0.59718  -0.59319
 Alpha  occ. eigenvalues --   -0.57997  -0.57974  -0.57778  -0.57491  -0.57260
 Alpha  occ. eigenvalues --   -0.57215  -0.56921  -0.56455  -0.56123  -0.55928
 Alpha  occ. eigenvalues --   -0.55683  -0.55608  -0.55231  -0.54937  -0.54878
 Alpha  occ. eigenvalues --   -0.54682  -0.54640  -0.54223  -0.54092  -0.54058
 Alpha  occ. eigenvalues --   -0.53603  -0.53572  -0.53530  -0.53327  -0.53071
 Alpha  occ. eigenvalues --   -0.52808  -0.52739  -0.52690  -0.52462  -0.52442
 Alpha  occ. eigenvalues --   -0.52166  -0.51881  -0.51706  -0.51587  -0.51357
 Alpha  occ. eigenvalues --   -0.51345  -0.51047  -0.51041  -0.50865  -0.50797
 Alpha  occ. eigenvalues --   -0.50597  -0.50447  -0.50226  -0.50223  -0.50071
 Alpha  occ. eigenvalues --   -0.49863  -0.49579  -0.49531  -0.49219  -0.49106
 Alpha  occ. eigenvalues --   -0.49004  -0.48851  -0.48655  -0.48479  -0.48373
 Alpha  occ. eigenvalues --   -0.48127  -0.48066  -0.47894  -0.47681  -0.47493
 Alpha  occ. eigenvalues --   -0.47393  -0.47303  -0.47110  -0.46614  -0.46485
 Alpha  occ. eigenvalues --   -0.46441  -0.46249  -0.46210  -0.46179  -0.45932
 Alpha  occ. eigenvalues --   -0.45884  -0.45807  -0.45630  -0.45575  -0.45499
 Alpha  occ. eigenvalues --   -0.45149  -0.45050  -0.44913  -0.44835  -0.44567
 Alpha  occ. eigenvalues --   -0.44449  -0.44297  -0.44260  -0.43896  -0.43695
 Alpha  occ. eigenvalues --   -0.43655  -0.43545  -0.43339  -0.43280  -0.43045
 Alpha  occ. eigenvalues --   -0.42902  -0.42735  -0.42731  -0.42411  -0.42086
 Alpha  occ. eigenvalues --   -0.41955  -0.41631  -0.41317  -0.41028  -0.40778
 Alpha  occ. eigenvalues --   -0.40302  -0.39967  -0.39770  -0.39723  -0.39504
 Alpha  occ. eigenvalues --   -0.39265  -0.38929  -0.38742  -0.38550  -0.38100
 Alpha  occ. eigenvalues --   -0.37841  -0.37595  -0.36524  -0.36446  -0.36205
 Alpha  occ. eigenvalues --   -0.35492  -0.35386  -0.35302  -0.33691  -0.33365
 Alpha  occ. eigenvalues --   -0.33110  -0.33000  -0.32962  -0.32555  -0.32339
 Alpha  occ. eigenvalues --   -0.32206  -0.31947  -0.31435  -0.25730  -0.25667
 Alpha  occ. eigenvalues --   -0.22916  -0.22781
 Alpha virt. eigenvalues --   -0.06931  -0.06841   0.00213   0.00362   0.02063
 Alpha virt. eigenvalues --    0.02539   0.04326   0.04462   0.04707   0.05850
 Alpha virt. eigenvalues --    0.07090   0.07341   0.07872   0.08033   0.08387

 Mulliken charges:
               1
     1  Mg   0.948376
     2  C   -0.025488
     3  C   -0.065394
     4  C   -0.063874
     5  C   -0.102380
     6  N   -0.370871
     7  C   -0.015736
     8  C   -0.028478
     9  C   -0.134636
    10  C    0.098573
    11  C    0.020673
    12  C   -0.030037
    13  C   -0.123592
    14  H    0.053624
    15  N   -0.508257
    16  C    0.144450
    17  C   -0.142129
    18  C   -0.082489
    19  C    0.112888
    20  C    0.033096
    21  C    0.056445
    22  O   -0.199196
    23  C   -0.017855
    24  N   -0.306815
    25  C    0.065440
    26  C   -0.068736
    27  C   -0.048052
    28  C    0.007528
    29  C    0.036437
    30  C   -0.047543
    31  C   -0.031075
    32  N   -0.393271
    33  C    0.166213
    34  C   -0.184817
    35  C   -0.031381
    36  C    0.105978
    37  C    0.061951
    38  C    0.130948
    39  O   -0.210088
    40  C   -0.060843
    41  C    0.252881
    42  O   -0.228789
    43  O   -0.379359
    44  C    0.117898
    45  H   -0.017334
    46  H    0.026120
    47  H   -0.005221
    48  H    0.048772
    49  H    0.042336
    50  H    0.042657
    51  H    0.050010
    52  H    0.032107
    53  H    0.030395
    54  H    0.046395
    55  H    0.034713
    56  H    0.055981
    57  H    0.037042
    58  H    0.055376
    59  H    0.058226
    60  H    0.064442
    61  H    0.073605
    62  H    0.037379
    63  H    0.039910
    64  H    0.035136
    65  H    0.044139
    66  H    0.034775
    67  H    0.041244
    68  H    0.023620
    69  H    0.022361
    70  H    0.035823
    71  H    0.033349
    72  H    0.037273
    73  H    0.045329
    74  H    0.051394
    75  H    0.052726
    76  H    0.071191
    77  H    0.051485
    78  H    0.068866
    79  H    0.086161
    80  Mg   0.951250
    81  C   -0.080287
    82  C   -0.065188
    83  C   -0.054721
    84  C   -0.099691
    85  N   -0.357786
    86  C    0.029442
    87  C   -0.079471
    88  C   -0.109771
    89  C    0.090046
    90  C    0.022819
    91  C   -0.013551
    92  C   -0.098863
    93  H    0.035496
    94  N   -0.438963
    95  C    0.108607
    96  C   -0.179251
    97  C   -0.083552
    98  C    0.122511
    99  C    0.062266
   100  C    0.075870
   101  O   -0.249675
   102  C    0.010687
   103  N   -0.332430
   104  C    0.030849
   105  C   -0.062559
   106  C   -0.122892
   107  C    0.111237
   108  C    0.017312
   109  C   -0.023512
   110  C   -0.037703
   111  N   -0.390565
   112  C    0.092464
   113  C   -0.157229
   114  C   -0.058362
   115  C    0.195159
   116  C    0.082417
   117  C    0.129171
   118  O   -0.229392
   119  C   -0.055400
   120  C    0.260469
   121  O   -0.202823
   122  O   -0.416556
   123  C    0.130319
   124  H   -0.007820
   125  H    0.015234
   126  H    0.000015
   127  H    0.042191
   128  H    0.032276
   129  H    0.044409
   130  H    0.032952
   131  H    0.038474
   132  H    0.033278
   133  H    0.032545
   134  H    0.043056
   135  H    0.053534
   136  H    0.042698
   137  H    0.051376
   138  H    0.048496
   139  H    0.054813
   140  H    0.026221
   141  H    0.075528
   142  H    0.037501
   143  H    0.035239
   144  H    0.033623
   145  H    0.050429
   146  H    0.045436
   147  H    0.038501
   148  H    0.020855
   149  H    0.037221
   150  H    0.048320
   151  H    0.024345
   152  H    0.023622
   153  H    0.065257
   154  H    0.063980
   155  H    0.069762
   156  H    0.065855
   157  H    0.053330
   158  H    0.069254
 Sum of Mulliken charges =  -0.00000

 Dipole moment (field-independent basis, Debye):
    X=             -2.5120    Y=             -2.0353    Z=             -3.8647  Tot=              5.0387
 Quadrupole moment (field-independent basis, Debye-Ang):
   XX=           -414.7731   YY=           -455.5461   ZZ=           -521.0565
   XY=             25.4131   XZ=            -75.7597   YZ=             15.7989

 Normal termination of Gaussian 16 at Sun Sep 19 01:59:43 2021.
