 Gaussian 16, Revision A.03,
 Gaussian 16:  ES64L-G16RevA.03 25-Dec-2016

 --------------------------------
 #p wB97XD/Def2SVP td=(nstates=5)
 --------------------------------

 --------------------------------
 TDDFT excited states in gaussian
 --------------------------------
 Symbolic Z-matrix:
 Charge =  0 Multiplicity = 1

                         Standard orientation:
 ---------------------------------------------------------------------
 Center     Atomic      Atomic             Coordinates (Angstroms)
 Number     Number       Type             X           Y           Z
 ---------------------------------------------------------------------
      1         12           0       20.483184    0.244144    0.435768
      2          6           0       18.070873   -1.732799   -1.320554
      3          6           0       21.906962    0.925827   -2.589332
      4          6           0       22.879645    1.616159    1.994988
      5          6           0       19.576201   -1.481686    3.324462
      6          7           0       19.962076   -0.381050   -1.622928
      7          6           0       18.978357   -1.091104   -2.166335
      8          6           0       18.957410   -1.027506   -3.722898
      9          6           0       20.488319   -0.664334   -3.980621
     10          6           0       20.796804    0.033387   -2.667629
     11          6           0       21.390919   -1.886955   -4.111055
     12          6           0       18.004589    0.093235   -4.259370
     13          6           0       17.675276    0.011284   -5.752753
     14          1           0       16.344878    0.396705   -6.198669
     15          7           0       21.852998    1.523120   -0.189275
     16          6           0       22.298523    1.676126   -1.459465
     17          6           0       23.313770    2.750080   -1.408696
     18          6           0       23.558542    3.077510    0.023425
     19          6           0       22.782829    2.054079    0.676292
     20          6           0       23.903283    3.383541   -2.631379
     21          6           0       24.372161    4.137139    0.696731
     22          8           0       24.633809    4.101659    1.947673
     23          6           0       24.936543    5.184400   -0.173763
     24          7           0       21.298024   -0.054508    2.334314
     25          6           0       22.294650    0.714553    2.786273
     26          6           0       22.520450    0.508540    4.254780
     27          6           0       21.303373   -0.388983    4.767546
     28          6           0       20.594554   -0.622852    3.410656
     29          6           0       23.846522   -0.161360    4.640498
     30          6           0       20.469345    0.166117    5.949358
     31          6           0       19.710711    1.397779    5.508245
     32          7           0       18.960752   -1.202766    0.983214
     33          6           0       18.781359   -1.804316    2.237260
     34          6           0       17.695917   -2.791554    2.091506
     35          6           0       17.328114   -2.706943    0.750086
     36          6           0       18.150510   -1.747619    0.093082
     37          6           0       17.217558   -3.660825    3.111297
     38          6           0       16.448225   -3.221501   -0.286680
     39          8           0       15.480219   -3.983200   -0.303168
     40          6           0       16.975363   -2.699555   -1.695767
     41          6           0       15.791841   -2.161718   -2.452942
     42          8           0       15.194538   -1.137722   -2.063036
     43          8           0       15.697125   -2.790299   -3.634660
     44          6           0       14.560250   -2.282915   -4.448437
     45          1           0       22.573317    1.016075   -3.449429
     46          1           0       23.621721    2.144474    2.597188
     47          1           0       19.182028   -1.997039    4.202238
     48          1           0       18.710659   -1.969502   -4.212982
     49          1           0       20.607714    0.027223   -4.814418
     50          1           0       20.853579   -2.805709   -3.876372
     51          1           0       22.201413   -1.727622   -3.399573
     52          1           0       21.858518   -1.919976   -5.095452
     53          1           0       18.526442    1.049904   -4.236688
     54          1           0       17.076967    0.117845   -3.686450
     55          1           0       17.951972   -0.957639   -6.169331
     56          1           0       18.307935    0.724185   -6.281633
     57          1           0       23.655651    2.822901   -3.531882
     58          1           0       24.986075    3.294839   -2.545343
     59          1           0       23.626632    4.433943   -2.723318
     60          1           0       25.578513    4.721689   -0.923645
     61          1           0       25.412173    5.904242    0.491409
     62          1           0       24.124401    5.665087   -0.719944
     63          1           0       22.513726    1.458053    4.788453
     64          1           0       21.634665   -1.368601    5.112898
     65          1           0       24.452283    0.430047    5.327518
     66          1           0       24.393948   -0.377850    3.723575
     67          1           0       23.746999   -1.156346    5.073529
     68          1           0       21.123708    0.467973    6.766450
     69          1           0       19.753418   -0.553646    6.346396
     70          1           0       20.449026    2.191145    5.619116
     71          1           0       18.852585    1.569326    6.158939
     72          1           0       19.445322    1.344895    4.452187
     73          1           0       16.130148   -3.647319    3.038311
     74          1           0       17.552485   -3.337361    4.096588
     75          1           0       17.672481   -4.602316    2.803896
     76          1           0       17.428140   -3.554323   -2.197252
     77          1           0       13.935930   -3.140960   -4.697871
     78          1           0       14.996715   -1.718162   -5.272425
     79          1           0       13.840761   -1.648966   -3.929029
     80         12           0      -20.254676   -0.610404   -0.442842
     81          6           0      -19.514144    2.937292    0.132558
     82          6           0      -16.821074   -1.037461   -0.355212
     83          6           0      -20.834725   -3.694925    0.122082
     84          6           0      -23.698827    0.320228   -0.014447
     85          7           0      -18.351062    0.879783    0.015823
     86          6           0      -18.295644    2.243916    0.201104
     87          6           0      -16.812980    2.667516    0.509390
     88          6           0      -15.967769    1.457481    0.075064
     89          6           0      -17.095985    0.370909   -0.099191
     90          6           0      -15.123207    1.563419   -1.262238
     91          6           0      -16.583931    3.128462    1.989576
     92          6           0      -15.654183    4.305605    2.191354
     93          1           0      -14.205665    3.981156    2.674147
     94          7           0      -19.037799   -2.162885   -0.280615
     95          6           0      -17.672812   -2.191959   -0.372763
     96          6           0      -17.187450   -3.592416   -0.235147
     97          6           0      -18.369889   -4.359876   -0.070508
     98          6           0      -19.472599   -3.402693   -0.028413
     99          6           0      -15.726316   -4.068941   -0.193609
    100          6           0      -18.501475   -5.846744    0.271605
    101          8           0      -17.466814   -6.506973    0.312606
    102          6           0      -19.719161   -6.515912    0.509607
    103          7           0      -22.039569   -1.511011    0.265661
    104          6           0      -22.004408   -2.886293    0.147886
    105          6           0      -23.477481   -3.427946    0.309060
    106          6           0      -24.320875   -2.129750    0.575151
    107          6           0      -23.306448   -1.040663    0.151203
    108          6           0      -24.014459   -4.281405   -0.872586
    109          6           0      -24.928463   -1.894873    2.016677
    110          6           0      -26.221352   -2.642074    2.387335
    111          7           0      -21.464442    1.209079   -0.074232
    112          6           0      -22.830001    1.411722   -0.061546
    113          6           0      -23.165554    2.814879   -0.042397
    114          6           0      -21.874490    3.461233    0.018940
    115          6           0      -20.825236    2.477740    0.056908
    116          6           0      -24.565494    3.344985    0.003782
    117          6           0      -21.262570    4.708107    0.142090
    118          8           0      -21.732095    5.815751    0.365320
    119          6           0      -19.742890    4.446589    0.351598
    120          6           0      -19.067587    5.243138   -0.740304
    121          8           0      -18.119580    6.005905   -0.537677
    122          8           0      -19.494727    4.934211   -2.094236
    123          6           0      -18.573274    5.455653   -3.102476
    124          1           0      -15.741772   -1.192697   -0.404981
    125          1           0      -21.197575   -4.724720    0.139666
    126          1           0      -24.782673    0.448452    0.018991
    127          1           0      -16.514225    3.426313   -0.215257
    128          1           0      -15.339700    1.089595    0.886408
    129          1           0      -14.091241    1.663700   -0.926613
    130          1           0      -15.367697    2.472105   -1.811579
    131          1           0      -15.264141    0.750248   -1.974196
    132          1           0      -16.082708    2.395226    2.621950
    133          1           0      -17.528811    3.428602    2.443098
    134          1           0      -16.173258    5.010781    2.840524
    135          1           0      -15.535009    4.797601    1.225511
    136          1           0      -15.625711   -4.998936   -0.753786
    137          1           0      -15.512460   -4.157695    0.871451
    138          1           0      -15.068161   -3.355762   -0.688039
    139          1           0      -20.283057   -6.530455   -0.423628
    140          1           0      -20.297169   -6.131327    1.349963
    141          1           0      -19.354059   -7.481340    0.861638
    142          1           0      -23.616689   -4.066462    1.180780
    143          1           0      -25.130686   -2.027883   -0.146890
    144          1           0      -24.918597   -3.770377   -1.203758
    145          1           0      -24.262727   -5.271893   -0.492550
    146          1           0      -23.188160   -4.275944   -1.584485
    147          1           0      -25.118875   -0.821304    2.035643
    148          1           0      -24.234110   -2.222668    2.790601
    149          1           0      -26.446927   -3.132785    1.440105
    150          1           0      -27.047231   -1.947433    2.547149
    151          1           0      -26.160819   -3.368733    3.197160
    152          1           0      -25.011963    2.896664    0.890377
    153          1           0      -25.192577    2.989049   -0.813442
    154          1           0      -24.608208    4.413800    0.213675
    155          1           0      -19.477227    4.887686    1.312112
    156          1           0      -18.830943    4.724318   -3.869478
    157          1           0      -17.553945    5.538587   -2.725457
    158          1           0      -18.988860    6.408391   -3.430857
 ---------------------------------------------------------------------

 SCF Done:  E(RwB97XD) =  -4070.56239653     A.U. after   20 cycles

 Excitation energies and oscillator strengths:

 Excited State   1:      Singlet-A      1.6216 eV  764.59 nm  f=0.3861  <S**2>=0.000
     310 -> 316       -0.18178
     312 -> 314        0.68321
     310 <- 316       -0.11453
 This state for optimization and/or second-order correction.
 Total Energy, E(TD-HF/TD-DFT) =  -4070.50280459
 Copying the excited state density for this state as the 1-particle RhoCI density.

 Excited State   2:      Singlet-A      1.6686 eV  743.02 nm  f=0.3533  <S**2>=0.000
     309 -> 315       -0.20207
     311 -> 313        0.67705
     309 <- 315       -0.11954

 Excited State   3:      Singlet-A      2.1386 eV  579.75 nm  f=0.0955  <S**2>=0.000
     310 -> 314        0.63841
     312 -> 316        0.28190

 Excited State   4:      Singlet-A      2.1895 eV  566.26 nm  f=0.0673  <S**2>=0.000
     309 -> 313        0.61433
     311 -> 315        0.33150

 Excited State   5:      Singlet-A      3.2144 eV  385.71 nm  f=0.0157  <S**2>=0.000
     308 -> 313        0.61821
     308 -> 317        0.12006
     311 -> 315       -0.24319

 The electronic state is 1-A.
 Alpha  occ. eigenvalues --  -46.97068 -46.94111 -19.31485 -19.28909 -19.25002
 Alpha  occ. eigenvalues --  -19.23977 -19.23869 -19.23800 -19.23208 -19.22870
 Alpha  occ. eigenvalues --  -14.47317 -14.47029 -14.46539 -14.46037 -14.45387
 Alpha  occ. eigenvalues --  -14.44002 -14.43709 -14.43142 -10.43243 -10.42922
 Alpha  occ. eigenvalues --  -10.39414 -10.38863 -10.38396 -10.37457 -10.36383
 Alpha  occ. eigenvalues --  -10.35935 -10.35617 -10.35574 -10.35437 -10.35428
 Alpha  occ. eigenvalues --  -10.35419 -10.34976 -10.34892 -10.34594 -10.34527
 Alpha  occ. eigenvalues --  -10.34464 -10.34180 -10.33879 -10.33843 -10.33813
 Alpha  occ. eigenvalues --  -10.33335 -10.33228 -10.33203 -10.33035 -10.32947
 Alpha  occ. eigenvalues --  -10.32868 -10.32800 -10.32648 -10.32452 -10.32418
 Alpha  occ. eigenvalues --  -10.32342 -10.32316 -10.32269 -10.32238 -10.32132
 Alpha  occ. eigenvalues --  -10.32086 -10.31851 -10.31774 -10.31694 -10.31562
 Alpha  occ. eigenvalues --  -10.31533 -10.31496 -10.31457 -10.31412 -10.31369
 Alpha  occ. eigenvalues --  -10.31174 -10.30837 -10.30820 -10.30749 -10.30696
 Alpha  occ. eigenvalues --  -10.30620 -10.30583 -10.30486 -10.30259 -10.30089
 Alpha  occ. eigenvalues --  -10.30065 -10.30057 -10.30009 -10.29976 -10.29662
 Alpha  occ. eigenvalues --  -10.29626 -10.29258 -10.29225 -10.28851 -10.28789
 Alpha  occ. eigenvalues --  -10.28458  -3.22971  -3.20270  -1.96495  -1.96137
 Alpha  occ. eigenvalues --   -1.95890  -1.93847  -1.93412  -1.93252  -1.18808
 Alpha  occ. eigenvalues --   -1.16053  -1.12655  -1.11165  -1.10836  -1.09415
 Alpha  occ. eigenvalues --   -1.08820  -1.08522  -1.07080  -1.06552  -1.05753
 Alpha  occ. eigenvalues --   -1.05334  -1.05324  -1.05240  -1.04419  -1.03059
 Alpha  occ. eigenvalues --   -0.94845  -0.93911  -0.91394  -0.91033  -0.90868
 Alpha  occ. eigenvalues --   -0.90792  -0.90379  -0.90152  -0.89772  -0.89573
 Alpha  occ. eigenvalues --   -0.89212  -0.88955  -0.88856  -0.87827  -0.86896
 Alpha  occ. eigenvalues --   -0.86860  -0.85796  -0.85741  -0.85571  -0.84878
 Alpha  occ. eigenvalues --   -0.84544  -0.84453  -0.83505  -0.83086  -0.82537
 Alpha  occ. eigenvalues --   -0.81820  -0.80753  -0.80211  -0.79252  -0.79123
 Alpha  occ. eigenvalues --   -0.78929  -0.78831  -0.77838  -0.77738  -0.77203
 Alpha  occ. eigenvalues --   -0.76794  -0.74800  -0.74734  -0.73893  -0.73612
 Alpha  occ. eigenvalues --   -0.71778  -0.71074  -0.70813  -0.70526  -0.69683
 Alpha  occ. eigenvalues --   -0.69628  -0.69156  -0.68972  -0.67483  -0.67301
 Alpha  occ. eigenvalues --   -0.67203  -0.66974  -0.66821  -0.66575  -0.66206
 Alpha  occ. eigenvalues --   -0.66005  -0.64262  -0.63860  -0.62417  -0.62388
 Alpha  occ. eigenvalues --   -0.61785  -0.61741  -0.61235  -0.60953  -0.60882
 Alpha  occ. eigenvalues --   -0.60475  -0.59529  -0.59251  -0.59160  -0.58972
 Alpha  occ. eigenvalues --   -0.58641  -0.58275  -0.57841  -0.57563  -0.57476
 Alpha  occ. eigenvalues --   -0.57243  -0.56723  -0.56449  -0.56270  -0.55810
 Alpha  occ. eigenvalues --   -0.55796  -0.55657  -0.55449  -0.55224  -0.55202
 Alpha  occ. eigenvalues --   -0.55145  -0.54857  -0.54824  -0.54661  -0.54413
 Alpha  occ. eigenvalues --   -0.54302  -0.53879  -0.53816  -0.53652  -0.53512
 Alpha  occ. eigenvalues --   -0.53392  -0.53112  -0.52944  -0.52515  -0.52498
 Alpha  occ. eigenvalues --   -0.51923  -0.51860  -0.51790  -0.51769  -0.51481
 Alpha  occ. eigenvalues --   -0.51431  -0.51152  -0.51076  -0.50999  -0.50873
 Alpha  occ. eigenvalues --   -0.50539  -0.50496  -0.50403  -0.50365  -0.50309
 Alpha  occ. eigenvalues --   -0.50060  -0.49872  -0.49637  -0.49602  -0.49223
 Alpha  occ. eigenvalues --   -0.49212  -0.48678  -0.48631  -0.48458  -0.48439
 Alpha  occ. eigenvalues --   -0.48294  -0.48084  -0.48017  -0.47825  -0.47718
 Alpha  occ. eigenvalues --   -0.47291  -0.47086  -0.46879  -0.46582  -0.46485
 Alpha  occ. eigenvalues --   -0.46413  -0.46396  -0.46290  -0.46033  -0.46000
 Alpha  occ. eigenvalues --   -0.45978  -0.45921  -0.45699  -0.45538  -0.45361
 Alpha  occ. eigenvalues --   -0.45307  -0.45128  -0.44944  -0.44642  -0.44543
 Alpha  occ. eigenvalues --   -0.44531  -0.44360  -0.44233  -0.44015  -0.43897
 Alpha  occ. eigenvalues --   -0.43882  -0.43692  -0.43411  -0.43397  -0.43230
 Alpha  occ. eigenvalues --   -0.43011  -0.42843  -0.42722  -0.42434  -0.42145
 Alpha  occ. eigenvalues --   -0.42106  -0.42091  -0.41808  -0.41364  -0.41188
 Alpha  occ. eigenvalues --   -0.40752  -0.40344  -0.39786  -0.39671  -0.39590
 Alpha  occ. eigenvalues --   -0.39339  -0.39172  -0.39135  -0.38695  -0.38257
 Alpha  occ. eigenvalues --   -0.38171  -0.37318  -0.36520  -0.36268  -0.35911
 Alpha  occ. eigenvalues --   -0.35765  -0.35329  -0.35242  -0.33812  -0.33500
 Alpha  occ. eigenvalues --   -0.33339  -0.33179  -0.33169  -0.32092  -0.31987
 Alpha  occ. eigenvalues --   -0.31601  -0.31464  -0.30841  -0.26375  -0.25988
 Alpha  occ. eigenvalues --   -0.23242  -0.22907
 Alpha virt. eigenvalues --   -0.07110  -0.07089  -0.00777   0.00196   0.01904
 Alpha virt. eigenvalues --    0.02000   0.03667   0.04327   0.04344   0.06282
 Alpha virt. eigenvalues --    0.06842   0.07006   0.07118   0.07271   0.08182

 Mulliken charges:
               1
     1  Mg   0.978889
     2  C   -0.020050
     3  C   -0.101240
     4  C   -0.061300
     5  C   -0.071117
     6  N   -0.323327
     7  C   -0.008567
     8  C   -0.058193
     9  C   -0.138146
    10  C    0.061921
    11  C    0.058289
    12  C    0.014075
    13  C   -0.126927
    14  H    0.052363
    15  N   -0.518235
    16  C    0.183331
    17  C   -0.196037
    18  C   -0.037007
    19  C    0.166708
    20  C    0.060858
    21  C    0.056663
    22  O   -0.280025
    23  C    0.001765
    24  N   -0.410397
    25  C    0.066187
    26  C   -0.084870
    27  C   -0.063904
    28  C    0.089746
    29  C    0.031895
    30  C   -0.016685
    31  C   -0.058127
    32  N   -0.398888
    33  C    0.097355
    34  C   -0.187955
    35  C   -0.040136
    36  C    0.126367
    37  C    0.081454
    38  C    0.128857
    39  O   -0.224783
    40  C   -0.076924
    41  C    0.275867
    42  O   -0.284575
    43  O   -0.335640
    44  C    0.120654
    45  H    0.007880
    46  H    0.010714
    47  H   -0.017345
    48  H    0.025998
    49  H    0.022613
    50  H    0.047103
    51  H    0.037802
    52  H    0.040086
    53  H    0.035398
    54  H    0.067677
    55  H    0.038943
    56  H    0.040621
    57  H    0.029633
    58  H    0.048966
    59  H    0.062130
    60  H    0.057793
    61  H    0.061845
    62  H    0.053031
    63  H    0.042950
    64  H    0.035662
    65  H    0.045327
    66  H    0.034318
    67  H    0.025704
    68  H    0.032622
    69  H    0.029405
    70  H    0.029212
    71  H    0.042217
    72  H    0.049645
    73  H    0.070892
    74  H    0.031407
    75  H    0.069398
    76  H    0.065855
    77  H    0.061240
    78  H    0.062806
    79  H    0.070265
    80  Mg   0.966407
    81  C   -0.023634
    82  C   -0.063181
    83  C   -0.092125
    84  C   -0.101000
    85  N   -0.282613
    86  C   -0.034095
    87  C    0.018429
    88  C   -0.119723
    89  C   -0.008180
    90  C    0.015362
    91  C    0.017485
    92  C   -0.125831
    93  H    0.022319
    94  N   -0.499555
    95  C    0.163175
    96  C   -0.190126
    97  C   -0.055655
    98  C    0.215245
    99  C    0.096981
   100  C    0.017674
   101  O   -0.245702
   102  C    0.020304
   103  N   -0.384979
   104  C    0.048515
   105  C   -0.125757
   106  C   -0.090034
   107  C    0.045058
   108  C    0.037753
   109  C   -0.003802
   110  C   -0.042739
   111  N   -0.423461
   112  C    0.155274
   113  C   -0.159558
   114  C   -0.021054
   115  C    0.158952
   116  C    0.093565
   117  C    0.074427
   118  O   -0.216404
   119  C   -0.098755
   120  C    0.286703
   121  O   -0.256829
   122  O   -0.417835
   123  C    0.139159
   124  H   -0.001206
   125  H   -0.023775
   126  H   -0.001969
   127  H    0.034642
   128  H    0.044332
   129  H    0.048651
   130  H    0.036628
   131  H    0.049366
   132  H    0.048493
   133  H    0.043910
   134  H    0.057343
   135  H    0.052592
   136  H    0.068285
   137  H    0.069404
   138  H    0.030928
   139  H    0.075377
   140  H    0.063958
   141  H    0.054823
   142  H    0.035890
   143  H    0.019909
   144  H    0.037817
   145  H    0.042218
   146  H    0.042238
   147  H    0.028939
   148  H    0.036401
   149  H    0.015389
   150  H    0.040160
   151  H    0.050245
   152  H    0.034103
   153  H    0.047787
   154  H    0.062804
   155  H    0.072093
   156  H    0.050716
   157  H    0.068809
   158  H    0.052538
 Sum of Mulliken charges =  -0.00000

 Dipole moment (field-independent basis, Debye):
    X=              2.1643    Y=             -4.1924    Z=             -4.6330  Tot=              6.6125
 Quadrupole moment (field-independent basis, Debye-Ang):
   XX=           -309.7137   YY=           -570.0491   ZZ=           -461.2884
   XY=            137.4658   XZ=            -38.1022   YZ=            -18.9987

 Normal termination of Gaussian 16 at Sun Sep 19 10:54:34 2021.
