 Gaussian 16, Revision A.03,
 Gaussian 16:  ES64L-G16RevA.03 25-Dec-2016

 --------------------------------
 #p wB97XD/Def2SVP td=(nstates=5)
 --------------------------------

 --------------------------------
 TDDFT excited states in gaussian
 --------------------------------
 Symbolic Z-matrix:
 Charge =  0 Multiplicity = 1

                         Standard orientation:
 ---------------------------------------------------------------------
 Center     Atomic      Atomic             Coordinates (Angstroms)
 Number     Number       Type             X           Y           Z
 ---------------------------------------------------------------------
      1         12           0      -16.098639   -0.855745   -0.212999
      2          6           0      -18.205917    1.912957    0.688228
      3          6           0      -13.709943    1.571512   -1.199629
      4          6           0      -13.943720   -3.388255   -1.280254
      5          6           0      -18.562797   -3.033016    0.376680
      6          7           0      -16.112011    1.556168   -0.420092
      7          6           0      -17.021228    2.396364    0.119075
      8          6           0      -16.605162    3.885482   -0.159489
      9          6           0      -15.267563    3.664260   -0.952291
     10          6           0      -14.938366    2.161813   -0.796658
     11          6           0      -15.374398    4.134063   -2.445087
     12          6           0      -16.410101    4.709209    1.113183
     13          6           0      -16.990102    6.085480    1.104240
     14          1           0      -16.915689    6.927234    2.386352
     15          7           0      -14.074468   -0.945576   -0.904960
     16          6           0      -13.301776    0.159669   -1.245568
     17          6           0      -12.000648   -0.315589   -1.672398
     18          6           0      -11.987583   -1.699396   -1.615125
     19          6           0      -13.409695   -2.085715   -1.325743
     20          6           0      -10.912638    0.555948   -2.230758
     21          6           0      -10.858611   -2.747724   -1.980967
     22          8           0      -10.918229   -3.950766   -1.908514
     23          6           0       -9.473984   -2.233156   -2.310015
     24          7           0      -16.242659   -2.843515   -0.570905
     25          6           0      -15.286389   -3.728420   -0.996207
     26          6           0      -15.870583   -5.134347   -1.268118
     27          6           0      -17.264609   -5.081632   -0.509643
     28          6           0      -17.347819   -3.541769   -0.183218
     29          6           0      -15.945281   -5.481225   -2.789517
     30          6           0      -17.341678   -5.974375    0.766169
     31          6           0      -16.464888   -5.533975    1.936252
     32          7           0      -17.979274   -0.686402    0.362738
     33          6           0      -18.925793   -1.709117    0.649878
     34          6           0      -20.187684   -1.128315    1.103225
     35          6           0      -19.922177    0.250803    1.178328
     36          6           0      -18.591392    0.485707    0.742031
     37          6           0      -21.395574   -1.864838    1.456140
     38          6           0      -20.562517    1.513340    1.532818
     39          8           0      -21.669826    1.716781    2.001818
     40          6           0      -19.502322    2.678925    1.145584
     41          6           0      -19.442284    3.423000    2.481788
     42          8           0      -18.905823    3.061237    3.544550
     43          8           0      -20.131398    4.545657    2.374284
     44          6           0      -19.999351    5.604939    3.455214
     45          1           0      -12.955293    2.326011   -1.430023
     46          1           0      -13.344250   -4.244873   -1.598130
     47          1           0      -19.296725   -3.803893    0.619499
     48          1           0      -17.462340    4.307323   -0.683194
     49          1           0      -14.432466    4.190534   -0.488018
     50          1           0      -14.628177    4.857907   -2.772658
     51          1           0      -16.381967    4.416222   -2.751110
     52          1           0      -15.135466    3.386431   -3.201766
     53          1           0      -15.366129    5.005172    1.008579
     54          1           0      -16.571503    4.134953    2.026145
     55          1           0      -18.011623    6.244055    0.754843
     56          1           0      -16.363356    6.607364    0.381019
     57          1           0      -11.148851    1.612842   -2.109846
     58          1           0      -10.684862    0.395618   -3.285717
     59          1           0       -9.941128    0.466725   -1.744368
     60          1           0       -9.035824   -1.665611   -1.489106
     61          1           0       -9.668327   -1.656298   -3.214264
     62          1           0       -8.948805   -3.130440   -2.637433
     63          1           0      -15.111240   -5.808256   -0.869888
     64          1           0      -18.168499   -5.131492   -1.117168
     65          1           0      -15.245192   -6.265778   -3.076544
     66          1           0      -15.878242   -4.664717   -3.507636
     67          1           0      -16.975559   -5.828500   -2.869232
     68          1           0      -17.306809   -7.013552    0.438764
     69          1           0      -18.357975   -5.897377    1.152206
     70          1           0      -15.785050   -4.706380    1.737037
     71          1           0      -15.848067   -6.399225    2.177827
     72          1           0      -16.992306   -5.114233    2.792071
     73          1           0      -22.238775   -1.246947    1.765542
     74          1           0      -21.093845   -2.526163    2.268270
     75          1           0      -21.662352   -2.485497    0.599561
     76          1           0      -19.922872    3.407913    0.452920
     77          1           0      -20.375181    6.526564    3.010304
     78          1           0      -18.963416    5.812277    3.721725
     79          1           0      -20.505293    5.342761    4.385127
     80         12           0       16.318253   -0.561765    0.429011
     81          6           0       15.752004    2.494798   -1.348114
     82          6           0       17.785725    1.236981    2.959810
     83          6           0       17.308034   -3.406375    1.957523
     84          6           0       15.697802   -2.251745   -2.604199
     85          7           0       16.695860    1.607558    0.742417
     86          6           0       16.330626    2.701806   -0.057457
     87          6           0       16.687315    3.978140    0.660481
     88          6           0       17.759642    3.482696    1.720067
     89          6           0       17.438699    1.960519    1.784985
     90          6           0       19.187135    3.778692    1.136534
     91          6           0       15.451188    4.773075    1.211306
     92          6           0       15.594167    6.184731    0.935493
     93          1           0       14.251570    7.054289    1.125302
     94          7           0       17.250592   -0.931190    2.313127
     95          6           0       17.737972   -0.063509    3.208050
     96          6           0       18.173479   -0.776543    4.369397
     97          6           0       18.069296   -2.127422    4.112208
     98          6           0       17.448040   -2.242501    2.712659
     99          6           0       18.857178   -0.060170    5.577067
    100          6           0       18.375620   -3.319969    5.041402
    101          8           0       18.251349   -4.440384    4.615741
    102          6           0       18.737030   -3.097627    6.491107
    103          7           0       16.729195   -2.513270   -0.350616
    104          6           0       17.003558   -3.530111    0.557329
    105          6           0       16.822839   -4.870712   -0.077143
    106          6           0       16.281273   -4.508660   -1.545341
    107          6           0       16.161485   -3.003600   -1.498035
    108          6           0       18.051517   -5.714490   -0.025597
    109          6           0       14.906828   -5.226423   -2.036009
    110          6           0       14.961937   -6.091663   -3.232531
    111          7           0       15.775944   -0.057304   -1.576194
    112          6           0       15.575454   -0.877875   -2.663255
    113          6           0       15.123995   -0.002232   -3.830419
    114          6           0       15.068238    1.314006   -3.329776
    115          6           0       15.525351    1.233742   -1.967729
    116          6           0       14.835226   -0.520536   -5.245873
    117          6           0       14.871959    2.668655   -3.749142
    118          8           0       14.518231    3.131334   -4.857118
    119          6           0       15.464964    3.511592   -2.546611
    120          6           0       14.435313    4.654425   -2.297497
    121          8           0       13.619515    4.582706   -1.360173
    122          8           0       14.660391    5.673288   -3.162959
    123          6           0       13.536970    6.664937   -3.041891
    124          1           0       18.046935    1.801907    3.857483
    125          1           0       17.603008   -4.342074    2.438408
    126          1           0       15.390509   -2.690116   -3.555828
    127          1           0       17.240533    4.577479   -0.062243
    128          1           0       17.655235    4.000518    2.672853
    129          1           0       19.478378    3.103305    0.332472
    130          1           0       19.908627    3.763716    1.952329
    131          1           0       19.200416    4.795923    0.744481
    132          1           0       15.520414    4.726370    2.298364
    133          1           0       14.506552    4.341733    0.879237
    134          1           0       15.783716    6.361241   -0.123423
    135          1           0       16.379099    6.566593    1.588771
    136          1           0       18.246065   -0.376160    6.422475
    137          1           0       18.834402    1.028794    5.538177
    138          1           0       19.904808   -0.354762    5.637150
    139          1           0       19.000280   -4.041344    6.968938
    140          1           0       17.770553   -2.696958    6.796712
    141          1           0       19.555402   -2.378711    6.529109
    142          1           0       16.023539   -5.308166    0.521359
    143          1           0       17.061104   -4.808791   -2.244816
    144          1           0       17.806026   -6.504524    0.682977
    145          1           0       18.901752   -5.202339    0.424591
    146          1           0       18.384585   -6.119662   -0.981384
    147          1           0       14.295800   -4.369212   -2.318606
    148          1           0       14.454493   -5.700986   -1.166236
    149          1           0       14.346854   -5.690587   -4.037662
    150          1           0       14.427179   -6.935163   -2.797242
    151          1           0       15.974344   -6.402990   -3.493433
    152          1           0       15.765638   -0.395509   -5.798639
    153          1           0       14.039821    0.036566   -5.740827
    154          1           0       14.495041   -1.554107   -5.181356
    155          1           0       16.406875    3.881826   -2.949060
    156          1           0       12.593863    6.346422   -3.485660
    157          1           0       13.758337    7.655674   -3.437470
    158          1           0       13.420718    6.841701   -1.972431
 ---------------------------------------------------------------------

 SCF Done:  E(RwB97XD) =  -4070.56266806     A.U. after   19 cycles

 Excitation energies and oscillator strengths:

 Excited State   1:      Singlet-A      1.5890 eV  780.29 nm  f=0.3694  <S**2>=0.000
     310 -> 316        0.18991
     311 -> 313        0.68303
     310 <- 316        0.12269
 This state for optimization and/or second-order correction.
 Total Energy, E(TD-HF/TD-DFT) =  -4070.50427503
 Copying the excited state density for this state as the 1-particle RhoCI density.

 Excited State   2:      Singlet-A      1.6770 eV  739.30 nm  f=0.3525  <S**2>=0.000
     309 -> 315        0.19184
     312 -> 314        0.68013
     309 <- 315        0.11544

 Excited State   3:      Singlet-A      2.1589 eV  574.29 nm  f=0.0887  <S**2>=0.000
     310 -> 313        0.62436
     311 -> 316       -0.32213

 Excited State   4:      Singlet-A      2.2165 eV  559.38 nm  f=0.0062  <S**2>=0.000
     309 -> 314        0.55058
     312 -> 315       -0.43359

 Excited State   5:      Singlet-A      3.6367 eV  340.93 nm  f=0.0000  <S**2>=0.000
     312 -> 313        0.70706

 The electronic state is 1-A.
 Alpha  occ. eigenvalues --  -46.95784 -46.94595 -19.31387 -19.30114 -19.24724
 Alpha  occ. eigenvalues --  -19.24549 -19.24504 -19.24372 -19.23793 -19.22939
 Alpha  occ. eigenvalues --  -14.47040 -14.46892 -14.46498 -14.46103 -14.44698
 Alpha  occ. eigenvalues --  -14.44266 -14.43994 -14.43740 -10.43589 -10.42293
 Alpha  occ. eigenvalues --  -10.39679 -10.39540 -10.39388 -10.38914 -10.35956
 Alpha  occ. eigenvalues --  -10.35460 -10.35435 -10.35415 -10.35368 -10.35351
 Alpha  occ. eigenvalues --  -10.35303 -10.35235 -10.35105 -10.35100 -10.34956
 Alpha  occ. eigenvalues --  -10.34666 -10.34454 -10.33999 -10.33908 -10.33137
 Alpha  occ. eigenvalues --  -10.33069 -10.33025 -10.32986 -10.32903 -10.32864
 Alpha  occ. eigenvalues --  -10.32790 -10.32699 -10.32627 -10.32615 -10.32470
 Alpha  occ. eigenvalues --  -10.32445 -10.32438 -10.32383 -10.32364 -10.32241
 Alpha  occ. eigenvalues --  -10.32200 -10.32192 -10.32066 -10.32057 -10.31982
 Alpha  occ. eigenvalues --  -10.31619 -10.31449 -10.31407 -10.31308 -10.31053
 Alpha  occ. eigenvalues --  -10.30846 -10.30810 -10.30741 -10.30648 -10.30516
 Alpha  occ. eigenvalues --  -10.30396 -10.30366 -10.30135 -10.30057 -10.29991
 Alpha  occ. eigenvalues --  -10.29894 -10.29850 -10.29800 -10.29797 -10.29562
 Alpha  occ. eigenvalues --  -10.29429 -10.29229 -10.29186 -10.29028 -10.28937
 Alpha  occ. eigenvalues --  -10.28823  -3.21586  -3.20724  -1.95166  -1.94691
 Alpha  occ. eigenvalues --   -1.94552  -1.94301  -1.93864  -1.93697  -1.18232
 Alpha  occ. eigenvalues --   -1.18100  -1.13998  -1.13648  -1.12241  -1.10064
 Alpha  occ. eigenvalues --   -1.09322  -1.07445  -1.06144  -1.05749  -1.05089
 Alpha  occ. eigenvalues --   -1.05080  -1.04698  -1.04231  -1.03712  -1.03439
 Alpha  occ. eigenvalues --   -0.93179  -0.92790  -0.91067  -0.90869  -0.90612
 Alpha  occ. eigenvalues --   -0.90577  -0.90052  -0.89900  -0.89508  -0.89268
 Alpha  occ. eigenvalues --   -0.89171  -0.88863  -0.88365  -0.87391  -0.86295
 Alpha  occ. eigenvalues --   -0.86008  -0.85678  -0.85436  -0.84565  -0.84477
 Alpha  occ. eigenvalues --   -0.84238  -0.83404  -0.82942  -0.82643  -0.82395
 Alpha  occ. eigenvalues --   -0.82098  -0.80222  -0.80070  -0.79477  -0.79184
 Alpha  occ. eigenvalues --   -0.78849  -0.78457  -0.77866  -0.77398  -0.77035
 Alpha  occ. eigenvalues --   -0.76888  -0.74550  -0.74163  -0.73593  -0.73425
 Alpha  occ. eigenvalues --   -0.71941  -0.70813  -0.70699  -0.69792  -0.69467
 Alpha  occ. eigenvalues --   -0.69424  -0.68329  -0.68223  -0.67394  -0.67037
 Alpha  occ. eigenvalues --   -0.67027  -0.66903  -0.66567  -0.66442  -0.66297
 Alpha  occ. eigenvalues --   -0.66042  -0.64054  -0.63747  -0.61967  -0.61568
 Alpha  occ. eigenvalues --   -0.61261  -0.61083  -0.60885  -0.60446  -0.60225
 Alpha  occ. eigenvalues --   -0.59679  -0.59397  -0.59336  -0.59045  -0.58159
 Alpha  occ. eigenvalues --   -0.58006  -0.57611  -0.57464  -0.57383  -0.57048
 Alpha  occ. eigenvalues --   -0.57008  -0.56554  -0.56271  -0.55967  -0.55918
 Alpha  occ. eigenvalues --   -0.55866  -0.55488  -0.55241  -0.55120  -0.54884
 Alpha  occ. eigenvalues --   -0.54805  -0.54626  -0.54618  -0.54561  -0.54406
 Alpha  occ. eigenvalues --   -0.54301  -0.54023  -0.53864  -0.53430  -0.53257
 Alpha  occ. eigenvalues --   -0.52870  -0.52810  -0.52494  -0.52317  -0.52181
 Alpha  occ. eigenvalues --   -0.52086  -0.52027  -0.51714  -0.51526  -0.51480
 Alpha  occ. eigenvalues --   -0.51183  -0.51132  -0.51059  -0.50885  -0.50877
 Alpha  occ. eigenvalues --   -0.50566  -0.50534  -0.50334  -0.50167  -0.50041
 Alpha  occ. eigenvalues --   -0.49965  -0.49790  -0.49412  -0.49369  -0.49332
 Alpha  occ. eigenvalues --   -0.48641  -0.48549  -0.48538  -0.48475  -0.48260
 Alpha  occ. eigenvalues --   -0.48156  -0.48091  -0.48010  -0.47768  -0.47716
 Alpha  occ. eigenvalues --   -0.47398  -0.47299  -0.47180  -0.46801  -0.46536
 Alpha  occ. eigenvalues --   -0.46466  -0.46307  -0.46299  -0.46038  -0.46029
 Alpha  occ. eigenvalues --   -0.45860  -0.45750  -0.45560  -0.45433  -0.45403
 Alpha  occ. eigenvalues --   -0.45207  -0.45035  -0.45005  -0.44925  -0.44872
 Alpha  occ. eigenvalues --   -0.44786  -0.44473  -0.44288  -0.44030  -0.43970
 Alpha  occ. eigenvalues --   -0.43846  -0.43751  -0.43405  -0.43270  -0.43037
 Alpha  occ. eigenvalues --   -0.42799  -0.42700  -0.42241  -0.42127  -0.42077
 Alpha  occ. eigenvalues --   -0.41716  -0.41436  -0.41053  -0.40771  -0.40503
 Alpha  occ. eigenvalues --   -0.40460  -0.39945  -0.39785  -0.39512  -0.39241
 Alpha  occ. eigenvalues --   -0.39182  -0.38994  -0.38682  -0.38087  -0.38006
 Alpha  occ. eigenvalues --   -0.37621  -0.36791  -0.36057  -0.35868  -0.35839
 Alpha  occ. eigenvalues --   -0.35307  -0.35209  -0.34684  -0.33951  -0.33569
 Alpha  occ. eigenvalues --   -0.33394  -0.32954  -0.32774  -0.32650  -0.32477
 Alpha  occ. eigenvalues --   -0.32251  -0.32119  -0.31478  -0.26218  -0.25992
 Alpha  occ. eigenvalues --   -0.22725  -0.22029
 Alpha virt. eigenvalues --   -0.07032  -0.05907  -0.00621  -0.00094   0.02065
 Alpha virt. eigenvalues --    0.02739   0.04454   0.04515   0.05054   0.06539
 Alpha virt. eigenvalues --    0.07248   0.07626   0.07755   0.08004   0.08421

 Mulliken charges:
               1
     1  Mg   0.988049
     2  C    0.030691
     3  C   -0.071636
     4  C   -0.057293
     5  C   -0.105020
     6  N   -0.311452
     7  C   -0.008600
     8  C   -0.088442
     9  C   -0.082993
    10  C    0.047583
    11  C    0.016109
    12  C    0.051506
    13  C   -0.150357
    14  H    0.031561
    15  N   -0.450278
    16  C    0.180688
    17  C   -0.160926
    18  C   -0.081824
    19  C    0.134148
    20  C    0.055334
    21  C    0.057091
    22  O   -0.215998
    23  C   -0.009665
    24  N   -0.398679
    25  C    0.036541
    26  C   -0.083121
    27  C   -0.076510
    28  C    0.060805
    29  C    0.027336
    30  C   -0.006078
    31  C   -0.051455
    32  N   -0.527307
    33  C    0.158552
    34  C   -0.163689
    35  C   -0.041794
    36  C    0.162194
    37  C    0.081446
    38  C    0.128530
    39  O   -0.198842
    40  C   -0.130086
    41  C    0.252250
    42  O   -0.286987
    43  O   -0.341691
    44  C    0.147865
    45  H   -0.001312
    46  H    0.022927
    47  H   -0.006105
    48  H    0.039119
    49  H    0.035236
    50  H    0.033130
    51  H    0.038301
    52  H    0.025684
    53  H    0.023431
    54  H    0.069066
    55  H    0.048297
    56  H    0.037607
    57  H    0.022380
    58  H    0.055818
    59  H    0.037914
    60  H    0.076609
    61  H    0.035181
    62  H    0.053262
    63  H    0.040819
    64  H    0.042972
    65  H    0.048283
    66  H    0.047223
    67  H    0.024234
    68  H    0.039472
    69  H    0.022279
    70  H    0.040699
    71  H    0.045436
    72  H    0.042402
    73  H    0.065262
    74  H    0.051769
    75  H    0.044408
    76  H    0.067529
    77  H    0.057664
    78  H    0.052462
    79  H    0.072985
    80  Mg   0.942997
    81  C    0.041762
    82  C   -0.129171
    83  C   -0.076194
    84  C   -0.077246
    85  N   -0.336118
    86  C   -0.017874
    87  C   -0.079492
    88  C   -0.155291
    89  C    0.135966
    90  C    0.022041
    91  C    0.093455
    92  C   -0.136448
    93  H    0.008961
    94  N   -0.446367
    95  C    0.165854
    96  C   -0.153158
    97  C   -0.107886
    98  C    0.165160
    99  C    0.056491
   100  C    0.032427
   101  O   -0.217369
   102  C    0.006305
   103  N   -0.392452
   104  C    0.060413
   105  C   -0.103451
   106  C   -0.058547
   107  C    0.088849
   108  C    0.029685
   109  C   -0.034552
   110  C   -0.028623
   111  N   -0.416688
   112  C    0.095596
   113  C   -0.195865
   114  C   -0.011669
   115  C    0.105181
   116  C    0.075088
   117  C    0.122571
   118  O   -0.234997
   119  C   -0.139097
   120  C    0.281268
   121  O   -0.275182
   122  O   -0.340445
   123  C    0.131724
   124  H   -0.010052
   125  H    0.029255
   126  H   -0.008271
   127  H    0.017195
   128  H    0.025392
   129  H    0.050746
   130  H    0.035160
   131  H    0.035635
   132  H    0.016182
   133  H    0.073573
   134  H    0.051812
   135  H    0.043285
   136  H    0.051763
   137  H    0.037619
   138  H    0.072709
   139  H    0.062122
   140  H    0.066230
   141  H    0.055602
   142  H    0.043073
   143  H    0.031514
   144  H    0.039749
   145  H    0.045871
   146  H    0.038585
   147  H    0.026775
   148  H    0.028210
   149  H    0.044909
   150  H    0.030343
   151  H    0.041865
   152  H    0.063111
   153  H    0.057528
   154  H    0.033390
   155  H    0.090020
   156  H    0.069982
   157  H    0.052414
   158  H    0.059093
 Sum of Mulliken charges =  -0.00000

 Dipole moment (field-independent basis, Debye):
    X=              4.6741    Y=              0.1923    Z=              0.7674  Tot=              4.7406
 Quadrupole moment (field-independent basis, Debye-Ang):
   XX=           -524.4784   YY=           -467.8995   ZZ=           -510.4398
   XY=              8.0933   XZ=            129.3270   YZ=             13.6884

 Normal termination of Gaussian 16 at Sun Sep 19 09:19:14 2021.
