 Gaussian 16, Revision A.03,
 Gaussian 16:  ES64L-G16RevA.03 25-Dec-2016

 --------------------------------
 #p wB97XD/Def2SVP td=(nstates=5)
 --------------------------------

 --------------------------------
 TDDFT excited states in gaussian
 --------------------------------
 Symbolic Z-matrix:
 Charge =  0 Multiplicity = 1

                         Standard orientation:
 ---------------------------------------------------------------------
 Center     Atomic      Atomic             Coordinates (Angstroms)
 Number     Number       Type             X           Y           Z
 ---------------------------------------------------------------------
      1         12           0       26.111398   -0.817887    0.260122
      2          6           0       26.937585    2.270651   -1.108003
      3          6           0       25.047080    0.777402    3.100042
      4          6           0       25.624139   -3.884843    1.663899
      5          6           0       27.504559   -2.260826   -2.674219
      6          7           0       26.036785    1.268166    0.931812
      7          6           0       26.319807    2.347290    0.136720
      8          6           0       25.962046    3.592077    0.952503
      9          6           0       25.662654    3.094076    2.355226
     10          6           0       25.537869    1.596337    2.099922
     11          6           0       26.594471    3.435185    3.486971
     12          6           0       24.823402    4.527008    0.321916
     13          6           0       24.295649    5.674070    1.242447
     14          1           0       24.982153    7.062855    1.164652
     15          7           0       25.293528   -1.432708    2.065644
     16          6           0       24.947518   -0.639319    3.109845
     17          6           0       24.524650   -1.515801    4.170990
     18          6           0       24.701803   -2.865453    3.746413
     19          6           0       25.244452   -2.789060    2.464990
     20          6           0       24.020724   -0.952469    5.463853
     21          6           0       24.494901   -4.140162    4.615302
     22          8           0       24.985887   -5.212012    4.309297
     23          6           0       23.816549   -4.135720    5.901262
     24          7           0       26.489023   -2.665504   -0.391832
     25          6           0       26.168911   -3.817090    0.326575
     26          6           0       26.493695   -5.105248   -0.449553
     27          6           0       26.804387   -4.542401   -1.878148
     28          6           0       26.893157   -3.044883   -1.634374
     29          6           0       27.421570   -6.049636    0.195493
     30          6           0       25.836268   -4.945662   -3.123239
     31          6           0       26.402240   -5.670265   -4.348178
     32          7           0       27.117566   -0.147670   -1.573037
     33          6           0       27.618466   -0.866972   -2.621626
     34          6           0       28.168858   -0.011013   -3.617906
     35          6           0       27.853151    1.300243   -3.093122
     36          6           0       27.289305    1.139520   -1.796430
     37          6           0       28.771629   -0.483972   -4.885598
     38          6           0       27.870837    2.708794   -3.414501
     39          8           0       28.186186    3.347612   -4.399171
     40          6           0       27.256036    3.409678   -2.065211
     41          6           0       28.132834    4.501899   -1.571167
     42          8           0       29.241318    4.321308   -1.116875
     43          8           0       27.554649    5.711705   -1.670720
     44          6           0       28.238159    6.865310   -0.969176
     45          1           0       24.656831    1.282778    3.986217
     46          1           0       25.464673   -4.854551    2.139656
     47          1           0       27.856610   -2.887841   -3.496249
     48          1           0       26.913850    4.121317    0.909107
     49          1           0       24.715548    3.515134    2.691645
     50          1           0       27.063143    2.460987    3.622768
     51          1           0       26.070909    3.827653    4.358843
     52          1           0       27.403150    4.096493    3.175084
     53          1           0       24.030482    3.803524    0.131135
     54          1           0       25.180608    4.967719   -0.608079
     55          1           0       24.377951    5.413757    2.296957
     56          1           0       23.234064    5.806195    1.033489
     57          1           0       23.903585    0.128561    5.545858
     58          1           0       24.782214   -1.196619    6.203806
     59          1           0       23.108702   -1.435977    5.814462
     60          1           0       24.077261   -3.391923    6.653485
     61          1           0       23.791225   -5.093206    6.421368
     62          1           0       22.776328   -4.005007    5.603745
     63          1           0       25.487314   -5.524821   -0.451583
     64          1           0       27.834033   -4.886942   -1.972813
     65          1           0       27.023081   -7.027480    0.467260
     66          1           0       27.791392   -5.573882    1.104160
     67          1           0       28.282078   -6.316948   -0.417706
     68          1           0       25.387592   -4.025009   -3.495832
     69          1           0       24.963884   -5.561748   -2.902048
     70          1           0       26.542284   -5.042917   -5.228861
     71          1           0       25.911509   -6.612534   -4.590273
     72          1           0       27.434149   -5.935392   -4.117609
     73          1           0       29.438322   -1.316181   -4.660898
     74          1           0       29.271181    0.312293   -5.436769
     75          1           0       27.991840   -1.011360   -5.435988
     76          1           0       26.326470    3.879730   -2.384601
     77          1           0       27.816094    7.725598   -1.488172
     78          1           0       29.314635    6.769515   -1.109593
     79          1           0       27.899443    6.844066    0.066747
     80         12           0      -26.827225   -0.555136   -0.192789
     81          6           0      -25.205511    2.602815   -0.456361
     82          6           0      -28.289839    0.535042    2.721805
     83          6           0      -28.193930   -3.561560   -0.081376
     84          6           0      -24.851262   -1.731282   -2.955320
     85          7           0      -26.708702    1.387105    1.083340
     86          6           0      -26.050432    2.528551    0.663703
     87          6           0      -26.375423    3.633186    1.726825
     88          6           0      -27.364257    2.942973    2.809785
     89          6           0      -27.445627    1.547921    2.181693
     90          6           0      -26.911895    3.011136    4.283286
     91          6           0      -26.854820    5.041055    1.180131
     92          6           0      -26.010286    6.215911    1.579785
     93          1           0      -25.199416    6.268775    2.847656
     94          7           0      -28.229380   -1.389668    1.130087
     95          6           0      -28.682461   -0.777433    2.256000
     96          6           0      -29.726133   -1.625303    2.772160
     97          6           0      -29.648757   -2.839559    2.056467
     98          6           0      -28.634588   -2.686491    0.963137
     99          6           0      -30.535243   -1.186546    4.004351
    100          6           0      -30.338649   -4.128749    2.385429
    101          8           0      -30.102964   -5.180994    1.745521
    102          6           0      -31.280249   -4.178263    3.531021
    103          7           0      -26.466009   -2.406227   -1.368009
    104          6           0      -27.208023   -3.437576   -1.159764
    105          6           0      -27.020647   -4.693306   -2.167337
    106          6           0      -25.930531   -4.089729   -3.065943
    107          6           0      -25.727004   -2.715378   -2.476775
    108          6           0      -26.591367   -5.965892   -1.349179
    109          6           0      -26.234900   -4.025760   -4.603976
    110          6           0      -27.277206   -2.977304   -5.060114
    111          7           0      -25.299729    0.194399   -1.326787
    112          6           0      -24.597551   -0.428174   -2.385544
    113          6           0      -23.697800    0.571796   -2.976506
    114          6           0      -23.911390    1.772039   -2.257022
    115          6           0      -24.932640    1.504220   -1.283864
    116          6           0      -22.746471    0.329169   -4.186346
    117          6           0      -23.510056    3.076998   -2.206574
    118          8           0      -22.668708    3.697432   -2.824139
    119          6           0      -24.350360    3.744345   -1.082200
    120          6           0      -23.446351    4.381221   -0.152533
    121          8           0      -22.930733    3.825168    0.823745
    122          8           0      -23.060915    5.631339   -0.651024
    123          6           0      -21.986480    6.294824    0.128375
    124          1           0      -28.608859    0.658004    3.759266
    125          1           0      -28.528310   -4.590396    0.067970
    126          1           0      -24.229751   -2.035940   -3.799870
    127          1           0      -25.356697    3.824951    2.061272
    128          1           0      -28.308880    3.484980    2.816267
    129          1           0      -27.682689    3.472505    4.901957
    130          1           0      -25.963620    3.509634    4.483504
    131          1           0      -26.788363    1.965421    4.564936
    132          1           0      -27.885428    5.227358    1.482827
    133          1           0      -26.777275    4.967390    0.095363
    134          1           0      -26.704168    7.005266    1.871012
    135          1           0      -25.376997    6.473643    0.731628
    136          1           0      -30.443713   -0.117258    4.196380
    137          1           0      -30.199568   -1.740993    4.879774
    138          1           0      -31.565200   -1.439594    3.754905
    139          1           0      -32.053679   -3.435411    3.335791
    140          1           0      -30.790034   -3.890548    4.461871
    141          1           0      -31.653955   -5.190821    3.677825
    142          1           0      -27.930902   -4.885345   -2.735904
    143          1           0      -24.974656   -4.566518   -2.847767
    144          1           0      -26.035963   -5.626062   -0.475070
    145          1           0      -25.906349   -6.549107   -1.965586
    146          1           0      -27.374991   -6.639697   -1.001781
    147          1           0      -26.421673   -5.029262   -4.985028
    148          1           0      -25.296419   -3.803638   -5.110964
    149          1           0      -28.084106   -2.751716   -4.363692
    150          1           0      -27.647196   -3.274238   -6.042112
    151          1           0      -26.699388   -2.071875   -5.245008
    152          1           0      -22.834982    1.091098   -4.960836
    153          1           0      -22.861561   -0.657199   -4.634300
    154          1           0      -21.726873    0.574520   -3.888089
    155          1           0      -24.916081    4.485535   -1.645776
    156          1           0      -21.042321    5.764248    0.007944
    157          1           0      -22.158903    6.320386    1.203736
    158          1           0      -22.022374    7.350830   -0.139875
 ---------------------------------------------------------------------

 SCF Done:  E(RwB97XD) =  -4070.61121502     A.U. after   19 cycles

 Excitation energies and oscillator strengths:

 Excited State   1:      Singlet-A      1.6387 eV  756.62 nm  f=0.3964  <S**2>=0.000
     309 -> 315       -0.18464
     312 -> 313        0.68355
     309 <- 315       -0.11771
 This state for optimization and/or second-order correction.
 Total Energy, E(TD-HF/TD-DFT) =  -4070.55099540
 Copying the excited state density for this state as the 1-particle RhoCI density.

 Excited State   2:      Singlet-A      1.7178 eV  721.75 nm  f=0.3738  <S**2>=0.000
     310 -> 316       -0.19150
     311 -> 314        0.67997
     310 <- 316       -0.11530

 Excited State   3:      Singlet-A      2.1591 eV  574.23 nm  f=0.1037  <S**2>=0.000
     310 -> 314        0.63940
     311 -> 316        0.28259

 Excited State   4:      Singlet-A      2.1629 eV  573.23 nm  f=0.0943  <S**2>=0.000
     309 -> 313        0.63059
     312 -> 315        0.30291

 Excited State   5:      Singlet-A      3.2556 eV  380.84 nm  f=0.0003  <S**2>=0.000
     306 -> 313       -0.22731
     308 -> 313        0.64150

 The electronic state is 1-A.
 Alpha  occ. eigenvalues --  -46.96163 -46.94210 -19.29619 -19.29453 -19.24187
 Alpha  occ. eigenvalues --  -19.24091 -19.23894 -19.23704 -19.23184 -19.22511
 Alpha  occ. eigenvalues --  -14.47319 -14.47279 -14.46600 -14.46470 -14.44397
 Alpha  occ. eigenvalues --  -14.44256 -14.43671 -14.43013 -10.42416 -10.41781
 Alpha  occ. eigenvalues --  -10.39536 -10.39106 -10.38660 -10.37219 -10.36004
 Alpha  occ. eigenvalues --  -10.35843 -10.35827 -10.35648 -10.35604 -10.35122
 Alpha  occ. eigenvalues --  -10.35119 -10.35106 -10.35070 -10.34509 -10.34432
 Alpha  occ. eigenvalues --  -10.34166 -10.33847 -10.33814 -10.33730 -10.33620
 Alpha  occ. eigenvalues --  -10.33581 -10.32972 -10.32900 -10.32731 -10.32455
 Alpha  occ. eigenvalues --  -10.32441 -10.32198 -10.32190 -10.32162 -10.32141
 Alpha  occ. eigenvalues --  -10.32124 -10.32094 -10.32080 -10.31985 -10.31923
 Alpha  occ. eigenvalues --  -10.31693 -10.31615 -10.31562 -10.31485 -10.31471
 Alpha  occ. eigenvalues --  -10.31449 -10.31302 -10.31219 -10.31204 -10.31181
 Alpha  occ. eigenvalues --  -10.31169 -10.31165 -10.31119 -10.30989 -10.30952
 Alpha  occ. eigenvalues --  -10.30938 -10.30898 -10.30880 -10.30527 -10.30280
 Alpha  occ. eigenvalues --  -10.30230 -10.30113 -10.30001 -10.29890 -10.29814
 Alpha  occ. eigenvalues --  -10.29689 -10.29578 -10.29385 -10.29313 -10.29293
 Alpha  occ. eigenvalues --  -10.27845  -3.21967  -3.20286  -1.95568  -1.95121
 Alpha  occ. eigenvalues --   -1.94887  -1.93898  -1.93412  -1.93264  -1.17999
 Alpha  occ. eigenvalues --   -1.16462  -1.13182  -1.11722  -1.11416  -1.10748
 Alpha  occ. eigenvalues --   -1.08907  -1.08463  -1.08141  -1.07221  -1.06116
 Alpha  occ. eigenvalues --   -1.05788  -1.05323  -1.05085  -1.04400  -1.03689
 Alpha  occ. eigenvalues --   -0.94384  -0.94231  -0.91610  -0.91055  -0.90564
 Alpha  occ. eigenvalues --   -0.90287  -0.90263  -0.89682  -0.89482  -0.89246
 Alpha  occ. eigenvalues --   -0.88903  -0.88718  -0.88635  -0.87419  -0.86521
 Alpha  occ. eigenvalues --   -0.86235  -0.85589  -0.85237  -0.84548  -0.84452
 Alpha  occ. eigenvalues --   -0.84359  -0.84206  -0.83330  -0.82695  -0.82609
 Alpha  occ. eigenvalues --   -0.82042  -0.80750  -0.80345  -0.79703  -0.79480
 Alpha  occ. eigenvalues --   -0.79183  -0.78356  -0.77821  -0.77629  -0.77084
 Alpha  occ. eigenvalues --   -0.76955  -0.74758  -0.74508  -0.73783  -0.73550
 Alpha  occ. eigenvalues --   -0.72366  -0.71288  -0.71036  -0.70824  -0.70217
 Alpha  occ. eigenvalues --   -0.69822  -0.68947  -0.68920  -0.67527  -0.67356
 Alpha  occ. eigenvalues --   -0.67260  -0.66900  -0.66600  -0.66599  -0.66224
 Alpha  occ. eigenvalues --   -0.66192  -0.63409  -0.63395  -0.62517  -0.62283
 Alpha  occ. eigenvalues --   -0.61690  -0.61497  -0.60949  -0.60803  -0.60618
 Alpha  occ. eigenvalues --   -0.60107  -0.59953  -0.59884  -0.59527  -0.59217
 Alpha  occ. eigenvalues --   -0.58320  -0.58228  -0.58000  -0.57737  -0.57276
 Alpha  occ. eigenvalues --   -0.57213  -0.56920  -0.56704  -0.56474  -0.55751
 Alpha  occ. eigenvalues --   -0.55492  -0.55232  -0.55090  -0.54947  -0.54892
 Alpha  occ. eigenvalues --   -0.54804  -0.54527  -0.54503  -0.54216  -0.54016
 Alpha  occ. eigenvalues --   -0.53985  -0.53476  -0.53238  -0.53235  -0.52902
 Alpha  occ. eigenvalues --   -0.52755  -0.52727  -0.52461  -0.52440  -0.52250
 Alpha  occ. eigenvalues --   -0.51828  -0.51754  -0.51485  -0.51369  -0.51243
 Alpha  occ. eigenvalues --   -0.51200  -0.51142  -0.51034  -0.50963  -0.50893
 Alpha  occ. eigenvalues --   -0.50796  -0.50537  -0.50528  -0.50163  -0.49976
 Alpha  occ. eigenvalues --   -0.49889  -0.49634  -0.49437  -0.49361  -0.49240
 Alpha  occ. eigenvalues --   -0.49033  -0.48764  -0.48659  -0.48552  -0.48494
 Alpha  occ. eigenvalues --   -0.48489  -0.48452  -0.48161  -0.48105  -0.48006
 Alpha  occ. eigenvalues --   -0.47743  -0.47435  -0.47061  -0.47012  -0.46844
 Alpha  occ. eigenvalues --   -0.46724  -0.46500  -0.46313  -0.46174  -0.46128
 Alpha  occ. eigenvalues --   -0.45910  -0.45741  -0.45670  -0.45636  -0.45408
 Alpha  occ. eigenvalues --   -0.45268  -0.45145  -0.44779  -0.44683  -0.44635
 Alpha  occ. eigenvalues --   -0.44389  -0.44276  -0.43966  -0.43795  -0.43748
 Alpha  occ. eigenvalues --   -0.43715  -0.43560  -0.43451  -0.43390  -0.43204
 Alpha  occ. eigenvalues --   -0.43195  -0.43033  -0.42812  -0.42501  -0.42275
 Alpha  occ. eigenvalues --   -0.42090  -0.41999  -0.41695  -0.41428  -0.41174
 Alpha  occ. eigenvalues --   -0.41022  -0.40686  -0.39741  -0.39198  -0.38899
 Alpha  occ. eigenvalues --   -0.38879  -0.38660  -0.38445  -0.38270  -0.38053
 Alpha  occ. eigenvalues --   -0.38042  -0.37467  -0.36206  -0.36029  -0.35920
 Alpha  occ. eigenvalues --   -0.35562  -0.35321  -0.34958  -0.33550  -0.33245
 Alpha  occ. eigenvalues --   -0.33202  -0.33165  -0.32527  -0.32211  -0.31945
 Alpha  occ. eigenvalues --   -0.31889  -0.31669  -0.31204  -0.26111  -0.25750
 Alpha  occ. eigenvalues --   -0.23077  -0.22916
 Alpha virt. eigenvalues --   -0.07146  -0.06897   0.00050   0.00120   0.02189
 Alpha virt. eigenvalues --    0.02692   0.04422   0.04843   0.05681   0.06493
 Alpha virt. eigenvalues --    0.07219   0.07354   0.07943   0.08103   0.08455

 Mulliken charges:
               1
     1  Mg   0.970038
     2  C    0.026980
     3  C   -0.088468
     4  C   -0.071816
     5  C   -0.105554
     6  N   -0.331623
     7  C   -0.006770
     8  C   -0.044349
     9  C   -0.151587
    10  C    0.059920
    11  C    0.050719
    12  C    0.000326
    13  C   -0.115540
    14  H    0.029147
    15  N   -0.488114
    16  C    0.172261
    17  C   -0.166711
    18  C   -0.057483
    19  C    0.125874
    20  C    0.053328
    21  C    0.071591
    22  O   -0.233741
    23  C   -0.004451
    24  N   -0.422801
    25  C    0.060806
    26  C   -0.086670
    27  C   -0.053618
    28  C    0.048439
    29  C    0.042967
    30  C   -0.002763
    31  C   -0.069043
    32  N   -0.374032
    33  C    0.160096
    34  C   -0.166750
    35  C   -0.076302
    36  C    0.113076
    37  C    0.102556
    38  C    0.145476
    39  O   -0.193126
    40  C   -0.138563
    41  C    0.241186
    42  O   -0.254346
    43  O   -0.372476
    44  C    0.133508
    45  H   -0.016248
    46  H    0.028703
    47  H    0.001714
    48  H    0.035370
    49  H    0.021817
    50  H    0.039164
    51  H    0.043594
    52  H    0.038578
    53  H    0.034496
    54  H    0.060962
    55  H    0.043674
    56  H    0.059135
    57  H    0.039674
    58  H    0.049878
    59  H    0.047163
    60  H    0.056562
    61  H    0.050132
    62  H    0.049753
    63  H    0.038409
    64  H    0.031793
    65  H    0.040572
    66  H    0.046733
    67  H    0.027928
    68  H    0.036115
    69  H    0.035536
    70  H    0.039398
    71  H    0.045773
    72  H    0.018518
    73  H    0.034816
    74  H    0.072736
    75  H    0.044364
    76  H    0.067418
    77  H    0.062673
    78  H    0.082007
    79  H    0.059495
    80  Mg   0.949156
    81  C    0.012626
    82  C   -0.090605
    83  C   -0.048247
    84  C   -0.087869
    85  N   -0.314470
    86  C   -0.013178
    87  C   -0.056026
    88  C   -0.105093
    89  C    0.077716
    90  C    0.018417
    91  C    0.000080
    92  C   -0.139766
    93  H    0.031636
    94  N   -0.486398
    95  C    0.140271
    96  C   -0.180394
    97  C   -0.072171
    98  C    0.161207
    99  C    0.072901
   100  C    0.036419
   101  O   -0.261874
   102  C    0.006583
   103  N   -0.272046
   104  C    0.015739
   105  C   -0.109987
   106  C    0.029189
   107  C   -0.040093
   108  C   -0.003645
   109  C   -0.032795
   110  C   -0.036099
   111  N   -0.476724
   112  C    0.148652
   113  C   -0.175997
   114  C    0.006764
   115  C    0.138794
   116  C    0.087126
   117  C    0.031559
   118  O   -0.201459
   119  C   -0.063292
   120  C    0.267302
   121  O   -0.263328
   122  O   -0.379071
   123  C    0.150048
   124  H    0.007859
   125  H    0.029028
   126  H   -0.009075
   127  H    0.057227
   128  H    0.044925
   129  H    0.035067
   130  H    0.051797
   131  H    0.033476
   132  H    0.031626
   133  H    0.036306
   134  H    0.048510
   135  H    0.062316
   136  H    0.047860
   137  H    0.064166
   138  H    0.046342
   139  H    0.050902
   140  H    0.050379
   141  H    0.058526
   142  H    0.052400
   143  H    0.036462
   144  H    0.045558
   145  H    0.037053
   146  H    0.064068
   147  H    0.030899
   148  H    0.025075
   149  H    0.049793
   150  H    0.041222
   151  H    0.038636
   152  H    0.043749
   153  H    0.031537
   154  H    0.051136
   155  H    0.073548
   156  H    0.064632
   157  H    0.041702
   158  H    0.053736
 Sum of Mulliken charges =  -0.00000

 Dipole moment (field-independent basis, Debye):
    X=             -8.4222    Y=             -1.9126    Z=              5.1221  Tot=             10.0413
 Quadrupole moment (field-independent basis, Debye-Ang):
   XX=           -501.8343   YY=           -493.1529   ZZ=           -482.2725
   XY=            -39.7628   XZ=             35.1751   YZ=             58.8039

 Normal termination of Gaussian 16 at Mon Sep 20 02:36:02 2021.
