 Gaussian 16, Revision A.03,
 Gaussian 16:  ES64L-G16RevA.03 25-Dec-2016

 --------------------------------
 #p wB97XD/Def2SVP td=(nstates=5)
 --------------------------------

 --------------------------------
 TDDFT excited states in gaussian
 --------------------------------
 Symbolic Z-matrix:
 Charge =  0 Multiplicity = 1

                         Standard orientation:
 ---------------------------------------------------------------------
 Center     Atomic      Atomic             Coordinates (Angstroms)
 Number     Number       Type             X           Y           Z
 ---------------------------------------------------------------------
      1         12           0       27.878522   -0.767583    0.157004
      2          6           0       26.233924    2.150446    1.163654
      3          6           0       30.060005    1.296747   -1.580139
      4          6           0       29.152432   -3.468346   -1.129191
      5          6           0       25.379420   -2.638467    1.829716
      6          7           0       27.882146    1.497778   -0.505555
      7          6           0       27.222870    2.447063    0.166484
      8          6           0       27.724615    3.770360   -0.306580
      9          6           0       28.644040    3.445978   -1.509494
     10          6           0       28.926064    1.991085   -1.190817
     11          6           0       28.138328    3.665777   -2.936346
     12          6           0       28.488227    4.540543    0.817063
     13          6           0       28.121706    6.034040    1.095830
     14          1           0       27.594048    6.919485   -0.075906
     15          7           0       29.527303   -1.056964   -1.084582
     16          6           0       30.382258   -0.053711   -1.521270
     17          6           0       31.446949   -0.701963   -2.215375
     18          6           0       31.148400   -2.123366   -2.220509
     19          6           0       29.919610   -2.297622   -1.460511
     20          6           0       32.601729    0.030894   -2.932664
     21          6           0       31.889595   -3.294533   -2.927276
     22          8           0       31.546995   -4.433428   -2.883037
     23          6           0       33.165805   -2.927112   -3.658492
     24          7           0       27.324166   -2.742601    0.358786
     25          6           0       27.988162   -3.688012   -0.343131
     26          6           0       27.457995   -5.130542   -0.115963
     27          6           0       26.416297   -4.856418    1.052216
     28          6           0       26.361865   -3.335424    1.132569
     29          6           0       26.839718   -5.742943   -1.501362
     30          6           0       26.737231   -5.623661    2.373255
     31          6           0       27.464863   -4.870806    3.472668
     32          7           0       26.141170   -0.398534    1.328689
     33          6           0       25.299593   -1.244034    1.999832
     34          6           0       24.291658   -0.408632    2.742459
     35          6           0       24.641536    0.924378    2.429602
     36          6           0       25.755408    0.906615    1.526284
     37          6           0       23.070645   -0.880574    3.484209
     38          6           0       24.293660    2.326738    2.645080
     39          8           0       23.369084    2.784135    3.322961
     40          6           0       25.400619    3.133370    1.972740
     41          6           0       24.700424    4.147324    1.114082
     42          8           0       24.194209    3.919345    0.030669
     43          8           0       24.591881    5.235756    1.858102
     44          6           0       23.614725    6.240420    1.469068
     45          1           0       30.658421    1.927124   -2.240473
     46          1           0       29.670026   -4.390446   -1.400590
     47          1           0       24.618025   -3.216860    2.357746
     48          1           0       26.871158    4.378912   -0.603849
     49          1           0       29.499319    4.116039   -1.421251
     50          1           0       27.140932    4.094311   -3.036237
     51          1           0       28.151129    2.726237   -3.489502
     52          1           0       28.850331    4.344598   -3.405243
     53          1           0       29.572304    4.459147    0.740795
     54          1           0       28.199154    3.926923    1.670185
     55          1           0       29.059859    6.460058    1.453701
     56          1           0       27.381319    6.065677    1.894752
     57          1           0       32.720339   -0.267645   -3.974298
     58          1           0       33.576407   -0.227353   -2.518355
     59          1           0       32.538121    1.119224   -2.896021
     60          1           0       33.856332   -2.352028   -3.041256
     61          1           0       32.888777   -2.408315   -4.576295
     62          1           0       33.640584   -3.820711   -4.063623
     63          1           0       28.237881   -5.815176    0.216985
     64          1           0       25.415023   -5.222503    0.825649
     65          1           0       25.762767   -5.753369   -1.332987
     66          1           0       27.077925   -6.795606   -1.655470
     67          1           0       26.993907   -5.109724   -2.375798
     68          1           0       27.454943   -6.383038    2.062560
     69          1           0       25.863807   -6.127573    2.786640
     70          1           0       28.244752   -4.322367    2.942974
     71          1           0       27.838624   -5.694853    4.079958
     72          1           0       26.959548   -4.095808    4.048408
     73          1           0       22.813972   -1.939397    3.449486
     74          1           0       22.194987   -0.356781    3.100587
     75          1           0       23.203251   -0.518865    4.503370
     76          1           0       25.974680    3.770916    2.645405
     77          1           0       22.929269    6.045794    0.644841
     78          1           0       24.245029    7.058144    1.118226
     79          1           0       23.286050    6.759436    2.369539
     80         12           0      -28.008869   -0.470089   -0.125310
     81          6           0      -26.257968    2.173511   -1.545237
     82          6           0      -28.841090    1.621806    2.464000
     83          6           0      -29.531144   -3.149903    1.429096
     84          6           0      -26.672944   -2.675963   -2.470518
     85          7           0      -27.664751    1.675361    0.326179
     86          6           0      -27.029418    2.590408   -0.425666
     87          6           0      -27.150310    4.046004    0.082522
     88          6           0      -27.790501    3.811787    1.517501
     89          6           0      -28.103035    2.239267    1.489497
     90          6           0      -26.767307    4.272264    2.616139
     91          6           0      -28.101531    4.832619   -0.957990
     92          6           0      -27.531212    6.148805   -1.563785
     93          1           0      -26.369473    6.790276   -0.721989
     94          7           0      -28.983792   -0.793914    1.708078
     95          6           0      -29.298250    0.248613    2.604154
     96          6           0      -30.208774   -0.260756    3.607356
     97          6           0      -30.380647   -1.629405    3.364501
     98          6           0      -29.674864   -1.919661    2.061737
     99          6           0      -30.559900    0.562580    4.854755
    100          6           0      -31.172155   -2.659162    4.213623
    101          8           0      -31.295043   -3.868305    3.942554
    102          6           0      -31.932784   -2.148703    5.449548
    103          7           0      -27.994660   -2.613957   -0.469710
    104          6           0      -28.789613   -3.489702    0.330756
    105          6           0      -28.523680   -4.959497   -0.056284
    106          6           0      -27.831032   -4.763426   -1.484841
    107          6           0      -27.513852   -3.245056   -1.503754
    108          6           0      -27.714996   -5.634070    1.039487
    109          6           0      -28.819608   -5.140918   -2.667325
    110          6           0      -30.267594   -4.572032   -2.852511
    111          7           0      -26.686564   -0.350994   -1.630771
    112          6           0      -26.203827   -1.323796   -2.511537
    113          6           0      -25.312044   -0.709166   -3.440564
    114          6           0      -25.329509    0.641450   -3.142574
    115          6           0      -26.096648    0.821463   -1.965104
    116          6           0      -24.469686   -1.392455   -4.498352
    117          6           0      -24.821817    1.894781   -3.538856
    118          8           0      -24.015286    2.108950   -4.386869
    119          6           0      -25.316602    2.921378   -2.437613
    120          6           0      -24.081546    3.376588   -1.710558
    121          8           0      -23.780055    3.014440   -0.592503
    122          8           0      -23.408546    4.189033   -2.533978
    123          6           0      -22.022270    4.339991   -2.165093
    124          1           0      -29.179426    2.298424    3.251205
    125          1           0      -29.805834   -4.006335    2.047314
    126          1           0      -26.236729   -3.356096   -3.205798
    127          1           0      -26.212315    4.598622    0.132631
    128          1           0      -28.742072    4.317541    1.682898
    129          1           0      -26.669717    3.599387    3.468416
    130          1           0      -27.235715    5.217511    2.888904
    131          1           0      -25.837966    4.508716    2.098500
    132          1           0      -29.071904    4.952096   -0.476571
    133          1           0      -28.295498    4.144619   -1.781236
    134          1           0      -28.422944    6.774672   -1.569225
    135          1           0      -27.166798    6.064841   -2.587200
    136          1           0      -30.281045   -0.037762    5.721110
    137          1           0      -31.642018    0.688281    4.910669
    138          1           0      -30.045711    1.522627    4.822174
    139          1           0      -31.182690   -1.922326    6.208446
    140          1           0      -32.481782   -3.009916    5.829989
    141          1           0      -32.682057   -1.420055    5.141065
    142          1           0      -29.514332   -5.380147   -0.231248
    143          1           0      -27.002895   -5.462955   -1.592744
    144          1           0      -27.890209   -5.205762    2.026514
    145          1           0      -26.648443   -5.564378    0.826914
    146          1           0      -28.006203   -6.678721    1.147104
    147          1           0      -28.879531   -6.228439   -2.710996
    148          1           0      -28.303061   -4.741023   -3.539923
    149          1           0      -30.957247   -5.209627   -2.299199
    150          1           0      -30.465107   -4.632654   -3.923392
    151          1           0      -30.399002   -3.511520   -2.635329
    152          1           0      -25.077073   -1.936164   -5.222153
    153          1           0      -23.865830   -2.099652   -3.930095
    154          1           0      -23.927518   -0.728373   -5.172976
    155          1           0      -25.812243    3.831157   -2.776827
    156          1           0      -21.356051    4.511972   -3.010152
    157          1           0      -21.538113    3.658193   -1.466061
    158          1           0      -21.828627    5.227271   -1.561929
 ---------------------------------------------------------------------

 SCF Done:  E(RwB97XD) =  -4070.61113794     A.U. after   19 cycles

 Excitation energies and oscillator strengths:

 Excited State   1:      Singlet-A      1.6514 eV  750.78 nm  f=0.3913  <S**2>=0.000
     310 -> 316        0.18083
     312 -> 313        0.68426
     310 <- 316        0.11556
 This state for optimization and/or second-order correction.
 Total Energy, E(TD-HF/TD-DFT) =  -4070.55045010
 Copying the excited state density for this state as the 1-particle RhoCI density.

 Excited State   2:      Singlet-A      1.6771 eV  739.27 nm  f=0.3933  <S**2>=0.000
     309 -> 315        0.19189
     311 -> 314        0.68164
     309 <- 315        0.11865

 Excited State   3:      Singlet-A      2.1599 eV  574.04 nm  f=0.0966  <S**2>=0.000
     309 -> 314        0.64013
     311 -> 315       -0.28507

 Excited State   4:      Singlet-A      2.1706 eV  571.19 nm  f=0.1255  <S**2>=0.000
     310 -> 313        0.64462
     312 -> 316       -0.27783

 Excited State   5:      Singlet-A      3.3635 eV  368.62 nm  f=0.0023  <S**2>=0.000
     306 -> 314       -0.35449
     308 -> 314        0.58082

 The electronic state is 1-A.
 Alpha  occ. eigenvalues --  -46.95122 -46.94405 -19.31504 -19.31385 -19.25008
 Alpha  occ. eigenvalues --  -19.24633 -19.24548 -19.24436 -19.23569 -19.23558
 Alpha  occ. eigenvalues --  -14.46826 -14.46352 -14.46183 -14.46008 -14.44106
 Alpha  occ. eigenvalues --  -14.43951 -14.43692 -14.43291 -10.43157 -10.43035
 Alpha  occ. eigenvalues --  -10.39556 -10.39037 -10.38854 -10.38385 -10.35818
 Alpha  occ. eigenvalues --  -10.35659 -10.35318 -10.35132 -10.35095 -10.34779
 Alpha  occ. eigenvalues --  -10.34748 -10.34682 -10.34318 -10.34267 -10.33877
 Alpha  occ. eigenvalues --  -10.33810 -10.33695 -10.33623 -10.33602 -10.33591
 Alpha  occ. eigenvalues --  -10.33529 -10.33479 -10.33346 -10.32952 -10.32910
 Alpha  occ. eigenvalues --  -10.32605 -10.32431 -10.32431 -10.32398 -10.32380
 Alpha  occ. eigenvalues --  -10.32336 -10.32193 -10.32128 -10.31899 -10.31743
 Alpha  occ. eigenvalues --  -10.31696 -10.31620 -10.31616 -10.31186 -10.31116
 Alpha  occ. eigenvalues --  -10.31064 -10.31038 -10.31026 -10.30769 -10.30737
 Alpha  occ. eigenvalues --  -10.30712 -10.30622 -10.30593 -10.30561 -10.30472
 Alpha  occ. eigenvalues --  -10.30419 -10.30332 -10.30264 -10.30185 -10.29944
 Alpha  occ. eigenvalues --  -10.29934 -10.29797 -10.29646 -10.29606 -10.29413
 Alpha  occ. eigenvalues --  -10.29208 -10.29167 -10.29069 -10.29033 -10.28888
 Alpha  occ. eigenvalues --  -10.28769  -3.21029  -3.20438  -1.94624  -1.94186
 Alpha  occ. eigenvalues --   -1.94031  -1.93958  -1.93540  -1.93430  -1.20562
 Alpha  occ. eigenvalues --   -1.20354  -1.14294  -1.13513  -1.11917  -1.11271
 Alpha  occ. eigenvalues --   -1.10892  -1.10471  -1.07020  -1.06174  -1.05775
 Alpha  occ. eigenvalues --   -1.05318  -1.04732  -1.04672  -1.03852  -1.03125
 Alpha  occ. eigenvalues --   -0.95402  -0.94812  -0.90586  -0.90483  -0.90420
 Alpha  occ. eigenvalues --   -0.89976  -0.89930  -0.89615  -0.89024  -0.89012
 Alpha  occ. eigenvalues --   -0.88417  -0.88228  -0.87910  -0.87428  -0.86378
 Alpha  occ. eigenvalues --   -0.85871  -0.85613  -0.85250  -0.84501  -0.84142
 Alpha  occ. eigenvalues --   -0.83345  -0.83147  -0.82792  -0.82698  -0.81956
 Alpha  occ. eigenvalues --   -0.81859  -0.79872  -0.79629  -0.79305  -0.79005
 Alpha  occ. eigenvalues --   -0.78904  -0.78647  -0.78224  -0.77772  -0.77030
 Alpha  occ. eigenvalues --   -0.76874  -0.74953  -0.74688  -0.73689  -0.73129
 Alpha  occ. eigenvalues --   -0.71457  -0.70884  -0.70810  -0.70622  -0.69997
 Alpha  occ. eigenvalues --   -0.69923  -0.68314  -0.68060  -0.67799  -0.67243
 Alpha  occ. eigenvalues --   -0.66901  -0.66623  -0.66532  -0.66446  -0.66333
 Alpha  occ. eigenvalues --   -0.65855  -0.64809  -0.64358  -0.61973  -0.61831
 Alpha  occ. eigenvalues --   -0.61649  -0.61403  -0.61175  -0.60893  -0.60477
 Alpha  occ. eigenvalues --   -0.60375  -0.60101  -0.59985  -0.59299  -0.59228
 Alpha  occ. eigenvalues --   -0.58832  -0.58197  -0.57999  -0.57649  -0.56913
 Alpha  occ. eigenvalues --   -0.56894  -0.56739  -0.56642  -0.56354  -0.55882
 Alpha  occ. eigenvalues --   -0.55587  -0.55302  -0.55206  -0.55049  -0.54827
 Alpha  occ. eigenvalues --   -0.54445  -0.54427  -0.54089  -0.53892  -0.53885
 Alpha  occ. eigenvalues --   -0.53815  -0.53669  -0.53603  -0.53337  -0.53140
 Alpha  occ. eigenvalues --   -0.52992  -0.52854  -0.52569  -0.52128  -0.51836
 Alpha  occ. eigenvalues --   -0.51750  -0.51620  -0.51442  -0.51318  -0.51100
 Alpha  occ. eigenvalues --   -0.51049  -0.50754  -0.50727  -0.50624  -0.50471
 Alpha  occ. eigenvalues --   -0.50307  -0.50211  -0.50011  -0.49883  -0.49839
 Alpha  occ. eigenvalues --   -0.49649  -0.49383  -0.49252  -0.49078  -0.48812
 Alpha  occ. eigenvalues --   -0.48569  -0.48317  -0.48171  -0.48078  -0.47924
 Alpha  occ. eigenvalues --   -0.47828  -0.47787  -0.47737  -0.47594  -0.47531
 Alpha  occ. eigenvalues --   -0.47473  -0.47319  -0.47129  -0.46952  -0.46884
 Alpha  occ. eigenvalues --   -0.46741  -0.46510  -0.46426  -0.46423  -0.46237
 Alpha  occ. eigenvalues --   -0.45702  -0.45660  -0.45562  -0.45357  -0.45323
 Alpha  occ. eigenvalues --   -0.45163  -0.45025  -0.44982  -0.44899  -0.44897
 Alpha  occ. eigenvalues --   -0.44632  -0.44560  -0.44276  -0.44100  -0.43786
 Alpha  occ. eigenvalues --   -0.43706  -0.43694  -0.43543  -0.43254  -0.43103
 Alpha  occ. eigenvalues --   -0.42947  -0.42681  -0.42593  -0.42589  -0.42171
 Alpha  occ. eigenvalues --   -0.42161  -0.41534  -0.41439  -0.41191  -0.41031
 Alpha  occ. eigenvalues --   -0.40282  -0.39652  -0.39381  -0.39185  -0.39085
 Alpha  occ. eigenvalues --   -0.39019  -0.38968  -0.38783  -0.38429  -0.38422
 Alpha  occ. eigenvalues --   -0.38143  -0.38141  -0.36743  -0.36410  -0.36084
 Alpha  occ. eigenvalues --   -0.36072  -0.35337  -0.34919  -0.33796  -0.33444
 Alpha  occ. eigenvalues --   -0.33041  -0.32998  -0.32471  -0.32296  -0.32273
 Alpha  occ. eigenvalues --   -0.32148  -0.31680  -0.31070  -0.25715  -0.25673
 Alpha  occ. eigenvalues --   -0.22876  -0.22767
 Alpha virt. eigenvalues --   -0.06887  -0.06827   0.00400   0.00620   0.02220
 Alpha virt. eigenvalues --    0.02628   0.04614   0.04991   0.05632   0.05893
 Alpha virt. eigenvalues --    0.07122   0.07697   0.07870   0.08198   0.08337

 Mulliken charges:
               1
     1  Mg   0.943542
     2  C   -0.009881
     3  C   -0.053561
     4  C   -0.049871
     5  C   -0.089475
     6  N   -0.281407
     7  C    0.032648
     8  C   -0.102733
     9  C   -0.078996
    10  C   -0.023268
    11  C    0.044040
    12  C   -0.007984
    13  C   -0.108825
    14  H    0.034713
    15  N   -0.486391
    16  C    0.194173
    17  C   -0.162133
    18  C   -0.110899
    19  C    0.127589
    20  C    0.066996
    21  C    0.057724
    22  O   -0.197964
    23  C   -0.025292
    24  N   -0.388179
    25  C    0.068279
    26  C   -0.106259
    27  C   -0.052103
    28  C    0.081283
    29  C    0.014961
    30  C   -0.034376
    31  C   -0.035110
    32  N   -0.431007
    33  C    0.126679
    34  C   -0.181590
    35  C   -0.031517
    36  C    0.144752
    37  C    0.071965
    38  C    0.142865
    39  O   -0.213885
    40  C   -0.092676
    41  C    0.223813
    42  O   -0.247874
    43  O   -0.327072
    44  C    0.146641
    45  H   -0.006228
    46  H    0.024704
    47  H   -0.006541
    48  H    0.040589
    49  H    0.020988
    50  H    0.046975
    51  H    0.041502
    52  H    0.029950
    53  H    0.038456
    54  H    0.025582
    55  H    0.052985
    56  H    0.060543
    57  H    0.037132
    58  H    0.040593
    59  H    0.034198
    60  H    0.057470
    61  H    0.052206
    62  H    0.039942
    63  H    0.050011
    64  H    0.031440
    65  H    0.019130
    66  H    0.045893
    67  H    0.058991
    68  H    0.022764
    69  H    0.029639
    70  H    0.030049
    71  H    0.044295
    72  H    0.041676
    73  H    0.038414
    74  H    0.061901
    75  H    0.059411
    76  H    0.073377
    77  H    0.085498
    78  H    0.026931
    79  H    0.057199
    80  Mg   0.964245
    81  C   -0.022333
    82  C   -0.067100
    83  C   -0.064441
    84  C   -0.108179
    85  N   -0.333558
    86  C    0.014118
    87  C   -0.076004
    88  C   -0.120574
    89  C    0.066932
    90  C    0.027399
    91  C   -0.000265
    92  C   -0.127175
    93  H    0.035009
    94  N   -0.460897
    95  C    0.133536
    96  C   -0.174185
    97  C   -0.090085
    98  C    0.138141
    99  C    0.086405
   100  C    0.051242
   101  O   -0.252415
   102  C   -0.016362
   103  N   -0.338737
   104  C    0.022096
   105  C   -0.061373
   106  C   -0.072358
   107  C    0.096845
   108  C    0.042020
   109  C   -0.059404
   110  C   -0.054441
   111  N   -0.488576
   112  C    0.148346
   113  C   -0.184023
   114  C   -0.008178
   115  C    0.148178
   116  C    0.079490
   117  C    0.095178
   118  O   -0.162826
   119  C   -0.097404
   120  C    0.245559
   121  O   -0.236998
   122  O   -0.309752
   123  C    0.140920
   124  H   -0.012946
   125  H    0.030849
   126  H    0.003271
   127  H    0.039839
   128  H    0.038819
   129  H    0.052161
   130  H    0.032873
   131  H    0.049475
   132  H    0.033232
   133  H    0.042339
   134  H    0.057023
   135  H    0.070065
   136  H    0.044598
   137  H    0.039354
   138  H    0.041537
   139  H    0.061819
   140  H    0.044465
   141  H    0.063987
   142  H    0.035090
   143  H    0.030278
   144  H    0.046253
   145  H    0.035063
   146  H    0.037249
   147  H    0.038899
   148  H    0.021498
   149  H    0.047717
   150  H    0.037247
   151  H    0.043652
   152  H    0.037576
   153  H    0.056855
   154  H    0.057398
   155  H    0.056517
   156  H    0.058028
   157  H    0.054725
   158  H    0.025176
 Sum of Mulliken charges =  -0.00000

 Dipole moment (field-independent basis, Debye):
    X=              0.7132    Y=              3.7634    Z=              0.6610  Tot=              3.8870
 Quadrupole moment (field-independent basis, Debye-Ang):
   XX=           -346.7175   YY=           -469.8462   ZZ=           -511.4115
   XY=             -2.6882   XZ=             32.3100   YZ=              6.4963

 Normal termination of Gaussian 16 at Mon Sep 20 20:52:04 2021.
