 Gaussian 16, Revision A.03,
 Gaussian 16:  ES64L-G16RevA.03 25-Dec-2016

 --------------------------------
 #p wB97XD/Def2SVP td=(nstates=5)
 --------------------------------

 --------------------------------
 TDDFT excited states in gaussian
 --------------------------------
 Symbolic Z-matrix:
 Charge =  0 Multiplicity = 1

                         Standard orientation:
 ---------------------------------------------------------------------
 Center     Atomic      Atomic             Coordinates (Angstroms)
 Number     Number       Type             X           Y           Z
 ---------------------------------------------------------------------
      1         12           0      -24.193560    0.527053    0.088492
      2          6           0      -21.968720   -1.937108    1.139931
      3          6           0      -26.555624   -1.899205   -0.518773
      4          6           0      -26.127602    2.999075   -1.156874
      5          6           0      -21.533921    2.895844    0.379800
      6          7           0      -24.177605   -1.645471    0.195165
      7          6           0      -23.191145   -2.451764    0.672883
      8          6           0      -23.652521   -3.912579    0.755558
      9          6           0      -25.085793   -3.832496    0.065884
     10          6           0      -25.283348   -2.320344   -0.083278
     11          6           0      -25.112599   -4.538778   -1.284232
     12          6           0      -23.861000   -4.486062    2.202382
     13          6           0      -23.684214   -5.970379    2.390721
     14          1           0      -23.669351   -6.850828    1.222252
     15          7           0      -26.077529    0.550130   -0.625261
     16          6           0      -26.896240   -0.582564   -0.806073
     17          6           0      -28.195709   -0.084525   -1.174011
     18          6           0      -28.140312    1.324646   -1.320469
     19          6           0      -26.732386    1.694120   -1.033201
     20          6           0      -29.344317   -0.985025   -1.575503
     21          6           0      -29.185264    2.309947   -1.639437
     22          8           0      -28.947448    3.464214   -1.924880
     23          6           0      -30.684320    1.860617   -1.785878
     24          7           0      -23.963352    2.739263   -0.194109
     25          6           0      -24.887780    3.475650   -0.734359
     26          6           0      -24.414838    4.950841   -0.903715
     27          6           0      -22.998257    4.960202   -0.358574
     28          6           0      -22.738991    3.438199   -0.067524
     29          6           0      -24.624565    5.435280   -2.415188
     30          6           0      -22.822191    5.895766    0.856173
     31          6           0      -22.273210    7.344448    0.575402
     32          7           0      -22.319037    0.598215    0.851983
     33          6           0      -21.341635    1.622691    0.907851
     34          6           0      -20.147551    1.159571    1.505345
     35          6           0      -20.353873   -0.285111    1.527727
     36          6           0      -21.707193   -0.512213    1.146425
     37          6           0      -18.856178    1.944993    1.643527
     38          6           0      -19.648971   -1.479597    1.814983
     39          8           0      -18.513012   -1.687045    2.222699
     40          6           0      -20.792482   -2.680565    1.638867
     41          6           0      -20.171484   -3.677320    0.704839
     42          8           0      -19.792152   -3.419204   -0.442302
     43          8           0      -19.934597   -4.939479    1.325885
     44          6           0      -19.305060   -5.983391    0.458018
     45          1           0      -27.254714   -2.721278   -0.690141
     46          1           0      -26.740070    3.691643   -1.737363
     47          1           0      -20.703149    3.586423    0.536850
     48          1           0      -22.944110   -4.487722    0.158934
     49          1           0      -25.871018   -4.295296    0.663520
     50          1           0      -24.243363   -5.183828   -1.409564
     51          1           0      -25.239808   -3.848930   -2.118960
     52          1           0      -25.889687   -5.298551   -1.368103
     53          1           0      -24.856441   -4.189049    2.530659
     54          1           0      -23.207381   -3.911015    2.858646
     55          1           0      -24.550899   -6.322310    2.949843
     56          1           0      -22.758881   -6.151196    2.937738
     57          1           0      -29.612241   -0.895602   -2.628217
     58          1           0      -30.190337   -0.761210   -0.924342
     59          1           0      -29.171628   -2.056507   -1.475778
     60          1           0      -30.773558    1.453696   -2.793461
     61          1           0      -31.337012    2.733501   -1.804678
     62          1           0      -30.928019    1.077727   -1.068723
     63          1           0      -25.109429    5.501794   -0.269330
     64          1           0      -22.266613    5.172687   -1.136571
     65          1           0      -23.683689    5.785108   -2.839784
     66          1           0      -25.265547    6.312354   -2.506696
     67          1           0      -24.970222    4.543466   -2.939584
     68          1           0      -22.122984    5.390875    1.523658
     69          1           0      -23.788412    5.935673    1.359311
     70          1           0      -21.184238    7.286803    0.562575
     71          1           0      -22.609528    8.168100    1.205445
     72          1           0      -22.576081    7.469179   -0.463671
     73          1           0      -19.003140    2.499577    2.569947
     74          1           0      -18.725904    2.645410    0.819424
     75          1           0      -17.929902    1.382103    1.521376
     76          1           0      -21.023317   -3.090942    2.622707
     77          1           0      -18.306773   -5.689070    0.136144
     78          1           0      -19.834850   -6.299507   -0.440984
     79          1           0      -19.211404   -6.780529    1.195512
     80         12           0       24.278130    0.587387   -0.039325
     81          6           0       23.170008   -2.534322   -1.156977
     82          6           0       24.223670   -0.667437    3.174579
     83          6           0       24.667306    3.756734    1.166842
     84          6           0       23.649431    1.858005   -3.198953
     85          7           0       23.842452   -1.377864    0.817881
     86          6           0       23.628970   -2.522699    0.156751
     87          6           0       23.734609   -3.790037    1.017613
     88          6           0       23.889458   -3.173087    2.460457
     89          6           0       24.099410   -1.584851    2.162876
     90          6           0       22.744904   -3.428080    3.464782
     91          6           0       24.862977   -4.740694    0.617159
     92          6           0       24.589232   -6.205972    1.001999
     93          1           0       23.288932   -6.558913    1.737900
     94          7           0       24.537680    1.433750    1.872326
     95          6           0       24.550489    0.728913    3.098055
     96          6           0       24.826302    1.672721    4.162563
     97          6           0       24.895803    3.001034    3.598584
     98          6           0       24.736323    2.779597    2.162208
     99          6           0       25.074570    1.202913    5.569516
    100          6           0       25.249941    4.398061    4.280676
    101          8           0       25.413994    5.423413    3.665181
    102          6           0       25.361400    4.397816    5.789858
    103          7           0       24.081299    2.515628   -0.864800
    104          6           0       24.326057    3.678759   -0.195239
    105          6           0       24.227101    4.938559   -1.132151
    106          6           0       23.976670    4.281094   -2.488320
    107          6           0       23.893242    2.803104   -2.156359
    108          6           0       23.273079    6.152389   -0.787667
    109          6           0       25.118426    4.596033   -3.483066
    110          6           0       26.412363    3.754140   -3.425191
    111          7           0       23.697650   -0.145359   -1.913882
    112          6           0       23.482428    0.481503   -3.113837
    113          6           0       23.084452   -0.447371   -4.117897
    114          6           0       22.930973   -1.706998   -3.381699
    115          6           0       23.280317   -1.445574   -2.114222
    116          6           0       22.820508   -0.281111   -5.548818
    117          6           0       22.458767   -3.082859   -3.452473
    118          8           0       22.112184   -3.754277   -4.430170
    119          6           0       22.589539   -3.703640   -2.030454
    120          6           0       21.307792   -4.204374   -1.544641
    121          8           0       20.394794   -3.526354   -1.085329
    122          8           0       21.182805   -5.527273   -1.887618
    123          6           0       19.848754   -6.158418   -1.894109
    124          1           0       24.154237   -1.142975    4.155351
    125          1           0       24.971582    4.747114    1.511744
    126          1           0       23.543724    2.236019   -4.217928
    127          1           0       22.785294   -4.323107    1.064807
    128          1           0       24.842403   -3.409962    2.932274
    129          1           0       23.310570   -3.834516    4.303005
    130          1           0       22.044596   -4.164900    3.072101
    131          1           0       22.214762   -2.501084    3.683591
    132          1           0       25.822703   -4.434904    1.031962
    133          1           0       25.010158   -4.714595   -0.462876
    134          1           0       25.461274   -6.413685    1.622423
    135          1           0       24.716885   -6.880147    0.153860
    136          1           0       24.802187    0.147445    5.574948
    137          1           0       24.457398    1.786510    6.252939
    138          1           0       26.110290    1.333223    5.886783
    139          1           0       24.431204    4.350158    6.356978
    140          1           0       25.950921    5.268315    6.077583
    141          1           0       25.956907    3.502386    5.967500
    142          1           0       25.238105    5.335265   -1.042276
    143          1           0       23.027932    4.676649   -2.849194
    144          1           0       22.645679    6.486812   -1.613040
    145          1           0       23.896839    7.009940   -0.537427
    146          1           0       22.702771    5.881245    0.101274
    147          1           0       25.346866    5.650278   -3.331356
    148          1           0       24.656865    4.507733   -4.467001
    149          1           0       27.213973    4.480241   -3.558040
    150          1           0       26.497826    3.036754   -4.241051
    151          1           0       26.514368    3.147539   -2.526031
    152          1           0       23.255824   -1.135937   -6.065205
    153          1           0       23.199055    0.638892   -5.994339
    154          1           0       21.757954   -0.420796   -5.748553
    155          1           0       23.329019   -4.494266   -2.156770
    156          1           0       19.069330   -5.477744   -1.549885
    157          1           0       19.877917   -6.999252   -1.200674
    158          1           0       19.753213   -6.422045   -2.946837
 ---------------------------------------------------------------------

 SCF Done:  E(RwB97XD) =  -4070.65218154     A.U. after   19 cycles

 Excitation energies and oscillator strengths:

 Excited State   1:      Singlet-A      1.6570 eV  748.24 nm  f=0.4106  <S**2>=0.000
     310 -> 316        0.18734
     312 -> 314        0.68179
     310 <- 316        0.11634
 This state for optimization and/or second-order correction.
 Total Energy, E(TD-HF/TD-DFT) =  -4070.59128767
 Copying the excited state density for this state as the 1-particle RhoCI density.

 Excited State   2:      Singlet-A      1.6918 eV  732.85 nm  f=0.3727  <S**2>=0.000
     309 -> 315        0.17800
     311 -> 313        0.68410
     309 <- 315        0.11256

 Excited State   3:      Singlet-A      2.0777 eV  596.73 nm  f=0.1511  <S**2>=0.000
     310 -> 314        0.65641
     312 -> 316       -0.23990

 Excited State   4:      Singlet-A      2.1733 eV  570.48 nm  f=0.1434  <S**2>=0.000
     309 -> 313        0.64712
     311 -> 315       -0.26330

 Excited State   5:      Singlet-A      3.1037 eV  399.47 nm  f=0.0053  <S**2>=0.000
     305 -> 314       -0.12856
     308 -> 314        0.67537

 The electronic state is 1-A.
 Alpha  occ. eigenvalues --  -46.94559 -46.94329 -19.29345 -19.29081 -19.24931
 Alpha  occ. eigenvalues --  -19.24366 -19.24350 -19.23892 -19.23735 -19.23196
 Alpha  occ. eigenvalues --  -14.47275 -14.46851 -14.46433 -14.46238 -14.44846
 Alpha  occ. eigenvalues --  -14.44032 -14.43900 -14.42746 -10.42895 -10.42476
 Alpha  occ. eigenvalues --  -10.40134 -10.39506 -10.39078 -10.38293 -10.35873
 Alpha  occ. eigenvalues --  -10.35697 -10.35331 -10.34904 -10.34891 -10.34881
 Alpha  occ. eigenvalues --  -10.34861 -10.34854 -10.34827 -10.34683 -10.34662
 Alpha  occ. eigenvalues --  -10.34630 -10.34351 -10.33962 -10.33869 -10.32815
 Alpha  occ. eigenvalues --  -10.32803 -10.32798 -10.32777 -10.32686 -10.32388
 Alpha  occ. eigenvalues --  -10.32265 -10.32238 -10.32194 -10.32119 -10.32048
 Alpha  occ. eigenvalues --  -10.32047 -10.31989 -10.31860 -10.31830 -10.31778
 Alpha  occ. eigenvalues --  -10.31775 -10.31679 -10.31667 -10.31662 -10.31657
 Alpha  occ. eigenvalues --  -10.31512 -10.31495 -10.31429 -10.31127 -10.30903
 Alpha  occ. eigenvalues --  -10.30895 -10.30849 -10.30797 -10.30773 -10.30613
 Alpha  occ. eigenvalues --  -10.30453 -10.30276 -10.30271 -10.30250 -10.30162
 Alpha  occ. eigenvalues --  -10.29942 -10.29875 -10.29805 -10.29730 -10.29669
 Alpha  occ. eigenvalues --  -10.29665 -10.29632 -10.29597 -10.29267 -10.28768
 Alpha  occ. eigenvalues --  -10.28486  -3.20522  -3.20437  -1.94112  -1.94046
 Alpha  occ. eigenvalues --   -1.93641  -1.93559  -1.93499  -1.93427  -1.17221
 Alpha  occ. eigenvalues --   -1.15555  -1.13774  -1.13411  -1.11072  -1.10791
 Alpha  occ. eigenvalues --   -1.08800  -1.07989  -1.07195  -1.06416  -1.05938
 Alpha  occ. eigenvalues --   -1.05387  -1.05296  -1.04533  -1.04446  -1.03029
 Alpha  occ. eigenvalues --   -0.94022  -0.94022  -0.91210  -0.91003  -0.90832
 Alpha  occ. eigenvalues --   -0.90615  -0.90344  -0.90044  -0.89781  -0.89396
 Alpha  occ. eigenvalues --   -0.88988  -0.88362  -0.88180  -0.87998  -0.86231
 Alpha  occ. eigenvalues --   -0.86093  -0.85296  -0.84873  -0.84192  -0.84134
 Alpha  occ. eigenvalues --   -0.83844  -0.83440  -0.82920  -0.82325  -0.82101
 Alpha  occ. eigenvalues --   -0.81970  -0.80791  -0.80063  -0.79170  -0.79014
 Alpha  occ. eigenvalues --   -0.78758  -0.78719  -0.77793  -0.77784  -0.76989
 Alpha  occ. eigenvalues --   -0.76932  -0.75105  -0.74390  -0.73598  -0.73039
 Alpha  occ. eigenvalues --   -0.71701  -0.71557  -0.70898  -0.70383  -0.69941
 Alpha  occ. eigenvalues --   -0.69621  -0.69303  -0.68036  -0.67711  -0.67174
 Alpha  occ. eigenvalues --   -0.66956  -0.66681  -0.66606  -0.66595  -0.66412
 Alpha  occ. eigenvalues --   -0.65700  -0.63371  -0.63361  -0.62421  -0.61748
 Alpha  occ. eigenvalues --   -0.61592  -0.61321  -0.61045  -0.61002  -0.60531
 Alpha  occ. eigenvalues --   -0.60247  -0.59732  -0.59628  -0.59368  -0.59302
 Alpha  occ. eigenvalues --   -0.58275  -0.57787  -0.57349  -0.57084  -0.56992
 Alpha  occ. eigenvalues --   -0.56580  -0.56555  -0.55945  -0.55587  -0.55372
 Alpha  occ. eigenvalues --   -0.55242  -0.55141  -0.54880  -0.54757  -0.54584
 Alpha  occ. eigenvalues --   -0.54429  -0.54269  -0.54217  -0.54216  -0.54024
 Alpha  occ. eigenvalues --   -0.53943  -0.53863  -0.53515  -0.53477  -0.52890
 Alpha  occ. eigenvalues --   -0.52703  -0.52548  -0.52500  -0.52144  -0.52130
 Alpha  occ. eigenvalues --   -0.51763  -0.51637  -0.51590  -0.51486  -0.51481
 Alpha  occ. eigenvalues --   -0.51279  -0.51198  -0.50997  -0.50938  -0.50879
 Alpha  occ. eigenvalues --   -0.50570  -0.50414  -0.50294  -0.50114  -0.50047
 Alpha  occ. eigenvalues --   -0.49998  -0.49590  -0.49518  -0.49413  -0.49192
 Alpha  occ. eigenvalues --   -0.49059  -0.49017  -0.48833  -0.48643  -0.48605
 Alpha  occ. eigenvalues --   -0.48158  -0.48006  -0.47752  -0.47742  -0.47529
 Alpha  occ. eigenvalues --   -0.47161  -0.47027  -0.46928  -0.46906  -0.46646
 Alpha  occ. eigenvalues --   -0.46534  -0.46491  -0.46218  -0.46207  -0.46074
 Alpha  occ. eigenvalues --   -0.45851  -0.45805  -0.45561  -0.45291  -0.45273
 Alpha  occ. eigenvalues --   -0.45119  -0.44951  -0.44939  -0.44810  -0.44709
 Alpha  occ. eigenvalues --   -0.44627  -0.44560  -0.44496  -0.44239  -0.43917
 Alpha  occ. eigenvalues --   -0.43890  -0.43750  -0.43450  -0.43376  -0.43176
 Alpha  occ. eigenvalues --   -0.42980  -0.42764  -0.42679  -0.42485  -0.42167
 Alpha  occ. eigenvalues --   -0.42123  -0.41788  -0.41769  -0.41318  -0.40539
 Alpha  occ. eigenvalues --   -0.40401  -0.40273  -0.39798  -0.39716  -0.39567
 Alpha  occ. eigenvalues --   -0.39239  -0.38957  -0.38743  -0.38096  -0.38017
 Alpha  occ. eigenvalues --   -0.37761  -0.37655  -0.36447  -0.36280  -0.35903
 Alpha  occ. eigenvalues --   -0.35708  -0.35540  -0.35474  -0.33842  -0.33533
 Alpha  occ. eigenvalues --   -0.33154  -0.33070  -0.32764  -0.32742  -0.31760
 Alpha  occ. eigenvalues --   -0.31738  -0.31585  -0.30806  -0.26135  -0.25390
 Alpha  occ. eigenvalues --   -0.23379  -0.23077
 Alpha virt. eigenvalues --   -0.07408  -0.07242   0.00262   0.00650   0.02249
 Alpha virt. eigenvalues --    0.02680   0.04498   0.04625   0.05713   0.06850
 Alpha virt. eigenvalues --    0.06907   0.07479   0.07808   0.07897   0.08502

 Mulliken charges:
               1
     1  Mg   0.981328
     2  C   -0.071244
     3  C   -0.108057
     4  C   -0.077307
     5  C   -0.077072
     6  N   -0.334158
     7  C    0.003508
     8  C   -0.040075
     9  C   -0.140220
    10  C    0.072884
    11  C    0.018694
    12  C    0.018204
    13  C   -0.105794
    14  H    0.036522
    15  N   -0.531808
    16  C    0.234395
    17  C   -0.151223
    18  C   -0.045502
    19  C    0.152348
    20  C    0.052192
    21  C    0.017185
    22  O   -0.224859
    23  C   -0.005321
    24  N   -0.321214
    25  C    0.055906
    26  C   -0.094130
    27  C   -0.043688
    28  C    0.027518
    29  C    0.014730
    30  C   -0.005385
    31  C   -0.042805
    32  N   -0.449270
    33  C    0.125206
    34  C   -0.138941
    35  C   -0.084627
    36  C    0.187849
    37  C    0.059681
    38  C    0.113578
    39  O   -0.211562
    40  C   -0.083804
    41  C    0.288660
    42  O   -0.260454
    43  O   -0.404785
    44  C    0.141032
    45  H    0.004079
    46  H    0.032112
    47  H    0.000495
    48  H    0.043807
    49  H    0.038817
    50  H    0.033337
    51  H    0.049267
    52  H    0.023044
    53  H    0.024355
    54  H    0.025400
    55  H    0.048816
    56  H    0.067396
    57  H    0.063447
    58  H    0.049897
    59  H    0.030800
    60  H    0.053339
    61  H    0.055998
    62  H    0.038214
    63  H    0.048289
    64  H    0.027388
    65  H    0.030066
    66  H    0.045667
    67  H    0.051202
    68  H    0.026160
    69  H    0.026658
    70  H    0.037049
    71  H    0.054567
    72  H    0.027406
    73  H    0.054129
    74  H    0.037465
    75  H    0.064177
    76  H    0.072258
    77  H    0.058613
    78  H    0.054415
    79  H    0.053760
    80  Mg   0.960048
    81  C   -0.000793
    82  C   -0.090121
    83  C   -0.073988
    84  C   -0.087025
    85  N   -0.357111
    86  C   -0.011490
    87  C   -0.047798
    88  C   -0.148959
    89  C    0.067795
    90  C    0.032198
    91  C    0.017143
    92  C   -0.110765
    93  H    0.046889
    94  N   -0.477819
    95  C    0.165548
    96  C   -0.178530
    97  C   -0.089905
    98  C    0.129210
    99  C    0.057186
   100  C    0.082244
   101  O   -0.208425
   102  C   -0.022416
   103  N   -0.338036
   104  C    0.039929
   105  C   -0.081600
   106  C   -0.049199
   107  C    0.051118
   108  C    0.022595
   109  C   -0.042504
   110  C   -0.033366
   111  N   -0.449893
   112  C    0.142008
   113  C   -0.165006
   114  C   -0.034676
   115  C    0.132463
   116  C    0.085489
   117  C    0.094050
   118  O   -0.220675
   119  C   -0.058992
   120  C    0.274370
   121  O   -0.254750
   122  O   -0.379446
   123  C    0.128373
   124  H    0.001362
   125  H    0.020105
   126  H   -0.015929
   127  H    0.038873
   128  H    0.031168
   129  H    0.040086
   130  H    0.043128
   131  H    0.055450
   132  H    0.031044
   133  H    0.031029
   134  H    0.040473
   135  H    0.054355
   136  H    0.029112
   137  H    0.047899
   138  H    0.067754
   139  H    0.082053
   140  H    0.053769
   141  H    0.031729
   142  H    0.039730
   143  H    0.036124
   144  H    0.039829
   145  H    0.035638
   146  H    0.050997
   147  H    0.030119
   148  H    0.031097
   149  H    0.040330
   150  H    0.037211
   151  H    0.046615
   152  H    0.052919
   153  H    0.034576
   154  H    0.057878
   155  H    0.073241
   156  H    0.066923
   157  H    0.054428
   158  H    0.073520
 Sum of Mulliken charges =  -0.00000

 Dipole moment (field-independent basis, Debye):
    X=             -2.9227    Y=             -1.2749    Z=              1.9582  Tot=              3.7420
 Quadrupole moment (field-independent basis, Debye-Ang):
   XX=           -121.8886   YY=           -471.2155   ZZ=           -499.4622
   XY=             49.2182   XZ=             68.7695   YZ=            -21.0415

 Normal termination of Gaussian 16 at Mon Sep 20 10:32:57 2021.
