 Gaussian 16, Revision A.03,
 Gaussian 16:  ES64L-G16RevA.03 25-Dec-2016

 --------------------------------
 #p wB97XD/Def2SVP td=(nstates=5)
 --------------------------------

 --------------------------------
 TDDFT excited states in gaussian
 --------------------------------
 Symbolic Z-matrix:
 Charge =  0 Multiplicity = 1

                         Standard orientation:
 ---------------------------------------------------------------------
 Center     Atomic      Atomic             Coordinates (Angstroms)
 Number     Number       Type             X           Y           Z
 ---------------------------------------------------------------------
      1         12           0       -9.106600   -0.151194   -0.058679
      2          6           0       -6.941846    2.230925    1.029828
      3          6           0      -11.007424    2.091885   -1.863820
      4          6           0      -11.265862   -2.684315   -0.861331
      5          6           0       -7.464898   -2.511341    2.138001
      6          7           0       -9.090313    1.937964   -0.194330
      7          6           0       -7.935273    2.724777    0.132311
      8          6           0       -7.994612    4.046767   -0.522336
      9          6           0       -9.490912    4.056648   -1.072967
     10          6           0       -9.939798    2.612379   -1.059562
     11          6           0      -10.483151    4.971433   -0.195004
     12          6           0       -6.829866    4.335571   -1.518596
     13          6           0       -6.212149    5.691772   -1.401919
     14          1           0       -7.208449    6.888632   -1.137725
     15          7           0      -10.854006   -0.291313   -1.266781
     16          6           0      -11.435368    0.776645   -1.883098
     17          6           0      -12.563925    0.293253   -2.602075
     18          6           0      -12.644368   -1.142254   -2.417501
     19          6           0      -11.493660   -1.488910   -1.517745
     20          6           0      -13.537106    1.239868   -3.338182
     21          6           0      -13.560337   -2.194300   -2.960222
     22          8           0      -13.617091   -3.392467   -2.661501
     23          6           0      -14.540791   -1.707525   -4.093442
     24          7           0       -9.416029   -2.325923    0.639293
     25          6           0      -10.288762   -3.125549    0.078540
     26          6           0      -10.050014   -4.591167    0.435752
     27          6           0       -8.829032   -4.513993    1.396294
     28          6           0       -8.546877   -3.013016    1.417903
     29          6           0      -11.326142   -5.308575    1.112286
     30          6           0       -7.630099   -5.352883    0.768565
     31          6           0       -6.932122   -4.895192   -0.535990
     32          7           0       -7.624915   -0.125302    1.436360
     33          6           0       -7.058378   -1.151552    2.168521
     34          6           0       -5.888614   -0.572261    2.859798
     35          6           0       -5.745288    0.728011    2.478628
     36          6           0       -6.859607    0.951245    1.590872
     37          6           0       -5.114838   -1.274094    3.922100
     38          6           0       -4.966269    1.959483    2.605564
     39          8           0       -3.975487    2.218816    3.267780
     40          6           0       -5.746505    2.974670    1.660058
     41          6           0       -6.254779    4.064459    2.517776
     42          8           0       -6.983253    3.972634    3.521202
     43          8           0       -5.725705    5.208141    1.954815
     44          6           0       -6.240270    6.459879    2.525448
     45          1           0      -11.603557    2.759590   -2.489083
     46          1           0      -11.922151   -3.465952   -1.251323
     47          1           0       -6.909163   -3.227105    2.746314
     48          1           0       -7.883795    4.757583    0.297523
     49          1           0       -9.465395    4.414373   -2.101830
     50          1           0       -9.966265    5.646782    0.486782
     51          1           0      -10.999245    4.289905    0.481065
     52          1           0      -11.144652    5.411061   -0.940338
     53          1           0       -7.189758    4.235293   -2.542609
     54          1           0       -6.096736    3.573941   -1.253377
     55          1           0       -5.719947    6.016321   -2.317867
     56          1           0       -5.405615    5.893241   -0.696793
     57          1           0      -13.185545    1.635126   -4.291147
     58          1           0      -13.728342    2.004411   -2.585369
     59          1           0      -14.445460    0.739508   -3.673104
     60          1           0      -15.322691   -1.095028   -3.644393
     61          1           0      -14.817140   -2.574666   -4.692994
     62          1           0      -14.051710   -1.121987   -4.872201
     63          1           0       -9.760297   -5.123962   -0.469636
     64          1           0       -9.028369   -4.916358    2.389548
     65          1           0      -11.736307   -5.968187    0.346738
     66          1           0      -12.078643   -4.564957    1.376714
     67          1           0      -11.186938   -5.952866    1.979457
     68          1           0       -7.837745   -6.412134    0.617878
     69          1           0       -6.872238   -5.237396    1.544110
     70          1           0       -5.921701   -4.670077   -0.194429
     71          1           0       -7.431959   -4.049321   -1.006304
     72          1           0       -6.891909   -5.663022   -1.308561
     73          1           0       -4.110777   -0.873308    3.786505
     74          1           0       -5.141390   -2.359145    3.820080
     75          1           0       -5.399891   -0.829901    4.874901
     76          1           0       -4.907147    3.341513    1.069883
     77          1           0       -5.618089    7.206568    2.031193
     78          1           0       -5.971071    6.437468    3.581449
     79          1           0       -7.321601    6.591778    2.482423
     80         12           0        8.428557   -1.004956   -0.471329
     81          6           0       10.577477    1.711253   -0.808309
     82          6           0        5.810777    1.087621   -0.125243
     83          6           0        6.510684   -3.681466    0.292568
     84          6           0       11.205377   -3.045258   -0.343970
     85          7           0        8.255605    1.204383   -0.454982
     86          6           0        9.235917    2.091401   -0.820688
     87          6           0        8.684193    3.463575   -0.906995
     88          6           0        7.178417    3.344585   -0.644610
     89          6           0        7.002317    1.783951   -0.400985
     90          6           0        6.546419    4.217432    0.428528
     91          6           0        9.058598    4.168926   -2.331215
     92          6           0        9.924035    5.450263   -2.293050
     93          1           0        9.638668    6.604860   -3.221690
     94          7           0        6.424423   -1.279132   -0.104568
     95          6           0        5.477252   -0.273570    0.017719
     96          6           0        4.220383   -0.841797    0.345191
     97          6           0        4.393495   -2.246031    0.479953
     98          6           0        5.817295   -2.458014    0.199802
     99          6           0        2.954844    0.101806    0.366732
    100          6           0        3.307646   -3.231410    0.908708
    101          8           0        3.475233   -4.445001    1.102419
    102          6           0        1.922636   -2.770833    1.039638
    103          7           0        8.777778   -3.060059    0.172373
    104          6           0        7.848442   -3.982421    0.313896
    105          6           0        8.471091   -5.339165    0.713496
    106          6           0        9.869024   -5.142601    0.004997
    107          6           0        9.969847   -3.623910   -0.096329
    108          6           0        8.666850   -5.718997    2.227985
    109          6           0       10.067558   -5.847555   -1.421555
    110          6           0        9.153007   -5.474306   -2.515334
    111          7           0       10.566869   -0.800582   -0.508236
    112          6           0       11.600861   -1.756034   -0.459583
    113          6           0       12.862214   -1.093096   -0.555887
    114          6           0       12.543029    0.248309   -0.626477
    115          6           0       11.116390    0.365189   -0.701603
    116          6           0       14.165733   -1.682683   -0.319418
    117          6           0       13.076339    1.501682   -0.887350
    118          8           0       14.242304    1.887683   -1.019889
    119          6           0       11.870168    2.547002   -0.925089
    120          6           0       12.026901    3.377138    0.305912
    121          8           0       12.042621    3.083169    1.482804
    122          8           0       12.196189    4.623566   -0.138864
    123          6           0       12.349367    5.681822    0.912574
    124          1           0        5.030227    1.840223   -0.254610
    125          1           0        5.830339   -4.529620    0.386459
    126          1           0       12.070519   -3.710826   -0.368129
    127          1           0        9.172748    4.009172   -0.100646
    128          1           0        6.642167    3.552693   -1.570212
    129          1           0        6.607425    3.481218    1.229140
    130          1           0        5.552838    4.603799    0.200638
    131          1           0        7.065029    5.111701    0.773039
    132          1           0        8.134962    4.372024   -2.872393
    133          1           0        9.687041    3.551226   -2.973274
    134          1           0       10.925597    5.142540   -2.594908
    135          1           0       10.056038    5.824919   -1.278880
    136          1           0        2.440930   -0.034372    1.318095
    137          1           0        2.398356   -0.413682   -0.416110
    138          1           0        3.110230    1.179433    0.314056
    139          1           0        1.848183   -1.951873    1.753741
    140          1           0        1.408854   -3.551605    1.599961
    141          1           0        1.402640   -2.584533    0.099607
    142          1           0        8.004391   -6.117553    0.109673
    143          1           0       10.571413   -5.604139    0.698658
    144          1           0        8.994747   -4.910497    2.880264
    145          1           0        9.396101   -6.527829    2.169837
    146          1           0        7.736206   -6.093861    2.654811
    147          1           0        9.974933   -6.933189   -1.382550
    148          1           0       10.985170   -5.509750   -1.903107
    149          1           0        9.580408   -4.543343   -2.885164
    150          1           0        8.106552   -5.267504   -2.289072
    151          1           0        9.090100   -6.126644   -3.385689
    152          1           0       14.257251   -1.669945    0.767313
    153          1           0       15.009177   -1.146139   -0.752996
    154          1           0       14.283243   -2.669799   -0.767853
    155          1           0       11.819094    3.115849   -1.853540
    156          1           0       11.396192    6.210904    0.901086
    157          1           0       13.202483    6.316249    0.673232
    158          1           0       12.479741    5.350087    1.943034
 ---------------------------------------------------------------------

 SCF Done:  E(RwB97XD) =  -4070.58469732     A.U. after   19 cycles

 Excitation energies and oscillator strengths:

 Excited State   1:      Singlet-A      1.6346 eV  758.48 nm  f=0.6860  <S**2>=0.000
     309 -> 315       -0.13232
     310 -> 316        0.12723
     311 -> 313        0.48751
     312 -> 314       -0.47910
 This state for optimization and/or second-order correction.
 Total Energy, E(TD-HF/TD-DFT) =  -4070.52462558
 Copying the excited state density for this state as the 1-particle RhoCI density.

 Excited State   2:      Singlet-A      1.6578 eV  747.91 nm  f=0.0988  <S**2>=0.000
     309 -> 315        0.13840
     310 -> 316        0.12910
     311 -> 313        0.47932
     312 -> 314        0.48500

 Excited State   3:      Singlet-A      2.1210 eV  584.56 nm  f=0.1278  <S**2>=0.000
     310 -> 313        0.64928
     311 -> 316       -0.26662

 Excited State   4:      Singlet-A      2.2145 eV  559.88 nm  f=0.0445  <S**2>=0.000
     309 -> 314        0.60814
     312 -> 315       -0.34932

 Excited State   5:      Singlet-A      3.4162 eV  362.93 nm  f=0.0000  <S**2>=0.000
     312 -> 313        0.70638

 The electronic state is 1-A.
 Alpha  occ. eigenvalues --  -46.95758 -46.95599 -19.31064 -19.30212 -19.25391
 Alpha  occ. eigenvalues --  -19.24795 -19.24715 -19.23962 -19.23601 -19.23237
 Alpha  occ. eigenvalues --  -14.47060 -14.46930 -14.46506 -14.46340 -14.44269
 Alpha  occ. eigenvalues --  -14.44229 -14.44228 -14.43501 -10.43562 -10.42386
 Alpha  occ. eigenvalues --  -10.39871 -10.39629 -10.38937 -10.38125 -10.36236
 Alpha  occ. eigenvalues --  -10.35977 -10.35770 -10.35411 -10.35392 -10.35153
 Alpha  occ. eigenvalues --  -10.35045 -10.34586 -10.34547 -10.34280 -10.34226
 Alpha  occ. eigenvalues --  -10.34132 -10.34035 -10.33737 -10.33711 -10.33605
 Alpha  occ. eigenvalues --  -10.33264 -10.33036 -10.32943 -10.32917 -10.32711
 Alpha  occ. eigenvalues --  -10.32619 -10.32560 -10.32537 -10.32494 -10.32376
 Alpha  occ. eigenvalues --  -10.32241 -10.32206 -10.32164 -10.32124 -10.31933
 Alpha  occ. eigenvalues --  -10.31927 -10.31884 -10.31813 -10.31787 -10.31691
 Alpha  occ. eigenvalues --  -10.31650 -10.31582 -10.31543 -10.31543 -10.31508
 Alpha  occ. eigenvalues --  -10.31483 -10.31408 -10.31296 -10.31110 -10.30623
 Alpha  occ. eigenvalues --  -10.30538 -10.30496 -10.30449 -10.30269 -10.30262
 Alpha  occ. eigenvalues --  -10.30009 -10.29878 -10.29862 -10.29827 -10.29775
 Alpha  occ. eigenvalues --  -10.29592 -10.29415 -10.29311 -10.28909 -10.28621
 Alpha  occ. eigenvalues --  -10.28506  -3.21615  -3.21464  -1.95204  -1.95053
 Alpha  occ. eigenvalues --   -1.94726  -1.94584  -1.94561  -1.94448  -1.19127
 Alpha  occ. eigenvalues --   -1.18321  -1.12634  -1.12000  -1.11238  -1.10751
 Alpha  occ. eigenvalues --   -1.09842  -1.09494  -1.07355  -1.07274  -1.06226
 Alpha  occ. eigenvalues --   -1.05940  -1.05322  -1.05112  -1.04579  -1.03894
 Alpha  occ. eigenvalues --   -0.94510  -0.94123  -0.91192  -0.91053  -0.90832
 Alpha  occ. eigenvalues --   -0.90544  -0.90244  -0.90036  -0.89810  -0.89448
 Alpha  occ. eigenvalues --   -0.89366  -0.88991  -0.88703  -0.88382  -0.86749
 Alpha  occ. eigenvalues --   -0.86492  -0.86095  -0.85438  -0.84920  -0.84433
 Alpha  occ. eigenvalues --   -0.83836  -0.83637  -0.83431  -0.83333  -0.82619
 Alpha  occ. eigenvalues --   -0.82075  -0.80620  -0.80197  -0.79495  -0.79450
 Alpha  occ. eigenvalues --   -0.79284  -0.79239  -0.77894  -0.77810  -0.77226
 Alpha  occ. eigenvalues --   -0.77055  -0.75399  -0.74602  -0.74326  -0.73584
 Alpha  occ. eigenvalues --   -0.71923  -0.71375  -0.71266  -0.70979  -0.70507
 Alpha  occ. eigenvalues --   -0.69660  -0.69606  -0.69095  -0.67648  -0.67413
 Alpha  occ. eigenvalues --   -0.67304  -0.67121  -0.66821  -0.66708  -0.66516
 Alpha  occ. eigenvalues --   -0.65891  -0.64688  -0.63981  -0.62479  -0.62334
 Alpha  occ. eigenvalues --   -0.61839  -0.61553  -0.61232  -0.61071  -0.60927
 Alpha  occ. eigenvalues --   -0.60526  -0.60175  -0.60115  -0.59817  -0.59639
 Alpha  occ. eigenvalues --   -0.58328  -0.58057  -0.57644  -0.57626  -0.57379
 Alpha  occ. eigenvalues --   -0.57122  -0.57058  -0.56918  -0.56701  -0.56579
 Alpha  occ. eigenvalues --   -0.56521  -0.55637  -0.55313  -0.55290  -0.55225
 Alpha  occ. eigenvalues --   -0.55079  -0.54847  -0.54562  -0.54467  -0.54329
 Alpha  occ. eigenvalues --   -0.54222  -0.54060  -0.54054  -0.53772  -0.53619
 Alpha  occ. eigenvalues --   -0.53145  -0.53049  -0.52997  -0.52954  -0.52201
 Alpha  occ. eigenvalues --   -0.52004  -0.51741  -0.51654  -0.51586  -0.51406
 Alpha  occ. eigenvalues --   -0.51308  -0.51049  -0.51046  -0.50883  -0.50630
 Alpha  occ. eigenvalues --   -0.50614  -0.50556  -0.50363  -0.50236  -0.50196
 Alpha  occ. eigenvalues --   -0.49938  -0.49756  -0.49469  -0.49334  -0.49210
 Alpha  occ. eigenvalues --   -0.49008  -0.48949  -0.48854  -0.48684  -0.48540
 Alpha  occ. eigenvalues --   -0.48265  -0.48106  -0.47951  -0.47834  -0.47685
 Alpha  occ. eigenvalues --   -0.47662  -0.47278  -0.47087  -0.46861  -0.46662
 Alpha  occ. eigenvalues --   -0.46485  -0.46322  -0.46031  -0.46015  -0.45964
 Alpha  occ. eigenvalues --   -0.45581  -0.45550  -0.45319  -0.45214  -0.45094
 Alpha  occ. eigenvalues --   -0.45063  -0.45043  -0.44890  -0.44853  -0.44440
 Alpha  occ. eigenvalues --   -0.44394  -0.44221  -0.44161  -0.44050  -0.44016
 Alpha  occ. eigenvalues --   -0.43975  -0.43738  -0.43659  -0.43617  -0.43523
 Alpha  occ. eigenvalues --   -0.42945  -0.42863  -0.42750  -0.42581  -0.42552
 Alpha  occ. eigenvalues --   -0.42018  -0.41829  -0.41556  -0.41347  -0.40783
 Alpha  occ. eigenvalues --   -0.39988  -0.39976  -0.39911  -0.39684  -0.39563
 Alpha  occ. eigenvalues --   -0.39267  -0.39018  -0.38887  -0.38529  -0.38425
 Alpha  occ. eigenvalues --   -0.38366  -0.37979  -0.36809  -0.36398  -0.36353
 Alpha  occ. eigenvalues --   -0.36184  -0.35875  -0.35665  -0.33607  -0.33583
 Alpha  occ. eigenvalues --   -0.33327  -0.33102  -0.32873  -0.32696  -0.32619
 Alpha  occ. eigenvalues --   -0.32435  -0.32243  -0.32073  -0.26508  -0.25854
 Alpha  occ. eigenvalues --   -0.23177  -0.22919
 Alpha virt. eigenvalues --   -0.07260  -0.06988  -0.00619   0.00364   0.01641
 Alpha virt. eigenvalues --    0.02417   0.04058   0.04433   0.04888   0.05358
 Alpha virt. eigenvalues --    0.06748   0.07260   0.07638   0.07818   0.08684

 Mulliken charges:
               1
     1  Mg   0.932606
     2  C   -0.005267
     3  C   -0.106042
     4  C   -0.036863
     5  C   -0.077682
     6  N   -0.442519
     7  C   -0.001100
     8  C   -0.039644
     9  C   -0.136138
    10  C    0.130777
    11  C    0.033346
    12  C    0.070091
    13  C   -0.138442
    14  H    0.001140
    15  N   -0.460802
    16  C    0.169202
    17  C   -0.150409
    18  C   -0.077906
    19  C    0.134227
    20  C    0.056660
    21  C    0.061985
    22  O   -0.237197
    23  C   -0.054867
    24  N   -0.260606
    25  C    0.018231
    26  C   -0.075417
    27  C   -0.047754
    28  C    0.027182
    29  C   -0.001788
    30  C   -0.063223
    31  C   -0.056386
    32  N   -0.406336
    33  C    0.141289
    34  C   -0.241582
    35  C   -0.006690
    36  C    0.119771
    37  C    0.083124
    38  C    0.138321
    39  O   -0.196031
    40  C   -0.109018
    41  C    0.275648
    42  O   -0.258646
    43  O   -0.370312
    44  C    0.139911
    45  H    0.001667
    46  H    0.024558
    47  H    0.003482
    48  H    0.030658
    49  H    0.027204
    50  H    0.043617
    51  H    0.045879
    52  H    0.050488
    53  H    0.039670
    54  H    0.041062
    55  H    0.043560
    56  H    0.060938
    57  H    0.055473
    58  H    0.062310
    59  H    0.017081
    60  H    0.079471
    61  H    0.052045
    62  H    0.042023
    63  H    0.050378
    64  H    0.039454
    65  H    0.042912
    66  H    0.048658
    67  H    0.041136
    68  H    0.042187
    69  H    0.020894
    70  H    0.044422
    71  H    0.039352
    72  H    0.039093
    73  H    0.045654
    74  H    0.040863
    75  H    0.066591
    76  H    0.067162
    77  H    0.059158
    78  H    0.056313
    79  H    0.059743
    80  Mg   0.938846
    81  C   -0.014534
    82  C   -0.073025
    83  C   -0.062364
    84  C   -0.108362
    85  N   -0.378325
    86  C    0.014152
    87  C   -0.066539
    88  C   -0.052695
    89  C   -0.019238
    90  C    0.003466
    91  C    0.003954
    92  C   -0.135477
    93  H    0.037889
    94  N   -0.463765
    95  C    0.198065
    96  C   -0.182099
    97  C   -0.073828
    98  C    0.131262
    99  C    0.082506
   100  C    0.052707
   101  O   -0.248666
   102  C   -0.010142
   103  N   -0.296293
   104  C    0.020199
   105  C   -0.042598
   106  C   -0.112502
   107  C    0.095709
   108  C    0.041981
   109  C    0.013806
   110  C   -0.088345
   111  N   -0.408865
   112  C    0.114782
   113  C   -0.133683
   114  C    0.022694
   115  C    0.108196
   116  C    0.062472
   117  C    0.079615
   118  O   -0.227065
   119  C   -0.091688
   120  C    0.269380
   121  O   -0.244445
   122  O   -0.347012
   123  C    0.120634
   124  H   -0.007004
   125  H    0.014358
   126  H   -0.002704
   127  H    0.047239
   128  H    0.033587
   129  H    0.048640
   130  H    0.042359
   131  H    0.040772
   132  H    0.041460
   133  H    0.042329
   134  H    0.057831
   135  H    0.038203
   136  H    0.041110
   137  H    0.059761
   138  H    0.053770
   139  H    0.041416
   140  H    0.045359
   141  H    0.074764
   142  H    0.019448
   143  H    0.022883
   144  H    0.050325
   145  H    0.040356
   146  H    0.051566
   147  H    0.035805
   148  H    0.028572
   149  H    0.022197
   150  H    0.034815
   151  H    0.039198
   152  H    0.074247
   153  H    0.055565
   154  H    0.035738
   155  H    0.056492
   156  H    0.046876
   157  H    0.068142
   158  H    0.073765
 Sum of Mulliken charges =  -0.00000

 Dipole moment (field-independent basis, Debye):
    X=             -4.7063    Y=              2.0951    Z=             -5.7607  Tot=              7.7281
 Quadrupole moment (field-independent basis, Debye-Ang):
   XX=           -577.4975   YY=           -464.4056   ZZ=           -518.0477
   XY=            -50.4748   XZ=             23.8058   YZ=            -15.0692

 Normal termination of Gaussian 16 at Fri Sep 17 18:03:55 2021.
