 Gaussian 16, Revision A.03,
 Gaussian 16:  ES64L-G16RevA.03 25-Dec-2016

 --------------------------------
 #p wB97XD/Def2SVP td=(nstates=5)
 --------------------------------

 --------------------------------
 TDDFT excited states in gaussian
 --------------------------------
 Symbolic Z-matrix:
 Charge =  0 Multiplicity = 1

                         Standard orientation:
 ---------------------------------------------------------------------
 Center     Atomic      Atomic             Coordinates (Angstroms)
 Number     Number       Type             X           Y           Z
 ---------------------------------------------------------------------
      1         12           0       27.205079   -0.599875   -0.028819
      2          6           0       25.252805    1.886560    1.403187
      3          6           0       28.928505    1.727067   -1.757769
      4          6           0       28.900513   -3.096833   -1.476433
      5          6           0       25.253639   -2.949173    1.684265
      6          7           0       27.061093    1.582158   -0.087816
      7          6           0       26.294445    2.383363    0.612594
      8          6           0       26.693023    3.883700    0.233657
      9          6           0       27.187616    3.623690   -1.173549
     10          6           0       27.824502    2.206565   -1.013989
     11          6           0       26.022829    3.738878   -2.180382
     12          6           0       27.639036    4.510543    1.346036
     13          6           0       27.694776    6.041315    1.347059
     14          1           0       27.068922    6.797388    0.187816
     15          7           0       28.802069   -0.668551   -1.269164
     16          6           0       29.431321    0.442477   -1.825756
     17          6           0       30.682514   -0.034429   -2.487747
     18          6           0       30.658482   -1.493763   -2.470738
     19          6           0       29.369232   -1.765124   -1.781082
     20          6           0       31.693859    0.905669   -3.099814
     21          6           0       31.718923   -2.573651   -2.984134
     22          8           0       31.586773   -3.792338   -2.828496
     23          6           0       32.950677   -2.031859   -3.679010
     24          7           0       27.029084   -2.661512   -0.005706
     25          6           0       27.823352   -3.482459   -0.687561
     26          6           0       27.402558   -4.978769   -0.556036
     27          6           0       26.426157   -4.879564    0.624784
     28          6           0       26.244758   -3.410804    0.846426
     29          6           0       26.793785   -5.597844   -1.845156
     30          6           0       26.713663   -5.758006    1.922671
     31          6           0       27.277823   -5.059165    3.115812
     32          7           0       25.456523   -0.607118    1.116435
     33          6           0       24.825624   -1.599271    1.788379
     34          6           0       23.704137   -1.146204    2.531302
     35          6           0       23.825159    0.274570    2.417923
     36          6           0       24.889539    0.484381    1.571167
     37          6           0       22.603829   -1.836130    3.295201
     38          6           0       23.308869    1.556313    2.796057
     39          8           0       22.374946    1.879682    3.497844
     40          6           0       24.282951    2.671129    2.297843
     41          6           0       23.523380    3.707201    1.591638
     42          8           0       22.881872    3.473231    0.578670
     43          8           0       23.454876    4.942110    2.285963
     44          6           0       22.606324    5.978674    1.677432
     45          1           0       29.416943    2.503417   -2.348476
     46          1           0       29.443803   -3.886779   -1.997726
     47          1           0       24.636743   -3.712239    2.162735
     48          1           0       25.808221    4.518146    0.263500
     49          1           0       28.011779    4.264438   -1.486075
     50          1           0       26.300410    4.627052   -2.749005
     51          1           0       25.054927    3.880829   -1.697837
     52          1           0       26.116581    2.879169   -2.843500
     53          1           0       28.660801    4.153952    1.212855
     54          1           0       27.184936    4.220242    2.293751
     55          1           0       28.747298    6.312677    1.422656
     56          1           0       27.226918    6.371125    2.274332
     57          1           0       31.753777    1.842678   -2.544989
     58          1           0       31.566158    1.156201   -4.152418
     59          1           0       32.682943    0.460263   -2.993970
     60          1           0       32.539726   -1.372597   -4.443232
     61          1           0       33.543073   -2.781131   -4.203339
     62          1           0       33.601535   -1.546431   -2.951608
     63          1           0       28.253724   -5.609784   -0.300693
     64          1           0       25.450295   -5.132665    0.211988
     65          1           0       25.939237   -6.180962   -1.501047
     66          1           0       27.452157   -6.213142   -2.456430
     67          1           0       26.515095   -4.777681   -2.506849
     68          1           0       27.310073   -6.621244    1.627123
     69          1           0       25.766370   -6.130283    2.312064
     70          1           0       26.508781   -5.064336    3.888605
     71          1           0       27.424823   -3.982800    3.018595
     72          1           0       28.154385   -5.540031    3.550126
     73          1           0       22.643702   -2.921172    3.193023
     74          1           0       21.647992   -1.390986    3.017413
     75          1           0       22.653031   -1.773023    4.382473
     76          1           0       24.818296    3.139475    3.123348
     77          1           0       22.699178    6.969610    2.121185
     78          1           0       21.599261    5.586736    1.822518
     79          1           0       22.833593    5.946974    0.612509
     80         12           0      -27.402090   -0.539912   -0.183770
     81          6           0      -25.660186    2.234518   -1.404611
     82          6           0      -28.252798    1.347800    2.576587
     83          6           0      -28.501860   -3.372858    1.370574
     84          6           0      -25.928372   -2.460573   -2.660097
     85          7           0      -27.055937    1.539861    0.400652
     86          6           0      -26.517315    2.513589   -0.344369
     87          6           0      -26.757059    3.934611    0.186297
     88          6           0      -27.435742    3.635802    1.577882
     89          6           0      -27.709510    2.030602    1.518640
     90          6           0      -26.656445    4.044258    2.846564
     91          6           0      -27.585253    4.828713   -0.736743
     92          6           0      -27.293055    6.329043   -0.553145
     93          1           0      -26.269986    6.771302    0.502618
     94          7           0      -28.355566   -0.961828    1.646797
     95          6           0      -28.687004   -0.019284    2.647362
     96          6           0      -29.392695   -0.710620    3.707587
     97          6           0      -29.420132   -2.122614    3.402894
     98          6           0      -28.782147   -2.209305    2.090224
     99          6           0      -30.029566    0.049468    4.838311
    100          6           0      -30.125155   -3.332638    4.165214
    101          8           0      -30.191934   -4.455127    3.726291
    102          6           0      -30.717434   -3.016229    5.521366
    103          7           0      -27.159833   -2.603540   -0.531644
    104          6           0      -27.732569   -3.592098    0.213887
    105          6           0      -27.473722   -5.021167   -0.390639
    106          6           0      -26.728778   -4.668880   -1.677155
    107          6           0      -26.597039   -3.159039   -1.609056
    108          6           0      -26.819942   -6.176762    0.469233
    109          6           0      -27.515051   -5.134077   -2.925226
    110          6           0      -28.658771   -4.244745   -3.461320
    111          7           0      -26.171222   -0.234896   -1.851032
    112          6           0      -25.649346   -1.104402   -2.773406
    113          6           0      -24.849954   -0.420323   -3.733789
    114          6           0      -24.806661    0.956541   -3.229237
    115          6           0      -25.572927    0.977262   -2.129560
    116          6           0      -24.157632   -0.889278   -4.936127
    117          6           0      -24.190415    2.267084   -3.383189
    118          8           0      -23.475820    2.707084   -4.290143
    119          6           0      -24.705291    3.172928   -2.226057
    120          6           0      -23.602824    3.708829   -1.434222
    121          8           0      -22.966507    3.102447   -0.578860
    122          8           0      -23.230832    4.926009   -1.947457
    123          6           0      -21.905995    5.485588   -1.616164
    124          1           0      -28.452693    2.012175    3.420102
    125          1           0      -29.006911   -4.257047    1.764943
    126          1           0      -25.540889   -3.044859   -3.497262
    127          1           0      -25.821921    4.425566    0.454753
    128          1           0      -28.458321    4.004793    1.648615
    129          1           0      -27.414875    4.638352    3.356095
    130          1           0      -25.791179    4.654069    2.587764
    131          1           0      -26.329415    3.160938    3.395241
    132          1           0      -28.654734    4.655730   -0.623032
    133          1           0      -27.377568    4.586474   -1.779339
    134          1           0      -28.290747    6.696797   -0.312531
    135          1           0      -27.065857    6.818409   -1.501326
    136          1           0      -29.660599    1.070931    4.744980
    137          1           0      -29.733503   -0.405921    5.783573
    138          1           0      -31.119922    0.031091    4.804568
    139          1           0      -30.020950   -2.891685    6.351160
    140          1           0      -31.459162   -3.783040    5.744820
    141          1           0      -31.237413   -2.079196    5.322442
    142          1           0      -28.496323   -5.347934   -0.577969
    143          1           0      -25.763228   -5.169916   -1.618209
    144          1           0      -25.999803   -6.700402   -0.020545
    145          1           0      -27.580344   -6.937213    0.644151
    146          1           0      -26.541485   -5.752198    1.434217
    147          1           0      -27.893335   -6.123759   -2.672117
    148          1           0      -26.753684   -5.270233   -3.693826
    149          1           0      -29.448346   -4.948286   -3.724098
    150          1           0      -28.397643   -3.708249   -4.373218
    151          1           0      -28.979241   -3.461885   -2.774815
    152          1           0      -24.307223   -0.141912   -5.714555
    153          1           0      -24.469529   -1.864686   -5.309617
    154          1           0      -23.078996   -0.838607   -4.786447
    155          1           0      -25.273818    3.950826   -2.735497
    156          1           0      -21.358365    4.858472   -0.911794
    157          1           0      -22.066085    6.451905   -1.137302
    158          1           0      -21.447470    5.522011   -2.603731
 ---------------------------------------------------------------------

 SCF Done:  E(RwB97XD) =  -4070.63250465     A.U. after   19 cycles

 Excitation energies and oscillator strengths:

 Excited State   1:      Singlet-A      1.6570 eV  748.26 nm  f=0.4122  <S**2>=0.000
     310 -> 315        0.18733
     312 -> 313        0.68179
     310 <- 315        0.11634
 This state for optimization and/or second-order correction.
 Total Energy, E(TD-HF/TD-DFT) =  -4070.57161222
 Copying the excited state density for this state as the 1-particle RhoCI density.

 Excited State   2:      Singlet-A      1.6905 eV  733.40 nm  f=0.3899  <S**2>=0.000
     309 -> 316        0.18170
     311 -> 314        0.68421
     309 <- 316        0.11473

 Excited State   3:      Singlet-A      2.0777 eV  596.75 nm  f=0.1513  <S**2>=0.000
     310 -> 313        0.65642
     312 -> 315       -0.23987

 Excited State   4:      Singlet-A      2.1644 eV  572.82 nm  f=0.1460  <S**2>=0.000
     309 -> 314        0.65220
     311 -> 316       -0.26035

 Excited State   5:      Singlet-A      3.1037 eV  399.48 nm  f=0.0053  <S**2>=0.000
     306 -> 313       -0.12853
     308 -> 313        0.67537

 The electronic state is 1-A.
 Alpha  occ. eigenvalues --  -46.94571 -46.94106 -19.29130 -19.29091 -19.25564
 Alpha  occ. eigenvalues --  -19.24939 -19.24388 -19.23901 -19.23743 -19.22901
 Alpha  occ. eigenvalues --  -14.46857 -14.46599 -14.46443 -14.46015 -14.44740
 Alpha  occ. eigenvalues --  -14.44040 -14.43186 -14.42755 -10.42706 -10.42486
 Alpha  occ. eigenvalues --  -10.41283 -10.40143 -10.39087 -10.38065 -10.35401
 Alpha  occ. eigenvalues --  -10.35242 -10.35127 -10.34900 -10.34890 -10.34864
 Alpha  occ. eigenvalues --  -10.34774 -10.34692 -10.34638 -10.34635 -10.34565
 Alpha  occ. eigenvalues --  -10.34440 -10.34360 -10.33878 -10.33785 -10.33224
 Alpha  occ. eigenvalues --  -10.32823 -10.32806 -10.32740 -10.32694 -10.32604
 Alpha  occ. eigenvalues --  -10.32274 -10.32259 -10.32247 -10.32128 -10.32034
 Alpha  occ. eigenvalues --  -10.32021 -10.32008 -10.31787 -10.31688 -10.31675
 Alpha  occ. eigenvalues --  -10.31671 -10.31633 -10.31581 -10.31581 -10.31438
 Alpha  occ. eigenvalues --  -10.31331 -10.31260 -10.31137 -10.31072 -10.30971
 Alpha  occ. eigenvalues --  -10.30911 -10.30903 -10.30858 -10.30769 -10.30621
 Alpha  occ. eigenvalues --  -10.30258 -10.30222 -10.30170 -10.29951 -10.29842
 Alpha  occ. eigenvalues --  -10.29814 -10.29675 -10.29641 -10.29626 -10.29587
 Alpha  occ. eigenvalues --  -10.29573 -10.29517 -10.29275 -10.28777 -10.28284
 Alpha  occ. eigenvalues --  -10.28159  -3.20534  -3.20271  -1.94123  -1.93881
 Alpha  occ. eigenvalues --   -1.93653  -1.93513  -1.93367  -1.93294  -1.17231
 Alpha  occ. eigenvalues --   -1.16618  -1.13782  -1.12756  -1.11763  -1.11081
 Alpha  occ. eigenvalues --   -1.08923  -1.08809  -1.07573  -1.06729  -1.06424
 Alpha  occ. eigenvalues --   -1.06164  -1.05305  -1.05224  -1.04455  -1.03038
 Alpha  occ. eigenvalues --   -0.94077  -0.94031  -0.91083  -0.91012  -0.90624
 Alpha  occ. eigenvalues --   -0.90435  -0.90204  -0.90052  -0.89261  -0.89030
 Alpha  occ. eigenvalues --   -0.88997  -0.88370  -0.88159  -0.88007  -0.86201
 Alpha  occ. eigenvalues --   -0.86102  -0.85505  -0.85304  -0.84689  -0.84508
 Alpha  occ. eigenvalues --   -0.84200  -0.83852  -0.82928  -0.82876  -0.82110
 Alpha  occ. eigenvalues --   -0.82027  -0.80579  -0.80072  -0.79135  -0.79022
 Alpha  occ. eigenvalues --   -0.78727  -0.78560  -0.77802  -0.77750  -0.76988
 Alpha  occ. eigenvalues --   -0.76940  -0.74794  -0.74399  -0.73146  -0.73048
 Alpha  occ. eigenvalues --   -0.71709  -0.71116  -0.70722  -0.70391  -0.69881
 Alpha  occ. eigenvalues --   -0.69629  -0.68655  -0.68045  -0.67012  -0.66689
 Alpha  occ. eigenvalues --   -0.66603  -0.66570  -0.66421  -0.66172  -0.65951
 Alpha  occ. eigenvalues --   -0.65709  -0.63371  -0.63236  -0.62681  -0.61756
 Alpha  occ. eigenvalues --   -0.61536  -0.61110  -0.61054  -0.61011  -0.60256
 Alpha  occ. eigenvalues --   -0.59999  -0.59941  -0.59636  -0.59560  -0.59377
 Alpha  occ. eigenvalues --   -0.57827  -0.57796  -0.57643  -0.57358  -0.57345
 Alpha  occ. eigenvalues --   -0.57093  -0.56668  -0.56588  -0.55874  -0.55597
 Alpha  occ. eigenvalues --   -0.55559  -0.55323  -0.55251  -0.54937  -0.54766
 Alpha  occ. eigenvalues --   -0.54593  -0.54574  -0.54229  -0.54226  -0.54072
 Alpha  occ. eigenvalues --   -0.54033  -0.53871  -0.53721  -0.53523  -0.53121
 Alpha  occ. eigenvalues --   -0.52712  -0.52707  -0.52686  -0.52557  -0.52214
 Alpha  occ. eigenvalues --   -0.52153  -0.51804  -0.51599  -0.51494  -0.51403
 Alpha  occ. eigenvalues --   -0.51287  -0.51096  -0.50974  -0.50947  -0.50888
 Alpha  occ. eigenvalues --   -0.50779  -0.50471  -0.50423  -0.50398  -0.50123
 Alpha  occ. eigenvalues --   -0.50007  -0.49739  -0.49527  -0.49299  -0.49026
 Alpha  occ. eigenvalues --   -0.48782  -0.48652  -0.48339  -0.48167  -0.48162
 Alpha  occ. eigenvalues --   -0.48014  -0.47926  -0.47760  -0.47691  -0.47538
 Alpha  occ. eigenvalues --   -0.47436  -0.47170  -0.46915  -0.46841  -0.46568
 Alpha  occ. eigenvalues --   -0.46542  -0.46248  -0.46216  -0.45922  -0.45871
 Alpha  occ. eigenvalues --   -0.45859  -0.45569  -0.45426  -0.45300  -0.45256
 Alpha  occ. eigenvalues --   -0.45144  -0.45128  -0.44959  -0.44920  -0.44718
 Alpha  occ. eigenvalues --   -0.44636  -0.44419  -0.44248  -0.44012  -0.43899
 Alpha  occ. eigenvalues --   -0.43730  -0.43385  -0.43292  -0.42989  -0.42944
 Alpha  occ. eigenvalues --   -0.42848  -0.42773  -0.42493  -0.42411  -0.42132
 Alpha  occ. eigenvalues --   -0.42079  -0.41866  -0.41796  -0.41092  -0.40410
 Alpha  occ. eigenvalues --   -0.40282  -0.40187  -0.39964  -0.39725  -0.39576
 Alpha  occ. eigenvalues --   -0.39438  -0.38752  -0.38629  -0.38114  -0.38025
 Alpha  occ. eigenvalues --   -0.37665  -0.37606  -0.36429  -0.36288  -0.35877
 Alpha  occ. eigenvalues --   -0.35717  -0.35482  -0.35426  -0.34192  -0.33541
 Alpha  occ. eigenvalues --   -0.33378  -0.33078  -0.32772  -0.32707  -0.32145
 Alpha  occ. eigenvalues --   -0.31769  -0.31683  -0.30815  -0.25811  -0.25399
 Alpha  occ. eigenvalues --   -0.23203  -0.23086
 Alpha virt. eigenvalues --   -0.07251  -0.07162   0.00642   0.00674   0.02013
 Alpha virt. eigenvalues --    0.02671   0.04588   0.04617   0.05705   0.06617
 Alpha virt. eigenvalues --    0.06990   0.07470   0.07799   0.08052   0.08493

 Mulliken charges:
               1
     1  Mg   0.985700
     2  C   -0.034029
     3  C   -0.089375
     4  C   -0.081527
     5  C   -0.113010
     6  N   -0.312376
     7  C   -0.022120
     8  C   -0.084663
     9  C   -0.106332
    10  C    0.035626
    11  C    0.056901
    12  C    0.017369
    13  C   -0.109415
    14  H    0.037457
    15  N   -0.477245
    16  C    0.190020
    17  C   -0.158446
    18  C   -0.108929
    19  C    0.127400
    20  C    0.049073
    21  C    0.101679
    22  O   -0.227650
    23  C   -0.029470
    24  N   -0.378778
    25  C    0.081101
    26  C   -0.097530
    27  C   -0.032395
    28  C    0.052667
    29  C    0.021158
    30  C   -0.006329
    31  C   -0.048408
    32  N   -0.374834
    33  C    0.116108
    34  C   -0.174675
    35  C   -0.023381
    36  C    0.102300
    37  C    0.084899
    38  C    0.096567
    39  O   -0.204568
    40  C   -0.019845
    41  C    0.245709
    42  O   -0.251746
    43  O   -0.402737
    44  C    0.147346
    45  H    0.004664
    46  H    0.017889
    47  H   -0.007186
    48  H    0.021252
    49  H    0.004260
    50  H    0.035511
    51  H    0.070957
    52  H    0.037012
    53  H    0.035383
    54  H    0.041311
    55  H    0.045556
    56  H    0.053105
    57  H    0.040757
    58  H    0.065835
    59  H    0.030980
    60  H    0.059216
    61  H    0.056217
    62  H    0.081325
    63  H    0.037152
    64  H    0.030719
    65  H    0.038447
    66  H    0.045366
    67  H    0.041239
    68  H    0.033861
    69  H    0.028041
    70  H    0.018051
    71  H    0.047789
    72  H    0.040825
    73  H    0.015394
    74  H    0.066043
    75  H    0.046095
    76  H    0.068305
    77  H    0.063908
    78  H    0.057337
    79  H    0.048121
    80  Mg   0.959923
    81  C   -0.000740
    82  C   -0.090153
    83  C   -0.073983
    84  C   -0.086945
    85  N   -0.357050
    86  C   -0.011414
    87  C   -0.047879
    88  C   -0.148935
    89  C    0.067707
    90  C    0.032203
    91  C    0.017171
    92  C   -0.110779
    93  H    0.046872
    94  N   -0.477852
    95  C    0.165628
    96  C   -0.178486
    97  C   -0.089966
    98  C    0.129299
    99  C    0.057147
   100  C    0.082280
   101  O   -0.208427
   102  C   -0.022500
   103  N   -0.338003
   104  C    0.039946
   105  C   -0.081637
   106  C   -0.049184
   107  C    0.051008
   108  C    0.022588
   109  C   -0.042562
   110  C   -0.033345
   111  N   -0.449833
   112  C    0.142100
   113  C   -0.165011
   114  C   -0.034714
   115  C    0.132316
   116  C    0.085494
   117  C    0.094047
   118  O   -0.220667
   119  C   -0.058981
   120  C    0.274378
   121  O   -0.254764
   122  O   -0.379440
   123  C    0.128378
   124  H    0.001367
   125  H    0.020110
   126  H   -0.015923
   127  H    0.038869
   128  H    0.031176
   129  H    0.040087
   130  H    0.043117
   131  H    0.055440
   132  H    0.031045
   133  H    0.031036
   134  H    0.040482
   135  H    0.054363
   136  H    0.029112
   137  H    0.047913
   138  H    0.067753
   139  H    0.082046
   140  H    0.053781
   141  H    0.031781
   142  H    0.039739
   143  H    0.036124
   144  H    0.039824
   145  H    0.035644
   146  H    0.050991
   147  H    0.030131
   148  H    0.031106
   149  H    0.040345
   150  H    0.037208
   151  H    0.046609
   152  H    0.052924
   153  H    0.034588
   154  H    0.057873
   155  H    0.073247
   156  H    0.066903
   157  H    0.054423
   158  H    0.073533
 Sum of Mulliken charges =  -0.00000

 Dipole moment (field-independent basis, Debye):
    X=              1.8736    Y=              1.7094    Z=             -0.7344  Tot=              2.6404
 Quadrupole moment (field-independent basis, Debye-Ang):
   XX=            -51.8817   YY=           -466.7832   ZZ=           -504.1398
   XY=             15.3440   XZ=            -96.0555   YZ=              8.3621

 Normal termination of Gaussian 16 at Mon Sep 20 20:58:03 2021.
