 Gaussian 16, Revision A.03,
 Gaussian 16:  ES64L-G16RevA.03 25-Dec-2016

 --------------------------------
 #p wB97XD/Def2SVP td=(nstates=5)
 --------------------------------

 --------------------------------
 TDDFT excited states in gaussian
 --------------------------------
 Symbolic Z-matrix:
 Charge =  0 Multiplicity = 1

                         Standard orientation:
 ---------------------------------------------------------------------
 Center     Atomic      Atomic             Coordinates (Angstroms)
 Number     Number       Type             X           Y           Z
 ---------------------------------------------------------------------
      1         12           0      -30.348641    0.027173   -0.172253
      2          6           0      -26.937512   -0.572510   -0.443758
      3          6           0      -30.355292   -2.496593    2.365878
      4          6           0      -33.458183    0.815505    0.545081
      5          6           0      -29.923347    2.906784   -2.143213
      6          7           0      -28.791854   -1.267847    0.906935
      7          6           0      -27.475282   -1.370436    0.517204
      8          6           0      -26.742221   -2.384406    1.399674
      9          6           0      -27.926819   -3.142420    2.060258
     10          6           0      -29.109133   -2.243302    1.811210
     11          6           0      -28.249676   -4.609151    1.572165
     12          6           0      -25.793907   -1.726025    2.415178
     13          6           0      -24.930370   -2.653798    3.181136
     14          1           0      -23.616855   -2.054903    3.814460
     15          7           0      -31.749937   -0.723339    1.279017
     16          6           0      -31.569965   -1.768374    2.198588
     17          6           0      -32.798684   -1.940359    2.922310
     18          6           0      -33.684882   -0.882703    2.497894
     19          6           0      -32.968801   -0.212364    1.358046
     20          6           0      -32.970482   -2.985141    4.059329
     21          6           0      -35.072454   -0.669524    3.111239
     22          8           0      -35.563918   -1.470733    3.888758
     23          6           0      -35.842297    0.540639    2.742001
     24          7           0      -31.570027    1.521064   -0.910064
     25          6           0      -32.833446    1.598241   -0.478452
     26          6           0      -33.511572    2.911130   -1.044331
     27          6           0      -32.393557    3.651420   -1.874522
     28          6           0      -31.153652    2.640208   -1.588121
     29          6           0      -34.863464    2.756220   -1.789344
     30          6           0      -32.134487    5.055846   -1.288457
     31          6           0      -31.658172    6.107224   -2.298122
     32          7           0      -28.785454    1.038744   -1.143185
     33          6           0      -28.771429    2.104763   -1.998483
     34          6           0      -27.427165    2.217684   -2.576997
     35          6           0      -26.733212    1.151992   -2.069937
     36          6           0      -27.541386    0.500934   -1.165710
     37          6           0      -26.983380    3.230581   -3.637396
     38          6           0      -25.451359    0.513789   -2.056470
     39          8           0      -24.430834    0.734857   -2.660655
     40          6           0      -25.535756   -0.645092   -1.007703
     41          6           0      -25.356304   -1.927915   -1.741603
     42          8           0      -25.926055   -2.280671   -2.736790
     43          8           0      -24.494232   -2.751218   -0.996665
     44          6           0      -24.277665   -4.066139   -1.529602
     45          1           0      -30.275178   -3.341544    3.052296
     46          1           0      -34.482058    1.178534    0.660242
     47          1           0      -29.771841    3.752893   -2.816899
     48          1           0      -26.247429   -3.070495    0.713578
     49          1           0      -27.895999   -3.220033    3.146492
     50          1           0      -28.290986   -5.188314    2.494397
     51          1           0      -27.741211   -4.972548    0.678729
     52          1           0      -29.283377   -4.594704    1.227000
     53          1           0      -26.277293   -1.194280    3.235192
     54          1           0      -25.169591   -0.987403    1.912297
     55          1           0      -24.670081   -3.467101    2.503723
     56          1           0      -25.524339   -3.117394    3.968585
     57          1           0      -32.922974   -2.282828    4.892166
     58          1           0      -32.122294   -3.648020    4.231613
     59          1           0      -33.841066   -3.634435    4.153885
     60          1           0      -35.138912    1.362594    2.875134
     61          1           0      -36.644859    0.671634    3.468015
     62          1           0      -36.125720    0.352437    1.706164
     63          1           0      -33.761483    3.507310   -0.166258
     64          1           0      -32.573170    3.708006   -2.947661
     65          1           0      -35.652103    3.130057   -1.135581
     66          1           0      -34.969761    1.717785   -2.101364
     67          1           0      -34.890408    3.430067   -2.645651
     68          1           0      -31.387479    4.898087   -0.510932
     69          1           0      -32.975260    5.466529   -0.729046
     70          1           0      -32.409692    6.891733   -2.203037
     71          1           0      -31.528247    5.734852   -3.314349
     72          1           0      -30.711995    6.540769   -1.974028
     73          1           0      -26.017233    3.707880   -3.476923
     74          1           0      -27.808834    3.942668   -3.622553
     75          1           0      -27.124746    2.736886   -4.598973
     76          1           0      -24.724630   -0.474729   -0.299679
     77          1           0      -23.251307   -4.082703   -1.896346
     78          1           0      -24.935372   -4.441557   -2.313924
     79          1           0      -24.398406   -4.771139   -0.707552
     80         12           0       30.191401    0.250185    0.229983
     81          6           0       27.432251   -0.066763   -1.734128
     82          6           0       31.370396   -2.805980   -0.822024
     83          6           0       32.790694    0.622000    2.366849
     84          6           0       28.719752    3.139864    1.635601
     85          7           0       29.359257   -1.370469   -0.968015
     86          6           0       28.400756   -1.112389   -1.897381
     87          6           0       28.334347   -2.134319   -2.981248
     88          6           0       29.488835   -3.142258   -2.469152
     89          6           0       30.135624   -2.410392   -1.339295
     90          6           0       28.912045   -4.555872   -2.005430
     91          6           0       28.714248   -1.438642   -4.370691
     92          6           0       28.218453   -2.113167   -5.651633
     93          1           0       27.656912   -3.555215   -5.719968
     94          7           0       31.918030   -0.845573    0.668692
     95          6           0       32.202656   -2.111069    0.130180
     96          6           0       33.448547   -2.548408    0.716001
     97          6           0       33.884975   -1.554631    1.615611
     98          6           0       32.862526   -0.521423    1.524516
     99          6           0       34.112221   -3.876946    0.284330
    100          6           0       35.170057   -1.606206    2.596695
    101          8           0       35.552576   -0.626398    3.248709
    102          6           0       36.050089   -2.830220    2.789223
    103          7           0       30.702365    1.764809    1.761262
    104          6           0       31.822923    1.627959    2.509732
    105          6           0       31.831284    2.603275    3.685666
    106          6           0       30.656980    3.654493    3.246996
    107          6           0       30.011347    2.901530    2.073189
    108          6           0       31.725287    1.952764    5.140388
    109          6           0       31.146212    5.066275    2.641118
    110          6           0       30.557357    6.360209    3.172282
    111          7           0       28.466933    1.409307    0.016707
    112          6           0       27.994358    2.508884    0.629422
    113          6           0       26.716250    2.940269   -0.018623
    114          6           0       26.521980    1.940758   -1.001326
    115          6           0       27.556852    0.989791   -0.826241
    116          6           0       25.850860    4.126454    0.221418
    117          6           0       25.608610    1.585869   -2.021941
    118          8           0       24.564066    2.153043   -2.403011
    119          6           0       26.152955    0.259649   -2.546673
    120          6           0       25.153325   -0.765149   -2.349929
    121          8           0       24.584268   -1.119099   -1.365035
    122          8           0       25.017948   -1.413477   -3.573936
    123          6           0       24.098790   -2.600646   -3.761435
    124          1           0       31.912025   -3.642293   -1.267988
    125          1           0       33.580259    0.684941    3.119025
    126          1           0       28.120750    3.896932    2.144809
    127          1           0       27.422587   -2.696862   -3.181121
    128          1           0       30.226008   -3.329695   -3.249862
    129          1           0       29.538435   -5.420338   -2.224291
    130          1           0       27.888759   -4.658516   -2.366285
    131          1           0       28.846129   -4.515527   -0.917685
    132          1           0       29.792679   -1.318631   -4.475888
    133          1           0       28.283671   -0.438665   -4.312435
    134          1           0       29.046263   -2.039676   -6.358058
    135          1           0       27.449063   -1.483912   -6.097425
    136          1           0       33.589987   -4.399853   -0.516773
    137          1           0       34.180189   -4.494274    1.179478
    138          1           0       35.132004   -3.639193   -0.019232
    139          1           0       36.570653   -2.941327    1.838748
    140          1           0       35.480009   -3.759468    2.786579
    141          1           0       36.587066   -2.768344    3.735537
    142          1           0       32.772886    3.152539    3.650716
    143          1           0       29.988909    3.863672    4.082706
    144          1           0       30.857565    2.331149    5.681261
    145          1           0       32.637323    2.146202    5.703925
    146          1           0       31.558407    0.877713    5.069065
    147          1           0       31.081860    5.084550    1.553271
    148          1           0       32.222108    5.106596    2.808493
    149          1           0       30.135519    6.881597    2.313739
    150          1           0       31.285985    6.974823    3.700182
    151          1           0       29.711649    6.137467    3.824376
    152          1           0       26.238737    4.837802    0.950366
    153          1           0       24.869210    3.823876    0.586911
    154          1           0       25.718912    4.650288   -0.725095
    155          1           0       26.403664    0.307626   -3.606764
    156          1           0       23.635928   -2.875715   -2.813456
    157          1           0       24.680813   -3.466303   -4.080462
    158          1           0       23.359247   -2.279772   -4.495018
 ---------------------------------------------------------------------

 SCF Done:  E(RwB97XD) =  -4070.61256521     A.U. after   19 cycles

 Excitation energies and oscillator strengths:

 Excited State   1:      Singlet-A      1.6817 eV  737.25 nm  f=0.3957  <S**2>=0.000
     310 -> 316        0.19775
     312 -> 314        0.68063
     310 <- 316        0.11935
 This state for optimization and/or second-order correction.
 Total Energy, E(TD-HF/TD-DFT) =  -4070.55076369
 Copying the excited state density for this state as the 1-particle RhoCI density.

 Excited State   2:      Singlet-A      1.7222 eV  719.92 nm  f=0.3944  <S**2>=0.000
     309 -> 315        0.17625
     311 -> 313        0.68544
     309 <- 315        0.11115

 Excited State   3:      Singlet-A      2.1739 eV  570.33 nm  f=0.0989  <S**2>=0.000
     310 -> 314        0.63670
     312 -> 316       -0.29858

 Excited State   4:      Singlet-A      2.2424 eV  552.90 nm  f=0.1148  <S**2>=0.000
     309 -> 313        0.63518
     311 -> 315       -0.29256

 Excited State   5:      Singlet-A      3.2985 eV  375.88 nm  f=0.0028  <S**2>=0.000
     302 -> 313        0.12785
     306 -> 313        0.40236
     308 -> 313        0.52835
     311 -> 315       -0.11708

 The electronic state is 1-A.
 Alpha  occ. eigenvalues --  -46.95998 -46.95725 -19.30168 -19.28925 -19.25399
 Alpha  occ. eigenvalues --  -19.24518 -19.24202 -19.23893 -19.23754 -19.23521
 Alpha  occ. eigenvalues --  -14.47227 -14.47039 -14.46965 -14.46269 -14.44859
 Alpha  occ. eigenvalues --  -14.44122 -14.43973 -14.43648 -10.43329 -10.42478
 Alpha  occ. eigenvalues --  -10.40213 -10.38856 -10.38524 -10.38109 -10.36446
 Alpha  occ. eigenvalues --  -10.35790 -10.35712 -10.35654 -10.35331 -10.35188
 Alpha  occ. eigenvalues --  -10.35053 -10.34946 -10.34664 -10.34656 -10.34541
 Alpha  occ. eigenvalues --  -10.34201 -10.34032 -10.33883 -10.33788 -10.33717
 Alpha  occ. eigenvalues --  -10.33157 -10.33053 -10.32982 -10.32790 -10.32544
 Alpha  occ. eigenvalues --  -10.32377 -10.32334 -10.32322 -10.32321 -10.32282
 Alpha  occ. eigenvalues --  -10.32269 -10.32267 -10.32239 -10.32235 -10.32015
 Alpha  occ. eigenvalues --  -10.32010 -10.32008 -10.31941 -10.31898 -10.31856
 Alpha  occ. eigenvalues --  -10.31763 -10.31608 -10.31591 -10.31429 -10.31422
 Alpha  occ. eigenvalues --  -10.31396 -10.31305 -10.30886 -10.30704 -10.30512
 Alpha  occ. eigenvalues --  -10.30490 -10.30463 -10.30394 -10.30321 -10.30141
 Alpha  occ. eigenvalues --  -10.30110 -10.30039 -10.30017 -10.29978 -10.29950
 Alpha  occ. eigenvalues --  -10.29908 -10.29867 -10.29426 -10.29157 -10.28828
 Alpha  occ. eigenvalues --  -10.27923  -3.21876  -3.21581  -1.95468  -1.95190
 Alpha  occ. eigenvalues --   -1.95000  -1.94828  -1.94683  -1.94561  -1.18756
 Alpha  occ. eigenvalues --   -1.17779  -1.12522  -1.12374  -1.11711  -1.11014
 Alpha  occ. eigenvalues --   -1.10587  -1.09409  -1.07614  -1.06591  -1.06464
 Alpha  occ. eigenvalues --   -1.05832  -1.05729  -1.05579  -1.04861  -1.04641
 Alpha  occ. eigenvalues --   -0.95506  -0.95213  -0.91279  -0.91176  -0.90704
 Alpha  occ. eigenvalues --   -0.90533  -0.90123  -0.90012  -0.89426  -0.88983
 Alpha  occ. eigenvalues --   -0.88785  -0.88417  -0.88152  -0.87895  -0.87144
 Alpha  occ. eigenvalues --   -0.86267  -0.85912  -0.85346  -0.85081  -0.84519
 Alpha  occ. eigenvalues --   -0.84242  -0.83512  -0.83234  -0.83121  -0.82819
 Alpha  occ. eigenvalues --   -0.82261  -0.80363  -0.79708  -0.79396  -0.79259
 Alpha  occ. eigenvalues --   -0.79062  -0.79051  -0.78124  -0.78118  -0.77489
 Alpha  occ. eigenvalues --   -0.77097  -0.75204  -0.74598  -0.74030  -0.73950
 Alpha  occ. eigenvalues --   -0.71305  -0.71270  -0.70978  -0.70557  -0.70152
 Alpha  occ. eigenvalues --   -0.69749  -0.68755  -0.67986  -0.67955  -0.67550
 Alpha  occ. eigenvalues --   -0.67243  -0.67156  -0.66961  -0.66610  -0.66506
 Alpha  occ. eigenvalues --   -0.66240  -0.64663  -0.63829  -0.62457  -0.62302
 Alpha  occ. eigenvalues --   -0.61881  -0.61869  -0.61288  -0.61168  -0.60793
 Alpha  occ. eigenvalues --   -0.60783  -0.60444  -0.60429  -0.59731  -0.59561
 Alpha  occ. eigenvalues --   -0.58492  -0.58010  -0.57825  -0.57504  -0.57445
 Alpha  occ. eigenvalues --   -0.57228  -0.56826  -0.56311  -0.56134  -0.55941
 Alpha  occ. eigenvalues --   -0.55696  -0.55518  -0.55272  -0.55098  -0.54950
 Alpha  occ. eigenvalues --   -0.54890  -0.54696  -0.54570  -0.54103  -0.54070
 Alpha  occ. eigenvalues --   -0.53843  -0.53653  -0.53608  -0.53585  -0.53544
 Alpha  occ. eigenvalues --   -0.53340  -0.52803  -0.52752  -0.52645  -0.52474
 Alpha  occ. eigenvalues --   -0.52295  -0.52195  -0.51790  -0.51719  -0.51599
 Alpha  occ. eigenvalues --   -0.51359  -0.51238  -0.51059  -0.50961  -0.50823
 Alpha  occ. eigenvalues --   -0.50809  -0.50238  -0.50235  -0.50084  -0.50059
 Alpha  occ. eigenvalues --   -0.49876  -0.49543  -0.49476  -0.49325  -0.49233
 Alpha  occ. eigenvalues --   -0.49079  -0.48983  -0.48864  -0.48493  -0.48410
 Alpha  occ. eigenvalues --   -0.48386  -0.48328  -0.48138  -0.48079  -0.48075
 Alpha  occ. eigenvalues --   -0.47776  -0.47506  -0.47294  -0.47125  -0.47018
 Alpha  occ. eigenvalues --   -0.46634  -0.46628  -0.46262  -0.46224  -0.46074
 Alpha  occ. eigenvalues --   -0.45897  -0.45860  -0.45820  -0.45643  -0.45640
 Alpha  occ. eigenvalues --   -0.45284  -0.45155  -0.45063  -0.44875  -0.44631
 Alpha  occ. eigenvalues --   -0.44581  -0.44328  -0.44311  -0.44233  -0.44085
 Alpha  occ. eigenvalues --   -0.43815  -0.43669  -0.43557  -0.43405  -0.43292
 Alpha  occ. eigenvalues --   -0.43057  -0.42915  -0.42744  -0.42486  -0.42147
 Alpha  occ. eigenvalues --   -0.42098  -0.41788  -0.41644  -0.41595  -0.41332
 Alpha  occ. eigenvalues --   -0.40727  -0.40314  -0.40115  -0.39737  -0.39658
 Alpha  occ. eigenvalues --   -0.39519  -0.38887  -0.38756  -0.38562  -0.38523
 Alpha  occ. eigenvalues --   -0.38111  -0.38018  -0.37192  -0.36457  -0.36268
 Alpha  occ. eigenvalues --   -0.36217  -0.35916  -0.35399  -0.33985  -0.33379
 Alpha  occ. eigenvalues --   -0.33126  -0.33052  -0.33012  -0.32603  -0.32354
 Alpha  occ. eigenvalues --   -0.32256  -0.32220  -0.32119  -0.26605  -0.25743
 Alpha  occ. eigenvalues --   -0.23479  -0.22929
 Alpha virt. eigenvalues --   -0.07368  -0.06855  -0.00020   0.00200   0.02048
 Alpha virt. eigenvalues --    0.02993   0.04449   0.04832   0.05213   0.05834
 Alpha virt. eigenvalues --    0.06960   0.07328   0.07588   0.08020   0.08376

 Mulliken charges:
               1
     1  Mg   0.953670
     2  C   -0.018534
     3  C   -0.078121
     4  C   -0.102457
     5  C   -0.070833
     6  N   -0.331617
     7  C   -0.062349
     8  C    0.031554
     9  C   -0.153733
    10  C    0.038889
    11  C    0.036049
    12  C    0.038127
    13  C   -0.109488
    14  H    0.041433
    15  N   -0.434421
    16  C    0.181836
    17  C   -0.135634
    18  C   -0.121048
    19  C    0.236291
    20  C    0.062922
    21  C    0.024901
    22  O   -0.229595
    23  C    0.001981
    24  N   -0.396515
    25  C    0.068671
    26  C   -0.119392
    27  C   -0.096967
    28  C    0.094329
    29  C    0.022082
    30  C   -0.030761
    31  C   -0.043140
    32  N   -0.425066
    33  C    0.085875
    34  C   -0.233524
    35  C    0.018397
    36  C    0.142690
    37  C    0.107318
    38  C    0.094409
    39  O   -0.186537
    40  C   -0.073691
    41  C    0.259909
    42  O   -0.213125
    43  O   -0.378361
    44  C    0.124769
    45  H   -0.006396
    46  H   -0.019680
    47  H   -0.006020
    48  H    0.020777
    49  H    0.031378
    50  H    0.043437
    51  H    0.049288
    52  H    0.029114
    53  H    0.029821
    54  H    0.035490
    55  H    0.036435
    56  H    0.039787
    57  H    0.058598
    58  H    0.019598
    59  H    0.074510
    60  H    0.052425
    61  H    0.058014
    62  H    0.078990
    63  H    0.040392
    64  H    0.042189
    65  H    0.035900
    66  H    0.050036
    67  H    0.035376
    68  H    0.033111
    69  H    0.029999
    70  H    0.038263
    71  H    0.042309
    72  H    0.038970
    73  H    0.070630
    74  H    0.005441
    75  H    0.058177
    76  H    0.072896
    77  H    0.057145
    78  H    0.062192
    79  H    0.040215
    80  Mg   0.951082
    81  C   -0.080344
    82  C   -0.065125
    83  C   -0.054648
    84  C   -0.099713
    85  N   -0.357843
    86  C    0.029485
    87  C   -0.079335
    88  C   -0.109906
    89  C    0.090104
    90  C    0.022814
    91  C   -0.013554
    92  C   -0.098906
    93  H    0.035632
    94  N   -0.438975
    95  C    0.108649
    96  C   -0.179462
    97  C   -0.083517
    98  C    0.122376
    99  C    0.062664
   100  C    0.076015
   101  O   -0.249654
   102  C    0.010330
   103  N   -0.332174
   104  C    0.030913
   105  C   -0.062480
   106  C   -0.122972
   107  C    0.110883
   108  C    0.017296
   109  C   -0.023484
   110  C   -0.037695
   111  N   -0.390361
   112  C    0.092724
   113  C   -0.157233
   114  C   -0.058457
   115  C    0.194922
   116  C    0.082440
   117  C    0.129138
   118  O   -0.229520
   119  C   -0.055296
   120  C    0.260407
   121  O   -0.202707
   122  O   -0.416611
   123  C    0.130289
   124  H   -0.007802
   125  H    0.015242
   126  H    0.000064
   127  H    0.042229
   128  H    0.032256
   129  H    0.044438
   130  H    0.033002
   131  H    0.038529
   132  H    0.033235
   133  H    0.032464
   134  H    0.042999
   135  H    0.053473
   136  H    0.042680
   137  H    0.051350
   138  H    0.048386
   139  H    0.054885
   140  H    0.026362
   141  H    0.075597
   142  H    0.037485
   143  H    0.035305
   144  H    0.033693
   145  H    0.050445
   146  H    0.045476
   147  H    0.038397
   148  H    0.020843
   149  H    0.037105
   150  H    0.048334
   151  H    0.024429
   152  H    0.023623
   153  H    0.065362
   154  H    0.063740
   155  H    0.069623
   156  H    0.065962
   157  H    0.053352
   158  H    0.069247
 Sum of Mulliken charges =  -0.00000

 Dipole moment (field-independent basis, Debye):
    X=              0.2550    Y=             -1.9028    Z=             -0.1998  Tot=              1.9302
 Quadrupole moment (field-independent basis, Debye-Ang):
   XX=           -221.2963   YY=           -454.9082   ZZ=           -510.6314
   XY=           -109.4201   XZ=            -47.7634   YZ=             13.3016

 Normal termination of Gaussian 16 at Mon Sep 20 17:14:39 2021.
