 Gaussian 16, Revision A.03,
 Gaussian 16:  ES64L-G16RevA.03 25-Dec-2016

 --------------------------------
 #p wB97XD/Def2SVP td=(nstates=5)
 --------------------------------

 --------------------------------
 TDDFT excited states in gaussian
 --------------------------------
 Symbolic Z-matrix:
 Charge =  0 Multiplicity = 1

                         Standard orientation:
 ---------------------------------------------------------------------
 Center     Atomic      Atomic             Coordinates (Angstroms)
 Number     Number       Type             X           Y           Z
 ---------------------------------------------------------------------
      1         12           0      -28.325877    0.042400   -0.269491
      2          6           0      -25.008353   -0.975344   -0.104046
      3          6           0      -28.846075   -1.966926    2.646594
      4          6           0      -31.354795    1.290814   -0.000420
      5          6           0      -27.389166    2.454473   -2.649028
      6          7           0      -27.032967   -1.203895    1.158949
      7          6           0      -25.714554   -1.522000    0.921516
      8          6           0      -25.185569   -2.436545    2.029691
      9          6           0      -26.503658   -2.925604    2.691273
     10          6           0      -27.539459   -1.958989    2.180316
     11          6           0      -26.973046   -4.410530    2.429659
     12          6           0      -24.240558   -1.716978    3.006005
     13          6           0      -23.562742   -2.582877    3.997939
     14          1           0      -22.235258   -2.031150    4.644837
     15          7           0      -29.917085   -0.272841    1.145345
     16          6           0      -29.941846   -1.148995    2.241630
     17          6           0      -31.233629   -1.049036    2.861636
     18          6           0      -31.943115    0.007749    2.180498
     19          6           0      -31.063317    0.377541    1.018350
     20          6           0      -31.622680   -1.846362    4.137100
     21          6           0      -33.334548    0.482105    2.611651
     22          8           0      -33.981506   -0.105941    3.462332
     23          6           0      -33.913693    1.684792    1.970070
     24          7           0      -29.287542    1.506781   -1.364318
     25          6           0      -30.559795    1.801615   -1.076360
     26          6           0      -31.020273    3.059044   -1.919322
     27          6           0      -29.757471    3.507760   -2.750698
     28          6           0      -28.681830    2.431849   -2.178550
     29          6           0      -32.320665    2.925439   -2.754657
     30          6           0      -29.366514    4.956571   -2.388619
     31          6           0      -28.685096    5.749063   -3.510814
     32          7           0      -26.577593    0.680961   -1.241748
     33          6           0      -26.363161    1.567404   -2.259769
     34          6           0      -24.975616    1.422862   -2.716170
     35          6           0      -24.463524    0.394661   -1.971223
     36          6           0      -25.414129    0.011685   -1.052351
     37          6           0      -24.327439    2.172276   -3.884758
     38          6           0      -23.278211   -0.370496   -1.725868
     39          8           0      -22.195101   -0.377627   -2.257097
     40          6           0      -23.588702   -1.305008   -0.509182
     41          6           0      -23.519301   -2.710779   -0.994399
     42          8           0      -24.052502   -3.170504   -1.965893
     43          8           0      -22.828026   -3.478197   -0.040912
     44          6           0      -22.741203   -4.883372   -0.319998
     45          1           0      -28.926459   -2.678254    3.470657
     46          1           0      -32.329784    1.781222   -0.048052
     47          1           0      -27.080537    3.143224   -3.438380
     48          1           0      -24.731848   -3.285941    1.520840
     49          1           0      -26.565187   -2.809609    3.772771
     50          1           0      -27.157452   -4.806081    3.428250
     51          1           0      -26.448988   -4.983380    1.664135
     52          1           0      -27.967396   -4.342447    1.988616
     53          1           0      -24.712801   -0.995621    3.673440
     54          1           0      -23.490957   -1.155628    2.448146
     55          1           0      -23.357808   -3.528714    3.496447
     56          1           0      -24.268782   -2.827690    4.791270
     57          1           0      -31.549117   -1.015596    4.839619
     58          1           0      -30.881394   -2.558405    4.500422
     59          1           0      -32.573575   -2.366187    4.255511
     60          1           0      -33.123350    2.433060    2.029553
     61          1           0      -34.745572    2.033427    2.582273
     62          1           0      -34.139677    1.346436    0.958560
     63          1           0      -31.257795    3.827605   -1.183253
     64          1           0      -29.846763    3.390271   -3.830195
     65          1           0      -33.102354    3.496846   -2.253090
     66          1           0      -32.534591    1.866430   -2.895138
     67          1           0      -32.196671    3.433038   -3.711228
     68          1           0      -28.706646    4.858349   -1.527004
     69          1           0      -30.187932    5.552874   -1.990878
     70          1           0      -29.335487    6.617195   -3.623139
     71          1           0      -28.527259    5.187853   -4.431894
     72          1           0      -27.718597    6.124829   -3.174766
     73          1           0      -23.323243    2.559141   -3.714664
     74          1           0      -25.054114    2.963502   -4.070678
     75          1           0      -24.457496    1.532775   -4.757955
     76          1           0      -22.818338   -1.102256    0.234913
     77          1           0      -21.700570   -5.080699   -0.577544
     78          1           0      -23.380218   -5.317457   -1.089353
     79          1           0      -23.012633   -5.410998    0.593952
     80         12           0       27.262423    0.646826    0.530635
     81          6           0       27.765164   -2.731428   -0.557601
     82          6           0       24.845036    0.945990   -1.671255
     83          6           0       27.504957    3.903818    1.094205
     84          6           0       30.242292    0.145281    2.627674
     85          7           0       26.383071   -0.763564   -0.909442
     86          6           0       26.741156   -2.087371   -1.233258
     87          6           0       25.858512   -2.724349   -2.372264
     88          6           0       24.859952   -1.438027   -2.636615
     89          6           0       25.345624   -0.339157   -1.696610
     90          6           0       24.899996   -0.943732   -4.146094
     91          6           0       25.149327   -4.076134   -2.012138
     92          6           0       23.995327   -4.481649   -2.921256
     93          1           0       24.251259   -5.747930   -3.758879
     94          7           0       26.229628    2.200043   -0.125325
     95          6           0       25.206848    2.195504   -1.044463
     96          6           0       24.641449    3.512660   -1.247599
     97          6           0       25.447587    4.370325   -0.398967
     98          6           0       26.417054    3.452503    0.298699
     99          6           0       23.483264    3.849900   -2.063232
    100          6           0       25.358396    5.867251   -0.157855
    101          8           0       26.006807    6.455994    0.661085
    102          6           0       24.440931    6.602575   -1.098336
    103          7           0       28.718831    1.868746    1.651313
    104          6           0       28.537950    3.210907    1.734898
    105          6           0       29.582587    3.854262    2.685655
    106          6           0       30.339409    2.601474    3.248929
    107          6           0       29.702887    1.442433    2.506331
    108          6           0       30.559057    4.927301    2.094308
    109          6           0       30.247163    2.376976    4.799514
    110          6           0       31.173673    3.310794    5.609309
    111          7           0       28.732230   -0.884733    0.971960
    112          6           0       29.782057   -0.968473    1.857316
    113          6           0       30.283730   -2.284926    1.849843
    114          6           0       29.612557   -2.994267    0.925774
    115          6           0       28.650638   -2.104643    0.358250
    116          6           0       31.361347   -2.724353    2.832483
    117          6           0       29.446515   -4.251813    0.190052
    118          8           0       30.049763   -5.290768    0.269284
    119          6           0       28.223468   -4.089591   -0.833057
    120          6           0       28.796417   -4.106657   -2.214289
    121          8           0       29.251125   -3.226747   -2.910016
    122          8           0       28.668783   -5.417622   -2.628663
    123          6           0       29.142692   -5.741039   -3.995432
    124          1           0       24.066641    1.157970   -2.407043
    125          1           0       27.625343    4.989533    1.119283
    126          1           0       31.037798    0.134097    3.376362
    127          1           0       26.481351   -2.810794   -3.262754
    128          1           0       23.838022   -1.762986   -2.439875
    129          1           0       23.883710   -0.751514   -4.489713
    130          1           0       25.411079   -1.554095   -4.890164
    131          1           0       25.352959    0.045374   -4.206535
    132          1           0       24.876056   -3.870169   -0.976426
    133          1           0       25.762890   -4.970300   -1.899928
    134          1           0       23.781179   -3.664223   -3.609198
    135          1           0       23.153635   -4.785364   -2.299445
    136          1           0       22.803229    4.174746   -1.275782
    137          1           0       23.143463    2.989065   -2.639282
    138          1           0       23.577718    4.673023   -2.771213
    139          1           0       23.455225    6.693045   -0.642136
    140          1           0       24.587472    6.340705   -2.146617
    141          1           0       24.955984    7.551702   -1.243893
    142          1           0       29.010112    4.169041    3.558682
    143          1           0       31.363095    2.608991    2.873958
    144          1           0       31.624060    4.706684    2.172006
    145          1           0       30.452539    5.795946    2.743704
    146          1           0       30.390457    5.187474    1.049333
    147          1           0       30.545881    1.355699    5.033194
    148          1           0       29.189157    2.497794    5.036288
    149          1           0       31.983817    3.681407    4.980986
    150          1           0       31.519373    2.721369    6.458445
    151          1           0       30.688112    4.217330    5.971824
    152          1           0       31.302840   -3.794953    3.028988
    153          1           0       31.261513   -2.138685    3.746393
    154          1           0       32.347689   -2.438796    2.466179
    155          1           0       27.470449   -4.864564   -0.687992
    156          1           0       29.631243   -6.711680   -3.911051
    157          1           0       29.839460   -5.014345   -4.412935
    158          1           0       28.180804   -5.783709   -4.507305
 ---------------------------------------------------------------------

 SCF Done:  E(RwB97XD) =  -4070.62227125     A.U. after   19 cycles

 Excitation energies and oscillator strengths:

 Excited State   1:      Singlet-A      1.6367 eV  757.54 nm  f=0.3967  <S**2>=0.000
     310 -> 316       -0.18394
     312 -> 314        0.68417
     310 <- 316       -0.11741
 This state for optimization and/or second-order correction.
 Total Energy, E(TD-HF/TD-DFT) =  -4070.56212445
 Copying the excited state density for this state as the 1-particle RhoCI density.

 Excited State   2:      Singlet-A      1.7222 eV  719.90 nm  f=0.3953  <S**2>=0.000
     309 -> 315        0.17624
     311 -> 313        0.68546
     309 <- 315        0.11115

 Excited State   3:      Singlet-A      2.1545 eV  575.47 nm  f=0.1353  <S**2>=0.000
     310 -> 314        0.64887
     312 -> 316        0.26858

 Excited State   4:      Singlet-A      2.2424 eV  552.90 nm  f=0.1148  <S**2>=0.000
     309 -> 313        0.63517
     311 -> 315       -0.29257

 Excited State   5:      Singlet-A      3.2983 eV  375.91 nm  f=0.0028  <S**2>=0.000
     301 -> 313       -0.12803
     306 -> 313       -0.40042
     307 -> 313        0.52979
     311 -> 315        0.11698

 The electronic state is 1-A.
 Alpha  occ. eigenvalues --  -46.96024 -46.94889 -19.30195 -19.29074 -19.25425
 Alpha  occ. eigenvalues --  -19.24834 -19.24157 -19.23958 -19.23777 -19.23548
 Alpha  occ. eigenvalues --  -14.47250 -14.46993 -14.46811 -14.45887 -14.44882
 Alpha  occ. eigenvalues --  -14.44205 -14.43669 -14.43444 -10.43355 -10.42804
 Alpha  occ. eigenvalues --  -10.39290 -10.38879 -10.38712 -10.38136 -10.36470
 Alpha  occ. eigenvalues --  -10.35736 -10.35356 -10.35214 -10.35077 -10.34974
 Alpha  occ. eigenvalues --  -10.34954 -10.34927 -10.34875 -10.34567 -10.34371
 Alpha  occ. eigenvalues --  -10.34228 -10.34129 -10.34099 -10.33813 -10.33344
 Alpha  occ. eigenvalues --  -10.33181 -10.33100 -10.32964 -10.32935 -10.32896
 Alpha  occ. eigenvalues --  -10.32571 -10.32505 -10.32347 -10.32293 -10.32291
 Alpha  occ. eigenvalues --  -10.32265 -10.32258 -10.32035 -10.31966 -10.31923
 Alpha  occ. eigenvalues --  -10.31793 -10.31789 -10.31687 -10.31631 -10.31453
 Alpha  occ. eigenvalues --  -10.31133 -10.31032 -10.30914 -10.30911 -10.30877
 Alpha  occ. eigenvalues --  -10.30848 -10.30840 -10.30836 -10.30775 -10.30730
 Alpha  occ. eigenvalues --  -10.30642 -10.30514 -10.30417 -10.30347 -10.30165
 Alpha  occ. eigenvalues --  -10.30026 -10.30001 -10.29893 -10.29721 -10.29585
 Alpha  occ. eigenvalues --  -10.29580 -10.29469 -10.29451 -10.29372 -10.28739
 Alpha  occ. eigenvalues --  -10.27948  -3.21902  -3.20879  -1.95494  -1.95026
 Alpha  occ. eigenvalues --   -1.94856  -1.94465  -1.93981  -1.93868  -1.18783
 Alpha  occ. eigenvalues --   -1.17845  -1.13573  -1.13036  -1.12548  -1.12397
 Alpha  occ. eigenvalues --   -1.11041  -1.09651  -1.06616  -1.05857  -1.05810
 Alpha  occ. eigenvalues --   -1.05754  -1.05330  -1.04885  -1.04488  -1.03603
 Alpha  occ. eigenvalues --   -0.95238  -0.94990  -0.91306  -0.91200  -0.90818
 Alpha  occ. eigenvalues --   -0.90728  -0.90130  -0.90037  -0.89958  -0.89086
 Alpha  occ. eigenvalues --   -0.88752  -0.88441  -0.87963  -0.87920  -0.87169
 Alpha  occ. eigenvalues --   -0.85937  -0.85811  -0.85106  -0.85073  -0.84543
 Alpha  occ. eigenvalues --   -0.84059  -0.83951  -0.83260  -0.82844  -0.82649
 Alpha  occ. eigenvalues --   -0.82029  -0.80069  -0.79733  -0.79284  -0.79087
 Alpha  occ. eigenvalues --   -0.78874  -0.78557  -0.78150  -0.77513  -0.77461
 Alpha  occ. eigenvalues --   -0.76749  -0.75229  -0.74750  -0.74055  -0.73268
 Alpha  occ. eigenvalues --   -0.71558  -0.71330  -0.71003  -0.70658  -0.69775
 Alpha  occ. eigenvalues --   -0.69715  -0.68955  -0.68780  -0.68010  -0.67575
 Alpha  occ. eigenvalues --   -0.66997  -0.66986  -0.66635  -0.66557  -0.66344
 Alpha  occ. eigenvalues --   -0.65885  -0.64690  -0.63456  -0.62326  -0.62063
 Alpha  occ. eigenvalues --   -0.61894  -0.61456  -0.61313  -0.60809  -0.60796
 Alpha  occ. eigenvalues --   -0.60468  -0.60251  -0.59817  -0.59585  -0.58891
 Alpha  occ. eigenvalues --   -0.58516  -0.58085  -0.57851  -0.57657  -0.57470
 Alpha  occ. eigenvalues --   -0.56977  -0.56851  -0.56364  -0.56337  -0.56188
 Alpha  occ. eigenvalues --   -0.56047  -0.55966  -0.55600  -0.55543  -0.55296
 Alpha  occ. eigenvalues --   -0.55123  -0.54608  -0.54595  -0.54297  -0.53885
 Alpha  occ. eigenvalues --   -0.53869  -0.53677  -0.53632  -0.53549  -0.53275
 Alpha  occ. eigenvalues --   -0.52927  -0.52827  -0.52670  -0.52440  -0.52320
 Alpha  occ. eigenvalues --   -0.52220  -0.52090  -0.51816  -0.51716  -0.51605
 Alpha  occ. eigenvalues --   -0.51407  -0.51263  -0.51054  -0.50987  -0.50847
 Alpha  occ. eigenvalues --   -0.50756  -0.50333  -0.50263  -0.50083  -0.49906
 Alpha  occ. eigenvalues --   -0.49731  -0.49651  -0.49500  -0.49350  -0.49103
 Alpha  occ. eigenvalues --   -0.49007  -0.48956  -0.48667  -0.48435  -0.48354
 Alpha  occ. eigenvalues --   -0.48276  -0.48101  -0.47818  -0.47801  -0.47657
 Alpha  occ. eigenvalues --   -0.47349  -0.47319  -0.47208  -0.47106  -0.47043
 Alpha  occ. eigenvalues --   -0.46954  -0.46773  -0.46659  -0.46644  -0.46100
 Alpha  occ. eigenvalues --   -0.45950  -0.45885  -0.45769  -0.45664  -0.45450
 Alpha  occ. eigenvalues --   -0.45310  -0.45180  -0.45092  -0.44900  -0.44668
 Alpha  occ. eigenvalues --   -0.44657  -0.44469  -0.44354  -0.44258  -0.44109
 Alpha  occ. eigenvalues --   -0.43985  -0.43841  -0.43787  -0.43573  -0.43429
 Alpha  occ. eigenvalues --   -0.43039  -0.42801  -0.42685  -0.42510  -0.42385
 Alpha  occ. eigenvalues --   -0.42173  -0.41815  -0.41619  -0.41214  -0.40752
 Alpha  occ. eigenvalues --   -0.40695  -0.40140  -0.39981  -0.39682  -0.39667
 Alpha  occ. eigenvalues --   -0.38985  -0.38914  -0.38550  -0.38501  -0.38447
 Alpha  occ. eigenvalues --   -0.38044  -0.37726  -0.37218  -0.36558  -0.36292
 Alpha  occ. eigenvalues --   -0.35941  -0.35919  -0.34862  -0.34010  -0.33467
 Alpha  occ. eigenvalues --   -0.33076  -0.32825  -0.32630  -0.32565  -0.32283
 Alpha  occ. eigenvalues --   -0.32280  -0.32144  -0.31915  -0.26630  -0.25492
 Alpha  occ. eigenvalues --   -0.23504  -0.22754
 Alpha virt. eigenvalues --   -0.07393  -0.06883  -0.00044   0.00808   0.02948
 Alpha virt. eigenvalues --    0.02968   0.04735   0.04807   0.05187   0.05664
 Alpha virt. eigenvalues --    0.06933   0.07504   0.07563   0.08150   0.08512

 Mulliken charges:
               1
     1  Mg   0.953630
     2  C   -0.018705
     3  C   -0.078206
     4  C   -0.102405
     5  C   -0.070791
     6  N   -0.331763
     7  C   -0.062223
     8  C    0.031445
     9  C   -0.153771
    10  C    0.038894
    11  C    0.036062
    12  C    0.038149
    13  C   -0.109447
    14  H    0.041385
    15  N   -0.434317
    16  C    0.181831
    17  C   -0.135678
    18  C   -0.120995
    19  C    0.236215
    20  C    0.062923
    21  C    0.024941
    22  O   -0.229562
    23  C    0.001880
    24  N   -0.396600
    25  C    0.068801
    26  C   -0.119368
    27  C   -0.097008
    28  C    0.094295
    29  C    0.022079
    30  C   -0.030771
    31  C   -0.043151
    32  N   -0.424888
    33  C    0.086046
    34  C   -0.233676
    35  C    0.018437
    36  C    0.142617
    37  C    0.107337
    38  C    0.094405
    39  O   -0.186582
    40  C   -0.073811
    41  C    0.260137
    42  O   -0.213111
    43  O   -0.378447
    44  C    0.124738
    45  H   -0.006366
    46  H   -0.019660
    47  H   -0.006032
    48  H    0.020872
    49  H    0.031387
    50  H    0.043444
    51  H    0.049283
    52  H    0.029125
    53  H    0.029827
    54  H    0.035457
    55  H    0.036416
    56  H    0.039800
    57  H    0.058603
    58  H    0.019618
    59  H    0.074541
    60  H    0.052434
    61  H    0.058048
    62  H    0.079010
    63  H    0.040404
    64  H    0.042196
    65  H    0.035909
    66  H    0.050043
    67  H    0.035386
    68  H    0.033113
    69  H    0.030011
    70  H    0.038281
    71  H    0.042314
    72  H    0.038951
    73  H    0.070597
    74  H    0.005423
    75  H    0.058176
    76  H    0.072861
    77  H    0.057115
    78  H    0.062230
    79  H    0.040216
    80  Mg   0.976968
    81  C   -0.038862
    82  C   -0.071980
    83  C   -0.068436
    84  C   -0.096315
    85  N   -0.383043
    86  C   -0.009837
    87  C   -0.026901
    88  C   -0.121287
    89  C    0.109360
    90  C   -0.013744
    91  C   -0.019465
    92  C   -0.123115
    93  H    0.029483
    94  N   -0.491537
    95  C    0.111800
    96  C   -0.136112
    97  C   -0.128098
    98  C    0.164495
    99  C    0.081536
   100  C    0.041203
   101  O   -0.208223
   102  C   -0.027529
   103  N   -0.338805
   104  C    0.031381
   105  C   -0.031742
   106  C   -0.109804
   107  C    0.026698
   108  C    0.019862
   109  C   -0.035751
   110  C   -0.029314
   111  N   -0.401426
   112  C    0.165436
   113  C   -0.241965
   114  C    0.013962
   115  C    0.138311
   116  C    0.096182
   117  C    0.119941
   118  O   -0.173082
   119  C   -0.118019
   120  C    0.285005
   121  O   -0.233249
   122  O   -0.386707
   123  C    0.128182
   124  H   -0.028666
   125  H    0.025135
   126  H    0.001800
   127  H    0.050885
   128  H    0.047798
   129  H    0.031123
   130  H    0.050480
   131  H    0.042788
   132  H    0.033699
   133  H    0.059793
   134  H    0.061117
   135  H    0.063952
   136  H    0.057857
   137  H    0.039881
   138  H    0.047115
   139  H    0.079765
   140  H    0.047392
   141  H    0.039934
   142  H    0.038797
   143  H    0.032540
   144  H    0.032675
   145  H    0.039117
   146  H    0.051686
   147  H    0.028454
   148  H    0.032739
   149  H    0.031894
   150  H    0.042762
   151  H    0.037471
   152  H    0.058693
   153  H    0.027654
   154  H    0.045772
   155  H    0.080995
   156  H    0.063686
   157  H    0.072768
   158  H    0.054991
 Sum of Mulliken charges =  -0.00000

 Dipole moment (field-independent basis, Debye):
    X=             -6.0999    Y=              2.2273    Z=             -0.0490  Tot=              6.4940
 Quadrupole moment (field-independent basis, Debye-Ang):
   XX=           -559.6778   YY=           -498.9912   ZZ=           -491.9193
   XY=              8.1025   XZ=              8.7136   YZ=            -14.5174

 Normal termination of Gaussian 16 at Mon Sep 20 16:52:31 2021.
