 Gaussian 16, Revision A.03,
 Gaussian 16:  ES64L-G16RevA.03 25-Dec-2016

 --------------------------------
 #p wB97XD/Def2SVP td=(nstates=5)
 --------------------------------

 --------------------------------
 TDDFT excited states in gaussian
 --------------------------------
 Symbolic Z-matrix:
 Charge =  0 Multiplicity = 1

                         Standard orientation:
 ---------------------------------------------------------------------
 Center     Atomic      Atomic             Coordinates (Angstroms)
 Number     Number       Type             X           Y           Z
 ---------------------------------------------------------------------
      1         12           0      -21.157801   -0.458206   -0.024576
      2          6           0      -20.235889    2.708016   -1.175273
      3          6           0      -20.325374    0.664894    3.191033
      4          6           0      -21.463747   -3.573141    1.159720
      5          6           0      -20.915963   -1.633257   -3.250110
      6          7           0      -20.450989    1.545171    0.963511
      7          6           0      -20.108456    2.622433    0.208126
      8          6           0      -19.574098    3.794049    1.123871
      9          6           0      -19.373576    3.007054    2.515829
     10          6           0      -20.034556    1.648387    2.228865
     11          6           0      -17.832922    2.765330    2.697369
     12          6           0      -20.724367    4.860696    1.238721
     13          6           0      -20.495196    6.058505    2.200255
     14          1           0      -21.442557    6.666989    3.191016
     15          7           0      -21.118719   -1.252432    1.910131
     16          6           0      -20.798078   -0.650297    3.138265
     17          6           0      -20.888221   -1.633125    4.134681
     18          6           0      -21.395648   -2.810623    3.601893
     19          6           0      -21.352588   -2.577471    2.167753
     20          6           0      -20.649076   -1.275910    5.565135
     21          6           0      -21.757756   -4.171201    4.283721
     22          8           0      -22.217778   -5.146997    3.700504
     23          6           0      -21.769750   -4.339782    5.805488
     24          7           0      -21.064517   -2.322686   -0.928980
     25          6           0      -21.366951   -3.440850   -0.232213
     26          6           0      -21.609140   -4.676438   -1.121053
     27          6           0      -21.295377   -4.086946   -2.524199
     28          6           0      -21.195786   -2.592194   -2.278040
     29          6           0      -20.855627   -5.967728   -0.659093
     30          6           0      -22.255877   -4.464888   -3.684970
     31          6           0      -23.564278   -3.795344   -3.698435
     32          7           0      -20.774377    0.336751   -1.877144
     33          6           0      -20.710817   -0.224411   -3.062323
     34          6           0      -20.522789    0.764795   -4.128508
     35          6           0      -20.337006    1.961165   -3.364657
     36          6           0      -20.457690    1.652909   -2.023742
     37          6           0      -20.871273    0.672612   -5.540293
     38          6           0      -20.103766    3.387687   -3.506977
     39          8           0      -20.055472    4.084963   -4.494871
     40          6           0      -19.960773    3.886852   -2.064060
     41          6           0      -18.617581    4.588042   -1.835840
     42          8           0      -17.572075    4.015161   -1.670706
     43          8           0      -18.793616    5.948105   -1.926844
     44          6           0      -17.535720    6.698636   -1.707791
     45          1           0      -20.189022    1.063018    4.197834
     46          1           0      -21.777512   -4.561539    1.502641
     47          1           0      -21.034159   -2.223933   -4.160190
     48          1           0      -18.611860    4.181584    0.788217
     49          1           0      -19.781434    3.517236    3.389340
     50          1           0      -17.475606    1.750309    2.526688
     51          1           0      -17.542677    2.812775    3.747232
     52          1           0      -17.207656    3.427062    2.098334
     53          1           0      -21.632299    4.325939    1.516325
     54          1           0      -20.927024    5.216497    0.228192
     55          1           0      -20.097701    6.838321    1.549988
     56          1           0      -19.711058    5.649738    2.836346
     57          1           0      -20.343858   -0.245721    5.750524
     58          1           0      -20.005693   -2.043766    5.996912
     59          1           0      -21.634851   -1.375232    6.020372
     60          1           0      -20.781710   -4.280385    6.262072
     61          1           0      -22.309827   -5.217107    6.161821
     62          1           0      -22.393701   -3.535051    6.194778
     63          1           0      -22.676992   -4.775832   -0.928347
     64          1           0      -20.284472   -4.435819   -2.735067
     65          1           0      -20.711235   -5.970069    0.420792
     66          1           0      -19.874637   -5.999305   -1.133912
     67          1           0      -21.406346   -6.881294   -0.884116
     68          1           0      -22.380494   -5.534263   -3.517579
     69          1           0      -21.734738   -4.371122   -4.637911
     70          1           0      -23.466929   -2.818792   -4.172481
     71          1           0      -23.984948   -3.735306   -2.694865
     72          1           0      -24.282075   -4.317703   -4.331596
     73          1           0      -21.655117   -0.084021   -5.582180
     74          1           0      -20.141277    0.294125   -6.255977
     75          1           0      -21.196266    1.667389   -5.843246
     76          1           0      -20.780102    4.580405   -1.872045
     77          1           0      -17.548626    7.582415   -2.345376
     78          1           0      -16.623812    6.223944   -2.070613
     79          1           0      -17.464084    7.048531   -0.678477
     80         12           0       20.064198   -0.637404   -0.083121
     81          6           0       22.155978    2.060129   -0.371809
     82          6           0       17.948032    1.182698    1.763075
     83          6           0       18.237863   -3.442937    0.312654
     84          6           0       22.639606   -2.679236   -1.637943
     85          7           0       20.217939    1.369794    0.843919
     86          6           0       21.083728    2.332536    0.504660
     87          6           0       20.681026    3.732201    1.200692
     88          6           0       19.305503    3.324737    1.849454
     89          6           0       19.125080    1.830454    1.514255
     90          6           0       19.191736    3.691218    3.342002
     91          6           0       20.572017    4.920656    0.203694
     92          6           0       19.850266    6.223682    0.679206
     93          1           0       20.749342    7.457702    1.069270
     94          7           0       18.337868   -1.082613    0.954441
     95          6           0       17.565603   -0.202944    1.557565
     96          6           0       16.383876   -0.888521    2.058256
     97          6           0       16.465442   -2.281257    1.756746
     98          6           0       17.717424   -2.319940    0.969469
     99          6           0       15.304323   -0.265432    2.927724
    100          6           0       15.561796   -3.442166    2.158978
    101          8           0       15.941480   -4.605084    2.056554
    102          6           0       14.202618   -3.141413    2.686535
    103          7           0       20.424440   -2.775119   -0.557197
    104          6           0       19.497078   -3.698368   -0.332633
    105          6           0       19.863997   -5.051621   -0.963962
    106          6           0       21.133684   -4.677266   -1.724132
    107          6           0       21.425494   -3.304644   -1.244038
    108          6           0       20.010236   -6.265466   -0.034308
    109          6           0       21.070853   -4.956700   -3.204443
    110          6           0       22.086350   -6.021473   -3.753126
    111          7           0       21.930415   -0.398038   -0.882798
    112          6           0       22.840840   -1.278403   -1.558126
    113          6           0       23.977713   -0.553220   -2.081276
    114          6           0       23.689340    0.762518   -1.623371
    115          6           0       22.479909    0.786051   -0.917469
    116          6           0       25.077112   -0.964886   -2.995692
    117          6           0       24.167914    2.106873   -1.824847
    118          8           0       25.025314    2.618977   -2.560012
    119          6           0       23.329102    3.011767   -0.957425
    120          6           0       24.190415    3.476656    0.237524
    121          8           0       24.969362    2.794090    0.920438
    122          8           0       23.940824    4.802694    0.432131
    123          6           0       24.692241    5.499983    1.523509
    124          1           0       17.123878    1.692668    2.266243
    125          1           0       17.821863   -4.421951    0.559508
    126          1           0       23.302046   -3.327088   -2.214821
    127          1           0       21.452227    3.874975    1.956767
    128          1           0       18.519494    3.841774    1.299079
    129          1           0       18.194492    4.104100    3.490154
    130          1           0       19.897762    4.471890    3.625370
    131          1           0       19.342463    2.813753    3.970958
    132          1           0       19.899759    4.570210   -0.579460
    133          1           0       21.565984    5.220484   -0.128127
    134          1           0       19.361932    5.984852    1.624536
    135          1           0       19.185155    6.562618   -0.114308
    136          1           0       15.501322    0.790904    3.110471
    137          1           0       15.265956   -0.780532    3.887261
    138          1           0       14.317454   -0.353611    2.475170
    139          1           0       13.770614   -2.438934    1.973246
    140          1           0       14.029932   -2.708003    3.671174
    141          1           0       13.568388   -4.025132    2.747624
    142          1           0       19.078999   -5.305031   -1.675649
    143          1           0       21.931475   -5.319594   -1.351667
    144          1           0       19.568146   -7.084459   -0.601138
    145          1           0       19.548052   -6.066852    0.932556
    146          1           0       21.034156   -6.474079    0.275646
    147          1           0       21.383669   -4.015356   -3.655118
    148          1           0       20.087297   -5.276039   -3.547823
    149          1           0       22.718569   -6.385378   -2.942767
    150          1           0       22.723973   -5.514284   -4.477862
    151          1           0       21.644624   -6.841842   -4.318969
    152          1           0       24.877562   -1.957216   -3.399259
    153          1           0       25.947062   -1.094644   -2.352947
    154          1           0       25.103212   -0.190674   -3.763874
    155          1           0       23.064280    3.839583   -1.615490
    156          1           0       24.723818    4.970944    2.476304
    157          1           0       24.370864    6.524618    1.707494
    158          1           0       25.730108    5.517516    1.191341
 ---------------------------------------------------------------------

 SCF Done:  E(RwB97XD) =  -4070.62623675     A.U. after   19 cycles

 Excitation energies and oscillator strengths:

 Excited State   1:      Singlet-A      1.6636 eV  745.28 nm  f=0.3981  <S**2>=0.000
     309 -> 315        0.18173
     312 -> 313        0.68161
     309 <- 315        0.11252
 This state for optimization and/or second-order correction.
 Total Energy, E(TD-HF/TD-DFT) =  -4070.56510112
 Copying the excited state density for this state as the 1-particle RhoCI density.

 Excited State   2:      Singlet-A      1.6939 eV  731.93 nm  f=0.3918  <S**2>=0.000
     310 -> 316       -0.19054
     311 -> 314        0.68140
     310 <- 316       -0.11527

 Excited State   3:      Singlet-A      2.2137 eV  560.07 nm  f=0.1098  <S**2>=0.000
     310 -> 314        0.64258
     311 -> 316        0.27811

 Excited State   4:      Singlet-A      2.2222 eV  557.94 nm  f=0.1119  <S**2>=0.000
     309 -> 313        0.63688
     312 -> 315       -0.28920

 Excited State   5:      Singlet-A      3.4332 eV  361.13 nm  f=0.0042  <S**2>=0.000
     306 -> 313       -0.28731
     306 -> 318        0.17386
     306 -> 320        0.20720
     307 -> 313        0.51248
     307 -> 318       -0.16052
     307 -> 320       -0.14541

 The electronic state is 1-A.
 Alpha  occ. eigenvalues --  -46.95534 -46.95086 -19.31055 -19.30830 -19.25378
 Alpha  occ. eigenvalues --  -19.24574 -19.24529 -19.24388 -19.23885 -19.22735
 Alpha  occ. eigenvalues --  -14.46888 -14.46658 -14.46263 -14.45652 -14.44681
 Alpha  occ. eigenvalues --  -14.43873 -14.43817 -14.43726 -10.43672 -10.43405
 Alpha  occ. eigenvalues --  -10.40230 -10.40075 -10.38523 -10.37347 -10.35918
 Alpha  occ. eigenvalues --  -10.35719 -10.35600 -10.35162 -10.34997 -10.34716
 Alpha  occ. eigenvalues --  -10.34601 -10.34494 -10.34482 -10.34430 -10.34345
 Alpha  occ. eigenvalues --  -10.34022 -10.33975 -10.33975 -10.33773 -10.33604
 Alpha  occ. eigenvalues --  -10.33338 -10.32791 -10.32786 -10.32730 -10.32707
 Alpha  occ. eigenvalues --  -10.32682 -10.32606 -10.32429 -10.32180 -10.32152
 Alpha  occ. eigenvalues --  -10.32122 -10.32036 -10.31802 -10.31762 -10.31721
 Alpha  occ. eigenvalues --  -10.31685 -10.31660 -10.31601 -10.31572 -10.31558
 Alpha  occ. eigenvalues --  -10.31408 -10.31186 -10.31045 -10.31044 -10.30968
 Alpha  occ. eigenvalues --  -10.30942 -10.30719 -10.30709 -10.30604 -10.30404
 Alpha  occ. eigenvalues --  -10.30285 -10.30239 -10.30182 -10.30129 -10.30113
 Alpha  occ. eigenvalues --  -10.30036 -10.30010 -10.29905 -10.29747 -10.29535
 Alpha  occ. eigenvalues --  -10.29504 -10.29358 -10.29138 -10.28961 -10.28427
 Alpha  occ. eigenvalues --  -10.28339  -3.21500  -3.21092  -1.95081  -1.94666
 Alpha  occ. eigenvalues --   -1.94615  -1.94485  -1.94230  -1.94049  -1.19031
 Alpha  occ. eigenvalues --   -1.17718  -1.12684  -1.12612  -1.12543  -1.11005
 Alpha  occ. eigenvalues --   -1.10182  -1.08717  -1.07727  -1.06996  -1.06404
 Alpha  occ. eigenvalues --   -1.05902  -1.05835  -1.05392  -1.04980  -1.04538
 Alpha  occ. eigenvalues --   -0.95832  -0.93234  -0.91773  -0.91316  -0.90582
 Alpha  occ. eigenvalues --   -0.90548  -0.90130  -0.90096  -0.89495  -0.89495
 Alpha  occ. eigenvalues --   -0.89170  -0.89078  -0.88944  -0.88146  -0.86102
 Alpha  occ. eigenvalues --   -0.86016  -0.85549  -0.85216  -0.84337  -0.84282
 Alpha  occ. eigenvalues --   -0.84056  -0.83502  -0.83028  -0.82893  -0.82404
 Alpha  occ. eigenvalues --   -0.81998  -0.80537  -0.80490  -0.79554  -0.79469
 Alpha  occ. eigenvalues --   -0.78663  -0.78548  -0.78084  -0.78008  -0.77281
 Alpha  occ. eigenvalues --   -0.76842  -0.74626  -0.74487  -0.73795  -0.73658
 Alpha  occ. eigenvalues --   -0.71988  -0.71358  -0.71166  -0.71057  -0.70351
 Alpha  occ. eigenvalues --   -0.69692  -0.69573  -0.69062  -0.67768  -0.67373
 Alpha  occ. eigenvalues --   -0.66888  -0.66815  -0.66445  -0.66409  -0.66006
 Alpha  occ. eigenvalues --   -0.65899  -0.64614  -0.64517  -0.62727  -0.62136
 Alpha  occ. eigenvalues --   -0.61615  -0.61485  -0.61366  -0.60864  -0.60612
 Alpha  occ. eigenvalues --   -0.60599  -0.60278  -0.59975  -0.59377  -0.59362
 Alpha  occ. eigenvalues --   -0.58510  -0.58305  -0.57637  -0.57636  -0.57501
 Alpha  occ. eigenvalues --   -0.57260  -0.57075  -0.56595  -0.56459  -0.56056
 Alpha  occ. eigenvalues --   -0.55971  -0.55677  -0.55341  -0.55259  -0.55105
 Alpha  occ. eigenvalues --   -0.54734  -0.54628  -0.54541  -0.54476  -0.54109
 Alpha  occ. eigenvalues --   -0.54064  -0.53618  -0.53119  -0.53098  -0.53041
 Alpha  occ. eigenvalues --   -0.52952  -0.52641  -0.52537  -0.52446  -0.52304
 Alpha  occ. eigenvalues --   -0.51901  -0.51856  -0.51728  -0.51640  -0.51594
 Alpha  occ. eigenvalues --   -0.51402  -0.51269  -0.51199  -0.50990  -0.50934
 Alpha  occ. eigenvalues --   -0.50876  -0.50774  -0.50490  -0.50475  -0.50120
 Alpha  occ. eigenvalues --   -0.49879  -0.49752  -0.49614  -0.49470  -0.49232
 Alpha  occ. eigenvalues --   -0.49084  -0.48727  -0.48646  -0.48317  -0.48102
 Alpha  occ. eigenvalues --   -0.48068  -0.47936  -0.47873  -0.47673  -0.47307
 Alpha  occ. eigenvalues --   -0.47023  -0.46944  -0.46904  -0.46670  -0.46669
 Alpha  occ. eigenvalues --   -0.46430  -0.46383  -0.46321  -0.46157  -0.46057
 Alpha  occ. eigenvalues --   -0.46018  -0.45927  -0.45796  -0.45768  -0.45650
 Alpha  occ. eigenvalues --   -0.45529  -0.45297  -0.45210  -0.44867  -0.44835
 Alpha  occ. eigenvalues --   -0.44709  -0.44557  -0.44458  -0.44343  -0.44170
 Alpha  occ. eigenvalues --   -0.43969  -0.43888  -0.43841  -0.43751  -0.43653
 Alpha  occ. eigenvalues --   -0.43446  -0.43096  -0.42716  -0.42661  -0.42342
 Alpha  occ. eigenvalues --   -0.42189  -0.41537  -0.41181  -0.40983  -0.40760
 Alpha  occ. eigenvalues --   -0.40430  -0.40176  -0.39852  -0.39778  -0.39706
 Alpha  occ. eigenvalues --   -0.39357  -0.39173  -0.38850  -0.38678  -0.38304
 Alpha  occ. eigenvalues --   -0.38202  -0.37879  -0.36940  -0.36289  -0.36264
 Alpha  occ. eigenvalues --   -0.35988  -0.35564  -0.35440  -0.33919  -0.33652
 Alpha  occ. eigenvalues --   -0.33326  -0.33134  -0.32809  -0.32785  -0.32292
 Alpha  occ. eigenvalues --   -0.31949  -0.31811  -0.31363  -0.25833  -0.25762
 Alpha  occ. eigenvalues --   -0.22923  -0.22914
 Alpha virt. eigenvalues --   -0.06897  -0.06759   0.00158   0.00564   0.02453
 Alpha virt. eigenvalues --    0.02630   0.04319   0.04618   0.05076   0.05360
 Alpha virt. eigenvalues --    0.07316   0.07483   0.07833   0.08035   0.08812

 Mulliken charges:
               1
     1  Mg   0.973380
     2  C   -0.006736
     3  C   -0.074239
     4  C   -0.111381
     5  C   -0.060576
     6  N   -0.281957
     7  C   -0.051534
     8  C   -0.080960
     9  C   -0.121326
    10  C    0.037974
    11  C    0.009332
    12  C   -0.013306
    13  C   -0.096438
    14  H    0.058602
    15  N   -0.474650
    16  C    0.176582
    17  C   -0.164601
    18  C   -0.081250
    19  C    0.151033
    20  C    0.071211
    21  C    0.085493
    22  O   -0.233772
    23  C   -0.021588
    24  N   -0.406342
    25  C    0.076007
    26  C   -0.112141
    27  C   -0.035746
    28  C   -0.010146
    29  C    0.035602
    30  C   -0.020895
    31  C   -0.015395
    32  N   -0.411333
    33  C    0.152276
    34  C   -0.157190
    35  C   -0.070580
    36  C    0.151193
    37  C    0.070541
    38  C    0.116285
    39  O   -0.187644
    40  C   -0.074638
    41  C    0.263652
    42  O   -0.227649
    43  O   -0.360602
    44  C    0.124849
    45  H   -0.012637
    46  H    0.022433
    47  H   -0.019450
    48  H    0.047383
    49  H    0.048744
    50  H    0.042510
    51  H    0.025825
    52  H    0.050499
    53  H    0.035493
    54  H    0.032137
    55  H    0.051106
    56  H    0.036210
    57  H    0.044478
    58  H    0.048661
    59  H    0.050236
    60  H    0.058367
    61  H    0.054813
    62  H    0.041301
    63  H    0.041072
    64  H    0.042827
    65  H    0.049043
    66  H    0.031754
    67  H    0.040114
    68  H    0.022798
    69  H    0.034924
    70  H    0.032043
    71  H    0.032809
    72  H    0.035461
    73  H    0.029589
    74  H    0.041837
    75  H    0.063984
    76  H    0.079204
    77  H    0.049948
    78  H    0.069038
    79  H    0.056049
    80  Mg   0.970498
    81  C   -0.074851
    82  C   -0.078803
    83  C   -0.049388
    84  C   -0.066322
    85  N   -0.355616
    86  C   -0.025963
    87  C   -0.008937
    88  C   -0.153539
    89  C    0.120032
    90  C    0.024363
    91  C   -0.009601
    92  C   -0.131344
    93  H    0.015003
    94  N   -0.438366
    95  C    0.116638
    96  C   -0.187138
    97  C   -0.059063
    98  C    0.130861
    99  C    0.069861
   100  C    0.087673
   101  O   -0.227307
   102  C   -0.033323
   103  N   -0.274228
   104  C   -0.007354
   105  C   -0.114767
   106  C   -0.055409
   107  C    0.009682
   108  C    0.036091
   109  C    0.000421
   110  C   -0.068115
   111  N   -0.456830
   112  C    0.123356
   113  C   -0.170401
   114  C   -0.077033
   115  C    0.206167
   116  C    0.109151
   117  C    0.102777
   118  O   -0.239411
   119  C   -0.055868
   120  C    0.293752
   121  O   -0.266040
   122  O   -0.365237
   123  C    0.138540
   124  H   -0.019852
   125  H    0.029513
   126  H    0.004089
   127  H    0.040449
   128  H    0.037111
   129  H    0.033998
   130  H    0.041459
   131  H    0.049643
   132  H    0.031944
   133  H    0.073473
   134  H    0.048325
   135  H    0.065661
   136  H    0.031715
   137  H    0.051400
   138  H    0.041162
   139  H    0.048800
   140  H    0.063173
   141  H    0.052457
   142  H    0.038887
   143  H    0.021324
   144  H    0.046538
   145  H    0.044278
   146  H    0.029763
   147  H    0.030515
   148  H    0.036940
   149  H    0.033078
   150  H    0.033441
   151  H    0.041984
   152  H    0.019336
   153  H    0.065410
   154  H    0.081090
   155  H    0.069664
   156  H    0.058561
   157  H    0.063586
   158  H    0.056475
 Sum of Mulliken charges =  -0.00000

 Dipole moment (field-independent basis, Debye):
    X=             -5.7288    Y=             -0.0496    Z=              4.9276  Tot=              7.5566
 Quadrupole moment (field-independent basis, Debye-Ang):
   XX=           -700.8113   YY=           -491.6217   ZZ=           -493.7485
   XY=             -1.7568   XZ=            -58.4122   YZ=             55.5299

 Normal termination of Gaussian 16 at Sat Sep 18 17:30:21 2021.
