 Gaussian 16, Revision A.03,
 Gaussian 16:  ES64L-G16RevA.03 25-Dec-2016

 --------------------------------
 #p wB97XD/Def2SVP td=(nstates=5)
 --------------------------------

 --------------------------------
 TDDFT excited states in gaussian
 --------------------------------
 Symbolic Z-matrix:
 Charge =  0 Multiplicity = 1

                         Standard orientation:
 ---------------------------------------------------------------------
 Center     Atomic      Atomic             Coordinates (Angstroms)
 Number     Number       Type             X           Y           Z
 ---------------------------------------------------------------------
      1         12           0       25.254647   -0.123545    0.107767
      2          6           0       22.081446   -1.305835   -0.209705
      3          6           0       25.734605   -0.716024   -3.345796
      4          6           0       27.857700    1.966534    0.207155
      5          6           0       24.495794    0.943677    3.473446
      6          7           0       24.044567   -0.932272   -1.508784
      7          6           0       22.820065   -1.342871   -1.481886
      8          6           0       22.388748   -2.097150   -2.789617
      9          6           0       23.694531   -2.143817   -3.671051
     10          6           0       24.620139   -1.227133   -2.799156
     11          6           0       24.182204   -3.531047   -4.091294
     12          6           0       21.075803   -1.410111   -3.497474
     13          6           0       20.768323    0.049289   -3.203590
     14          1           0       19.863672    0.856067   -4.135033
     15          7           0       26.597992    0.533683   -1.379442
     16          6           0       26.683707    0.140432   -2.693366
     17          6           0       27.726393    0.827149   -3.323140
     18          6           0       28.363579    1.666215   -2.329454
     19          6           0       27.581537    1.447724   -1.084095
     20          6           0       28.129931    0.493750   -4.747714
     21          6           0       29.575822    2.572169   -2.611467
     22          8           0       30.036170    2.583916   -3.775228
     23          6           0       30.231696    3.415003   -1.653914
     24          7           0       26.001631    1.427613    1.624123
     25          6           0       27.178731    1.945356    1.415250
     26          6           0       27.746775    2.686576    2.658911
     27          6           0       26.697781    2.319190    3.731113
     28          6           0       25.612955    1.472812    2.950061
     29          6           0       29.111903    2.259617    3.062444
     30          6           0       26.098051    3.601503    4.479082
     31          6           0       26.499160    3.772060    6.001950
     32          7           0       23.707999   -0.234498    1.466191
     33          6           0       23.517785    0.187817    2.787881
     34          6           0       22.167292   -0.266657    3.243954
     35          6           0       21.595620   -0.802402    2.081169
     36          6           0       22.541676   -0.737385    1.015505
     37          6           0       21.545238   -0.130874    4.547307
     38          6           0       20.393603   -1.332988    1.625214
     39          8           0       19.308646   -1.590413    2.167099
     40          6           0       20.670583   -1.770176    0.158709
     41          6           0       20.364226   -3.282231    0.041601
     42          8           0       19.620532   -3.829633   -0.754525
     43          8           0       21.052670   -4.026501    0.975093
     44          6           0       20.819864   -5.475513    0.995479
     45          1           0       25.768357   -0.891947   -4.422853
     46          1           0       28.782165    2.530591    0.345898
     47          1           0       24.346487    1.120281    4.540570
     48          1           0       22.234702   -3.137369   -2.501473
     49          1           0       23.588610   -1.571379   -4.593094
     50          1           0       25.144224   -3.738380   -3.623050
     51          1           0       24.333362   -3.606150   -5.168769
     52          1           0       23.496578   -4.354422   -3.890913
     53          1           0       20.288584   -2.100107   -3.192758
     54          1           0       21.104744   -1.365225   -4.586377
     55          1           0       21.757894    0.504778   -3.177137
     56          1           0       20.393096    0.059271   -2.180101
     57          1           0       29.154195    0.189515   -4.964745
     58          1           0       27.835343    1.320902   -5.394001
     59          1           0       27.518234   -0.335743   -5.101969
     60          1           0       30.693935    2.939401   -0.789088
     61          1           0       29.505157    4.050620   -1.148718
     62          1           0       30.924811    4.127525   -2.100046
     63          1           0       27.867202    3.768824    2.612350
     64          1           0       27.064786    1.600529    4.463970
     65          1           0       29.907744    2.960744    2.811614
     66          1           0       29.436629    1.402322    2.471699
     67          1           0       29.140907    2.055110    4.132570
     68          1           0       25.012780    3.495231    4.508040
     69          1           0       26.413062    4.556002    4.059592
     70          1           0       26.798167    4.802935    6.187470
     71          1           0       27.407232    3.194113    6.174137
     72          1           0       25.581473    3.571929    6.555341
     73          1           0       22.379912   -0.164009    5.247929
     74          1           0       20.873798   -0.967875    4.742202
     75          1           0       20.946687    0.778613    4.504927
     76          1           0       19.899869   -1.444320   -0.539422
     77          1           0       21.058203   -5.846107    1.992633
     78          1           0       21.423361   -6.103205    0.340016
     79          1           0       19.813437   -5.764132    0.690902
     80         12           0      -25.047519    0.573308    0.144435
     81          6           0      -22.270701   -1.433523    0.720958
     82          6           0      -26.996986   -2.233619    0.450843
     83          6           0      -27.789520    2.499088   -0.684842
     84          6           0      -22.990685    3.255075   -0.708875
     85          7           0      -24.659702   -1.555707    0.636479
     86          6           0      -23.486853   -2.137067    0.940907
     87          6           0      -23.595677   -3.596288    1.441369
     88          6           0      -25.117828   -3.913679    1.115506
     89          6           0      -25.664819   -2.479221    0.652461
     90          6           0      -25.183673   -5.040408    0.023665
     91          6           0      -23.232913   -3.584935    3.014431
     92          6           0      -22.114371   -4.564211    3.477554
     93          1           0      -21.859865   -5.759043    2.488947
     94          7           0      -27.096458    0.223521   -0.165641
     95          6           0      -27.712320   -1.016100    0.104085
     96          6           0      -29.148293   -0.838689    0.066257
     97          6           0      -29.399377    0.488211   -0.305246
     98          6           0      -28.058373    1.181522   -0.329703
     99          6           0      -30.099874   -2.043238    0.093330
    100          6           0      -30.769452    1.157916   -0.592097
    101          8           0      -30.931162    2.349787   -0.914434
    102          6           0      -32.043098    0.317997   -0.394626
    103          7           0      -25.289974    2.572784   -0.666918
    104          6           0      -26.589644    3.133137   -0.857935
    105          6           0      -26.483267    4.516911   -1.532227
    106          6           0      -24.942042    4.852608   -1.265938
    107          6           0      -24.370108    3.485283   -0.807984
    108          6           0      -26.949874    4.415162   -2.975023
    109          6           0      -24.772612    5.938883   -0.121670
    110          6           0      -25.407777    5.853629    1.307976
    111          7           0      -23.072873    0.871887   -0.057333
    112          6           0      -22.346450    2.007420   -0.428822
    113          6           0      -20.952404    1.709478   -0.365549
    114          6           0      -20.865162    0.414444    0.112512
    115          6           0      -22.177642   -0.112899    0.194045
    116          6           0      -19.800718    2.598150   -0.788923
    117          6           0      -19.956315   -0.593313    0.492053
    118          8           0      -18.770571   -0.565241    0.398721
    119          6           0      -20.841289   -1.873857    0.789502
    120          6           0      -20.499696   -2.871847   -0.282187
    121          8           0      -21.226734   -3.140878   -1.215531
    122          8           0      -19.274362   -3.340328   -0.017417
    123          6           0      -18.644007   -3.945191   -1.165205
    124          1           0      -27.633512   -3.103147    0.626141
    125          1           0      -28.623307    3.012034   -1.167347
    126          1           0      -22.332222    4.082187   -0.984216
    127          1           0      -22.914461   -4.301333    0.965356
    128          1           0      -25.717239   -4.215196    1.974822
    129          1           0      -25.914600   -4.875003   -0.768201
    130          1           0      -25.456127   -5.875797    0.668020
    131          1           0      -24.161051   -5.210484   -0.312267
    132          1           0      -24.170156   -3.695347    3.559451
    133          1           0      -22.905834   -2.571786    3.249486
    134          1           0      -22.521013   -4.903671    4.429570
    135          1           0      -21.145907   -4.101624    3.665476
    136          1           0      -30.710524   -1.986632   -0.808137
    137          1           0      -30.789676   -1.938714    0.931875
    138          1           0      -29.526418   -2.967385    0.158455
    139          1           0      -32.083137   -0.390960   -1.222630
    140          1           0      -32.873310    1.004824   -0.558448
    141          1           0      -32.111125   -0.001903    0.644864
    142          1           0      -27.073542    5.177448   -0.896447
    143          1           0      -24.508501    5.321567   -2.148501
    144          1           0      -27.691319    3.631415   -3.131130
    145          1           0      -26.107270    4.218025   -3.637394
    146          1           0      -27.459352    5.328465   -3.281598
    147          1           0      -25.034970    6.907689   -0.546856
    148          1           0      -23.706371    5.882370    0.097654
    149          1           0      -26.401598    6.299579    1.266149
    150          1           0      -24.750623    6.441744    1.949647
    151          1           0      -25.400539    4.870412    1.779522
    152          1           0      -19.772389    3.532511   -0.228036
    153          1           0      -20.011640    2.812169   -1.836489
    154          1           0      -18.802951    2.217690   -0.565808
    155          1           0      -20.684735   -2.391310    1.736158
    156          1           0      -17.558350   -3.851278   -1.174135
    157          1           0      -19.021035   -3.786793   -2.175483
    158          1           0      -18.760716   -5.028488   -1.202846
 ---------------------------------------------------------------------

 SCF Done:  E(RwB97XD) =  -4070.58035369     A.U. after   19 cycles

 Excitation energies and oscillator strengths:

 Excited State   1:      Singlet-A      1.6514 eV  750.78 nm  f=0.4912  <S**2>=0.000
     310 -> 316       -0.17882
     311 -> 313       -0.10139
     312 -> 314        0.67677
     310 <- 316       -0.11429
 This state for optimization and/or second-order correction.
 Total Energy, E(TD-HF/TD-DFT) =  -4070.51966546
 Copying the excited state density for this state as the 1-particle RhoCI density.

 Excited State   2:      Singlet-A      1.6549 eV  749.20 nm  f=0.3315  <S**2>=0.000
     309 -> 315        0.16446
     311 -> 313        0.67912
     312 -> 314        0.10097
     309 <- 315        0.11029

 Excited State   3:      Singlet-A      2.1707 eV  571.18 nm  f=0.1245  <S**2>=0.000
     310 -> 314        0.64462
     312 -> 316        0.27784

 Excited State   4:      Singlet-A      2.1981 eV  564.06 nm  f=0.1160  <S**2>=0.000
     309 -> 313        0.64043
     311 -> 315       -0.27517

 Excited State   5:      Singlet-A      3.2250 eV  384.45 nm  f=0.0080  <S**2>=0.000
     302 -> 313        0.15893
     308 -> 313        0.66801
     308 -> 317        0.10503

 The electronic state is 1-A.
 Alpha  occ. eigenvalues --  -46.96679 -46.94391 -19.31369 -19.30178 -19.25105
 Alpha  occ. eigenvalues --  -19.24993 -19.24421 -19.24130 -19.23556 -19.22398
 Alpha  occ. eigenvalues --  -14.47818 -14.46813 -14.46508 -14.45999 -14.45192
 Alpha  occ. eigenvalues --  -14.44385 -14.44090 -14.43677 -10.43641 -10.43142
 Alpha  occ. eigenvalues --  -10.39025 -10.38840 -10.38811 -10.38169 -10.37084
 Alpha  occ. eigenvalues --  -10.35925 -10.35646 -10.35340 -10.35289 -10.35079
 Alpha  occ. eigenvalues --  -10.34757 -10.34705 -10.34670 -10.34624 -10.34490
 Alpha  occ. eigenvalues --  -10.34305 -10.34255 -10.33875 -10.33863 -10.33797
 Alpha  occ. eigenvalues --  -10.33588 -10.33578 -10.33532 -10.33374 -10.32955
 Alpha  occ. eigenvalues --  -10.32939 -10.32931 -10.32592 -10.32562 -10.32419
 Alpha  occ. eigenvalues --  -10.32403 -10.32351 -10.32323 -10.32179 -10.31887
 Alpha  occ. eigenvalues --  -10.31743 -10.31730 -10.31683 -10.31607 -10.31605
 Alpha  occ. eigenvalues --  -10.31154 -10.31134 -10.31080 -10.31068 -10.31053
 Alpha  occ. eigenvalues --  -10.31014 -10.30851 -10.30804 -10.30756 -10.30749
 Alpha  occ. eigenvalues --  -10.30724 -10.30549 -10.30460 -10.30265 -10.30170
 Alpha  occ. eigenvalues --  -10.30004 -10.29865 -10.29743 -10.29633 -10.29595
 Alpha  occ. eigenvalues --  -10.29470 -10.29401 -10.29155 -10.29058 -10.28779
 Alpha  occ. eigenvalues --  -10.28756  -3.22552  -3.20425  -1.96113  -1.95702
 Alpha  occ. eigenvalues --   -1.95484  -1.94018  -1.93527  -1.93416  -1.20339
 Alpha  occ. eigenvalues --   -1.18362  -1.14279  -1.11376  -1.11256  -1.10459
 Alpha  occ. eigenvalues --   -1.09769  -1.09614  -1.07068  -1.06525  -1.06161
 Alpha  occ. eigenvalues --   -1.05733  -1.05305  -1.04719  -1.04241  -1.03112
 Alpha  occ. eigenvalues --   -0.95063  -0.94799  -0.91622  -0.91296  -0.90921
 Alpha  occ. eigenvalues --   -0.90407  -0.90340  -0.89963  -0.89696  -0.89603
 Alpha  occ. eigenvalues --   -0.88999  -0.88405  -0.87897  -0.87202  -0.86571
 Alpha  occ. eigenvalues --   -0.86075  -0.85858  -0.85237  -0.84837  -0.84417
 Alpha  occ. eigenvalues --   -0.84129  -0.83456  -0.83134  -0.82780  -0.82276
 Alpha  occ. eigenvalues --   -0.81846  -0.80456  -0.79616  -0.79351  -0.78992
 Alpha  occ. eigenvalues --   -0.78881  -0.78634  -0.78307  -0.77759  -0.77228
 Alpha  occ. eigenvalues --   -0.76861  -0.75418  -0.74939  -0.73953  -0.73117
 Alpha  occ. eigenvalues --   -0.71628  -0.70851  -0.70798  -0.70609  -0.70354
 Alpha  occ. eigenvalues --   -0.69910  -0.68832  -0.68301  -0.67955  -0.67785
 Alpha  occ. eigenvalues --   -0.67643  -0.66838  -0.66552  -0.66519  -0.66433
 Alpha  occ. eigenvalues --   -0.65843  -0.65366  -0.64344  -0.62900  -0.61998
 Alpha  occ. eigenvalues --   -0.61960  -0.61390  -0.60933  -0.60880  -0.60536
 Alpha  occ. eigenvalues --   -0.60361  -0.60021  -0.59972  -0.59240  -0.59215
 Alpha  occ. eigenvalues --   -0.58302  -0.58183  -0.57636  -0.57616  -0.57604
 Alpha  occ. eigenvalues --   -0.56880  -0.56751  -0.56494  -0.56341  -0.55869
 Alpha  occ. eigenvalues --   -0.55852  -0.55441  -0.55288  -0.55211  -0.55036
 Alpha  occ. eigenvalues --   -0.54797  -0.54604  -0.54415  -0.54173  -0.54076
 Alpha  occ. eigenvalues --   -0.53872  -0.53801  -0.53656  -0.53419  -0.53263
 Alpha  occ. eigenvalues --   -0.52849  -0.52841  -0.52613  -0.52555  -0.52262
 Alpha  occ. eigenvalues --   -0.51906  -0.51822  -0.51737  -0.51484  -0.51429
 Alpha  occ. eigenvalues --   -0.51170  -0.51037  -0.50931  -0.50758  -0.50715
 Alpha  occ. eigenvalues --   -0.50482  -0.50459  -0.50259  -0.50199  -0.49827
 Alpha  occ. eigenvalues --   -0.49637  -0.49570  -0.49370  -0.49347  -0.49131
 Alpha  occ. eigenvalues --   -0.49065  -0.48811  -0.48745  -0.48557  -0.48158
 Alpha  occ. eigenvalues --   -0.48113  -0.48065  -0.47859  -0.47724  -0.47667
 Alpha  occ. eigenvalues --   -0.47461  -0.47193  -0.47115  -0.46975  -0.46871
 Alpha  occ. eigenvalues --   -0.46836  -0.46544  -0.46498  -0.46413  -0.46394
 Alpha  occ. eigenvalues --   -0.46224  -0.45752  -0.45645  -0.45580  -0.45549
 Alpha  occ. eigenvalues --   -0.45343  -0.44969  -0.44886  -0.44710  -0.44555
 Alpha  occ. eigenvalues --   -0.44547  -0.44263  -0.44181  -0.44070  -0.43897
 Alpha  occ. eigenvalues --   -0.43774  -0.43682  -0.43423  -0.43241  -0.42878
 Alpha  occ. eigenvalues --   -0.42761  -0.42669  -0.42619  -0.42576  -0.42158
 Alpha  occ. eigenvalues --   -0.41981  -0.41766  -0.41427  -0.41018  -0.40983
 Alpha  occ. eigenvalues --   -0.40676  -0.40112  -0.39806  -0.39639  -0.39367
 Alpha  occ. eigenvalues --   -0.39070  -0.38956  -0.38820  -0.38516  -0.38416
 Alpha  occ. eigenvalues --   -0.38409  -0.38128  -0.36818  -0.36728  -0.36324
 Alpha  occ. eigenvalues --   -0.36251  -0.36059  -0.34906  -0.33799  -0.33783
 Alpha  occ. eigenvalues --   -0.33200  -0.33144  -0.33027  -0.32458  -0.32284
 Alpha  occ. eigenvalues --   -0.32024  -0.31668  -0.31138  -0.26874  -0.25660
 Alpha  occ. eigenvalues --   -0.23481  -0.22755
 Alpha virt. eigenvalues --   -0.07887  -0.06874   0.00026   0.00633   0.01991
 Alpha virt. eigenvalues --    0.02641   0.03805   0.04354   0.04627   0.05645
 Alpha virt. eigenvalues --    0.07136   0.07189   0.07604   0.08023   0.08351

 Mulliken charges:
               1
     1  Mg   0.957271
     2  C    0.004226
     3  C   -0.071943
     4  C   -0.044058
     5  C   -0.099325
     6  N   -0.349348
     7  C    0.010934
     8  C   -0.050922
     9  C   -0.100572
    10  C    0.039607
    11  C    0.023931
    12  C   -0.030544
    13  C   -0.101609
    14  H    0.062372
    15  N   -0.458809
    16  C    0.154254
    17  C   -0.150806
    18  C   -0.094590
    19  C    0.205497
    20  C    0.091876
    21  C    0.063113
    22  O   -0.267826
    23  C    0.000091
    24  N   -0.298072
    25  C    0.010997
    26  C   -0.080673
    27  C   -0.045998
    28  C    0.048433
    29  C    0.002552
    30  C   -0.042793
    31  C   -0.065009
    32  N   -0.464764
    33  C    0.133666
    34  C   -0.171315
    35  C   -0.013196
    36  C    0.155539
    37  C    0.081415
    38  C    0.117919
    39  O   -0.220267
    40  C   -0.108067
    41  C    0.242780
    42  O   -0.244107
    43  O   -0.368861
    44  C    0.139759
    45  H    0.011731
    46  H   -0.042750
    47  H    0.000691
    48  H    0.052498
    49  H    0.038600
    50  H    0.039469
    51  H    0.034757
    52  H    0.041350
    53  H    0.057309
    54  H    0.041166
    55  H    0.052204
    56  H    0.036558
    57  H    0.060596
    58  H    0.046852
    59  H    0.000118
    60  H    0.063435
    61  H    0.040888
    62  H    0.054657
    63  H    0.045303
    64  H    0.032488
    65  H    0.028511
    66  H    0.031379
    67  H    0.039480
    68  H    0.036139
    69  H    0.041011
    70  H    0.033304
    71  H    0.036182
    72  H    0.047805
    73  H    0.043713
    74  H    0.066878
    75  H    0.074606
    76  H    0.058584
    77  H    0.052708
    78  H    0.037441
    79  H    0.061575
    80  Mg   0.964268
    81  C   -0.022272
    82  C   -0.067125
    83  C   -0.064454
    84  C   -0.108198
    85  N   -0.333551
    86  C    0.014126
    87  C   -0.076162
    88  C   -0.120507
    89  C    0.066839
    90  C    0.027395
    91  C   -0.000211
    92  C   -0.127172
    93  H    0.035014
    94  N   -0.460778
    95  C    0.133572
    96  C   -0.174147
    97  C   -0.090074
    98  C    0.138013
    99  C    0.086237
   100  C    0.051272
   101  O   -0.252439
   102  C   -0.016383
   103  N   -0.338751
   104  C    0.022158
   105  C   -0.061309
   106  C   -0.072431
   107  C    0.096839
   108  C    0.042004
   109  C   -0.059398
   110  C   -0.054449
   111  N   -0.488493
   112  C    0.148285
   113  C   -0.184031
   114  C   -0.008165
   115  C    0.148124
   116  C    0.079490
   117  C    0.095202
   118  O   -0.162791
   119  C   -0.097350
   120  C    0.245623
   121  O   -0.237022
   122  O   -0.309754
   123  C    0.140912
   124  H   -0.012950
   125  H    0.030848
   126  H    0.003284
   127  H    0.039875
   128  H    0.038808
   129  H    0.052149
   130  H    0.032861
   131  H    0.049486
   132  H    0.033220
   133  H    0.042330
   134  H    0.057013
   135  H    0.070071
   136  H    0.044629
   137  H    0.039379
   138  H    0.041542
   139  H    0.061826
   140  H    0.044446
   141  H    0.063972
   142  H    0.035085
   143  H    0.030285
   144  H    0.046243
   145  H    0.035072
   146  H    0.037241
   147  H    0.038898
   148  H    0.021506
   149  H    0.047707
   150  H    0.037250
   151  H    0.043659
   152  H    0.037582
   153  H    0.056855
   154  H    0.057443
   155  H    0.056478
   156  H    0.058061
   157  H    0.054719
   158  H    0.025172
 Sum of Mulliken charges =  -0.00000

 Dipole moment (field-independent basis, Debye):
    X=              3.1873    Y=             -2.1962    Z=              5.9382  Tot=              7.0883
 Quadrupole moment (field-independent basis, Debye-Ang):
   XX=           -406.8137   YY=           -470.4450   ZZ=           -493.3571
   XY=             23.2025   XZ=             73.4431   YZ=             13.4507

 Normal termination of Gaussian 16 at Sat Sep 18 22:35:03 2021.
