 Gaussian 16, Revision A.03,
 Gaussian 16:  ES64L-G16RevA.03 25-Dec-2016

 --------------------------------
 #p wB97XD/Def2SVP td=(nstates=5)
 --------------------------------

 --------------------------------
 TDDFT excited states in gaussian
 --------------------------------
 Symbolic Z-matrix:
 Charge =  0 Multiplicity = 1

                         Standard orientation:
 ---------------------------------------------------------------------
 Center     Atomic      Atomic             Coordinates (Angstroms)
 Number     Number       Type             X           Y           Z
 ---------------------------------------------------------------------
      1         12           0       -0.704373    0.191675   -0.106813
      2          6           0        2.733712    0.400023   -0.255552
      3          6           0       -0.290653   -3.359201   -0.325916
      4          6           0       -3.944512   -0.141201   -0.316235
      5          6           0       -0.966686    3.638245   -0.239300
      6          7           0        1.089518   -1.291974   -0.487887
      7          6           0        2.349335   -0.949262   -0.277395
      8          6           0        3.222741   -2.198556    0.029238
      9          6           0        2.303636   -3.319344   -0.570785
     10          6           0        0.915252   -2.666602   -0.476263
     11          6           0        2.692732   -3.686126   -2.047034
     12          6           0        3.367528   -2.252803    1.566412
     13          6           0        4.315088   -3.321485    2.128086
     14          1           0        4.855862   -4.411612    1.224763
     15          7           0       -2.000293   -1.432046   -0.184552
     16          6           0       -1.612660   -2.815357   -0.230751
     17          6           0       -2.841813   -3.580055   -0.069904
     18          6           0       -3.907621   -2.633731    0.045306
     19          6           0       -3.321988   -1.314476   -0.188420
     20          6           0       -2.918172   -5.150074    0.016062
     21          6           0       -5.404778   -2.936162    0.383842
     22          8           0       -6.190875   -2.030903    0.322370
     23          6           0       -5.840300   -4.322064    0.733630
     24          7           0       -2.258199    1.576962   -0.165456
     25          6           0       -3.556053    1.207137   -0.249476
     26          6           0       -4.514210    2.391306   -0.372649
     27          6           0       -3.556593    3.593977   -0.206540
     28          6           0       -2.143200    2.881697   -0.203847
     29          6           0       -5.354382    2.452256   -1.700937
     30          6           0       -3.838905    4.554758    0.920207
     31          6           0       -4.146400    4.049293    2.350425
     32          7           0        0.550315    1.766612   -0.238686
     33          6           0        0.328790    3.113612   -0.273472
     34          6           0        1.622740    3.760062   -0.213096
     35          6           0        2.646495    2.752042   -0.171341
     36          6           0        1.903408    1.540346   -0.204810
     37          6           0        1.818033    5.244138   -0.209584
     38          6           0        4.043757    2.475709   -0.173081
     39          8           0        5.056529    3.208476   -0.199028
     40          6           0        4.103757    0.886732   -0.507203
     41          6           0        5.267450    0.317098    0.305773
     42          8           0        5.416568    0.439241    1.461243
     43          8           0        6.115016   -0.314012   -0.559649
     44          6           0        7.089509   -1.233030   -0.008465
     45          1           0       -0.158888   -4.434490   -0.459848
     46          1           0       -5.028647   -0.193028   -0.436462
     47          1           0       -0.980336    4.727799   -0.299613
     48          1           0        4.161314   -2.192211   -0.524770
     49          1           0        2.417067   -4.142364    0.135228
     50          1           0        3.218943   -4.639866   -2.055201
     51          1           0        3.314475   -2.879992   -2.436975
     52          1           0        1.832297   -3.841070   -2.698052
     53          1           0        2.389431   -2.507387    1.973772
     54          1           0        3.560017   -1.269707    1.994937
     55          1           0        4.016160   -3.685820    3.111196
     56          1           0        5.183634   -2.754784    2.464137
     57          1           0       -3.654722   -5.567935   -0.670864
     58          1           0       -3.126504   -5.374406    1.062062
     59          1           0       -1.928378   -5.572006   -0.162374
     60          1           0       -6.698657   -4.128584    1.377357
     61          1           0       -5.123812   -4.840180    1.370021
     62          1           0       -5.918688   -5.089911   -0.035974
     63          1           0       -5.190083    2.293656    0.476623
     64          1           0       -3.472309    4.198565   -1.109546
     65          1           0       -5.450436    3.512061   -1.935415
     66          1           0       -6.306507    2.021475   -1.390424
     67          1           0       -4.913303    1.807508   -2.461037
     68          1           0       -4.825057    4.907861    0.620547
     69          1           0       -3.150100    5.388903    1.057958
     70          1           0       -5.119380    4.281470    2.781412
     71          1           0       -3.508629    4.535129    3.088840
     72          1           0       -4.054218    2.963335    2.373018
     73          1           0        2.897000    5.395821   -0.220186
     74          1           0        1.448768    5.666644    0.725850
     75          1           0        1.267445    5.789030   -0.975860
     76          1           0        4.235950    0.836122   -1.588171
     77          1           0        7.902100   -0.716718   -0.519760
     78          1           0        6.879668   -2.280305   -0.226951
     79          1           0        7.243482   -1.135822    1.066534
 ---------------------------------------------------------------------

 SCF Done:  E(RwB97XD) =  -2035.30080276     A.U. after   20 cycles

 Excitation energies and oscillator strengths:

 Excited State   1:      Singlet-A      1.6762 eV  739.68 nm  f=0.3723  <S**2>=0.000
     155 ->158        -0.20188
     156 ->157         0.67872
     155 <-158        -0.12042
 This state for optimization and/or second-order correction.
 Total Energy, E(TD-HF/TD-DFT) =  -2035.23920418
 Copying the excited state density for this state as the 1-particle RhoCI density.

 Excited State   2:      Singlet-A      2.1629 eV  573.24 nm  f=0.0892  <S**2>=0.000
     155 ->157         0.63317
     156 ->158         0.30175

 Excited State   3:      Singlet-A      3.3463 eV  370.51 nm  f=0.0461  <S**2>=0.000
     151 ->157         0.24625
     151 ->159        -0.17834
     152 ->157         0.41162
     152 ->159        -0.24522
     152 ->160         0.11252
     153 ->157         0.15515
     154 ->157         0.18602
     156 ->158         0.18216

 Excited State   4:      Singlet-A      3.4405 eV  360.36 nm  f=0.1122  <S**2>=0.000
     153 ->157         0.49042
     154 ->157        -0.31624
     155 ->157         0.12503
     156 ->158        -0.30823

 Excited State   5:      Singlet-A      3.4687 eV  357.44 nm  f=0.2191  <S**2>=0.000
     154 ->157         0.52164
     154 ->159         0.10864
     155 ->157         0.16392
     156 ->158        -0.42168

 The electronic state is 1-A.
 Alpha  occ. eigenvalues --  -46.94617 -19.29640 -19.25199 -19.24137 -19.24071
 Alpha  occ. eigenvalues --  -14.46330 -14.46289 -14.43908 -14.43903 -10.42782
 Alpha  occ. eigenvalues --  -10.39202 -10.39149 -10.35214 -10.34749 -10.34635
 Alpha  occ. eigenvalues --  -10.34587 -10.34447 -10.34314 -10.33685 -10.33382
 Alpha  occ. eigenvalues --  -10.32963 -10.32802 -10.32750 -10.32580 -10.32159
 Alpha  occ. eigenvalues --  -10.31851 -10.31807 -10.31774 -10.31734 -10.31708
 Alpha  occ. eigenvalues --  -10.31625 -10.31547 -10.30709 -10.30589 -10.30524
 Alpha  occ. eigenvalues --  -10.30392 -10.30133 -10.30117 -10.30057 -10.29856
 Alpha  occ. eigenvalues --  -10.29712 -10.29076 -10.28933  -3.20681  -1.94273
 Alpha  occ. eigenvalues --   -1.93825  -1.93641  -1.19793  -1.13703  -1.12025
 Alpha  occ. eigenvalues --   -1.10297  -1.07226  -1.06091  -1.05116  -1.04096
 Alpha  occ. eigenvalues --   -0.95047  -0.91215  -0.90598  -0.90396  -0.89251
 Alpha  occ. eigenvalues --   -0.88403  -0.87600  -0.85990  -0.85616  -0.84323
 Alpha  occ. eigenvalues --   -0.83658  -0.83381  -0.82252  -0.79944  -0.79270
 Alpha  occ. eigenvalues --   -0.78739  -0.77830  -0.77444  -0.74684  -0.73988
 Alpha  occ. eigenvalues --   -0.72178  -0.70869  -0.70088  -0.68188  -0.67161
 Alpha  occ. eigenvalues --   -0.66866  -0.66286  -0.66130  -0.64355  -0.62483
 Alpha  occ. eigenvalues --   -0.61633  -0.61150  -0.60828  -0.60160  -0.59883
 Alpha  occ. eigenvalues --   -0.58127  -0.58108  -0.57640  -0.57286  -0.56199
 Alpha  occ. eigenvalues --   -0.55630  -0.55469  -0.54901  -0.54318  -0.54207
 Alpha  occ. eigenvalues --   -0.54007  -0.53716  -0.52719  -0.52650  -0.52068
 Alpha  occ. eigenvalues --   -0.51909  -0.51624  -0.51497  -0.51255  -0.51215
 Alpha  occ. eigenvalues --   -0.50757  -0.50183  -0.50081  -0.49902  -0.49565
 Alpha  occ. eigenvalues --   -0.48826  -0.48551  -0.48470  -0.47924  -0.47759
 Alpha  occ. eigenvalues --   -0.47541  -0.47171  -0.46947  -0.46622  -0.45799
 Alpha  occ. eigenvalues --   -0.45295  -0.45208  -0.44915  -0.44856  -0.44633
 Alpha  occ. eigenvalues --   -0.44271  -0.44057  -0.43956  -0.43794  -0.43578
 Alpha  occ. eigenvalues --   -0.43340  -0.42856  -0.42121  -0.41499  -0.41328
 Alpha  occ. eigenvalues --   -0.40301  -0.39861  -0.39568  -0.39173  -0.38386
 Alpha  occ. eigenvalues --   -0.37760  -0.37184  -0.35949  -0.35577  -0.33673
 Alpha  occ. eigenvalues --   -0.33026  -0.32509  -0.32027  -0.31514  -0.25736
 Alpha  occ. eigenvalues --   -0.22909
 Alpha virt. eigenvalues --   -0.06795   0.00020   0.02232   0.04710   0.06098
 Alpha virt. eigenvalues --    0.07994   0.08217   0.08500   0.09342   0.10252
 Alpha virt. eigenvalues --    0.11617   0.12190   0.12925   0.13489   0.14091

 Mulliken charges:
               1
     1  Mg   0.965819
     2  C   -0.025587
     3  C   -0.077121
     4  C   -0.088027
     5  C   -0.117689
     6  N   -0.288256
     7  C   -0.036076
     8  C   -0.084204
     9  C   -0.089580
    10  C    0.019626
    11  C    0.040462
    12  C    0.000389
    13  C   -0.089336
    14  H    0.044116
    15  N   -0.478849
    16  C    0.175987
    17  C   -0.189399
    18  C   -0.081105
    19  C    0.188860
    20  C    0.062473
    21  C    0.064870
    22  O   -0.213710
    23  C   -0.007290
    24  N   -0.341935
    25  C    0.014419
    26  C   -0.099302
    27  C   -0.054291
    28  C    0.091116
    29  C    0.035502
    30  C   -0.010004
    31  C   -0.072548
    32  N   -0.486492
    33  C    0.144567
    34  C   -0.184342
    35  C   -0.031063
    36  C    0.180330
    37  C    0.067881
    38  C    0.153379
    39  O   -0.233759
    40  C   -0.147653
    41  C    0.242937
    42  O   -0.185877
    43  O   -0.368604
    44  C    0.110543
    45  H    0.003786
    46  H    0.009649
    47  H   -0.005496
    48  H    0.019566
    49  H    0.022934
    50  H    0.039835
    51  H    0.043875
    52  H    0.040360
    53  H    0.025775
    54  H    0.065901
    55  H    0.042735
    56  H    0.038118
    57  H    0.059035
    58  H    0.057771
    59  H    0.030211
    60  H    0.058165
    61  H    0.020579
    62  H    0.069271
    63  H    0.047945
    64  H    0.031232
    65  H    0.046318
    66  H    0.047907
    67  H    0.054225
    68  H    0.029218
    69  H    0.040695
    70  H    0.032782
    71  H    0.032890
    72  H    0.039568
    73  H    0.062273
    74  H    0.042951
    75  H    0.047408
    76  H    0.085722
    77  H    0.070092
    78  H    0.062601
    79  H    0.062922
 Sum of Mulliken charges =  -0.00000

 Dipole moment (field-independent basis, Debye):
    X=             -2.4163    Y=             -3.6714    Z=             -0.1357  Tot=              4.3973
 Quadrupole moment (field-independent basis, Debye-Ang):
   XX=           -274.7021   YY=           -224.9644   ZZ=           -256.0690
   XY=            -30.4229   XZ=             -5.3143   YZ=             -1.8424

 Normal termination of Gaussian 16 at Sun Sep 19 00:48:42 2021.
