 Gaussian 16, Revision A.03,
 Gaussian 16:  ES64L-G16RevA.03 25-Dec-2016

 --------------------------------
 #p wB97XD/Def2SVP td=(nstates=5)
 --------------------------------

 --------------------------------
 TDDFT excited states in gaussian
 --------------------------------
 Symbolic Z-matrix:
 Charge =  0 Multiplicity = 1

                         Standard orientation:
 ---------------------------------------------------------------------
 Center     Atomic      Atomic             Coordinates (Angstroms)
 Number     Number       Type             X           Y           Z
 ---------------------------------------------------------------------
      1         12           0      -11.690931    0.371301   -0.301990
      2          6           0       -9.690490   -2.497823   -0.434791
      3          6           0      -14.032663   -1.614115    1.290207
      4          6           0      -13.524467    3.117454    0.186672
      5          6           0       -8.910503    2.321748   -1.129856
      6          7           0      -11.706504   -1.902359    0.545448
      7          6           0      -10.819359   -2.868694    0.240418
      8          6           0      -11.190383   -4.224903    0.790566
      9          6           0      -12.710923   -3.902991    1.052984
     10          6           0      -12.870849   -2.386463    1.022919
     11          6           0      -13.583667   -4.510815   -0.077354
     12          6           0      -10.273231   -4.626339    1.952744
     13          6           0       -9.838448   -3.568372    2.988192
     14          1           0       -9.999247   -3.962479    4.451649
     15          7           0      -13.502341    0.707961    0.586947
     16          6           0      -14.341340   -0.263516    1.064893
     17          6           0      -15.702358    0.282389    1.147003
     18          6           0      -15.580743    1.720238    0.983723
     19          6           0      -14.158158    1.882702    0.554435
     20          6           0      -16.921542   -0.544525    1.708702
     21          6           0      -16.675616    2.766696    1.205641
     22          8           0      -17.807395    2.430854    1.417874
     23          6           0      -16.347325    4.228862    1.111981
     24          7           0      -11.152092    2.476866   -0.259592
     25          6           0      -12.132527    3.479019   -0.138008
     26          6           0      -11.553939    4.941058   -0.354726
     27          6           0      -10.062349    4.616744   -0.843164
     28          6           0      -10.035589    3.020885   -0.784439
     29          6           0      -12.328931    5.991563   -1.296871
     30          6           0       -8.860978    5.303789   -0.047136
     31          6           0       -7.637354    5.627405   -1.039115
     32          7           0       -9.680188    0.044319   -0.768300
     33          6           0       -8.701819    0.930443   -1.171007
     34          6           0       -7.503592    0.185262   -1.537382
     35          6           0       -7.808078   -1.187262   -1.346542
     36          6           0       -9.139352   -1.216962   -0.794302
     37          6           0       -6.259655    0.744087   -2.177084
     38          6           0       -7.335573   -2.610129   -1.349584
     39          8           0       -6.235481   -3.068567   -1.563437
     40          6           0       -8.567721   -3.456836   -0.814981
     41          6           0       -8.955925   -4.395964   -1.923763
     42          8           0       -8.325658   -5.444885   -2.208946
     43          8           0      -10.173000   -4.003100   -2.461493
     44          6           0      -10.772748   -4.929251   -3.362913
     45          1           0      -14.809283   -2.257286    1.709514
     46          1           0      -14.080877    4.054377    0.112547
     47          1           0       -8.117626    2.925529   -1.576515
     48          1           0      -11.188888   -4.989693    0.014138
     49          1           0      -13.150445   -4.244374    1.989223
     50          1           0      -14.420084   -3.823814   -0.208215
     51          1           0      -13.849100   -5.540974    0.155936
     52          1           0      -13.199932   -4.521302   -1.098004
     53          1           0       -9.334748   -4.932002    1.491256
     54          1           0      -10.729990   -5.472416    2.466330
     55          1           0      -10.452555   -2.677333    2.860079
     56          1           0       -8.775305   -3.375609    2.847328
     57          1           0      -16.949303   -0.647750    2.793789
     58          1           0      -16.927240   -1.536507    1.256869
     59          1           0      -17.911462   -0.196761    1.415620
     60          1           0      -17.176893    4.855312    1.441442
     61          1           0      -16.066076    4.542168    0.106378
     62          1           0      -15.583813    4.333189    1.883325
     63          1           0      -11.564013    5.288582    0.677657
     64          1           0       -9.930358    4.876358   -1.893140
     65          1           0      -13.022449    6.539733   -0.660249
     66          1           0      -12.860167    5.488382   -2.104295
     67          1           0      -11.591724    6.651629   -1.754430
     68          1           0       -8.412098    4.607743    0.661384
     69          1           0       -9.203252    6.183339    0.498714
     70          1           0       -6.738937    5.087198   -0.740302
     71          1           0       -7.423020    6.695387   -1.012259
     72          1           0       -7.703904    5.315208   -2.080757
     73          1           0       -5.841848    1.499241   -1.512151
     74          1           0       -6.517547    1.218924   -3.123964
     75          1           0       -5.489085   -0.013616   -2.318295
     76          1           0       -8.134057   -4.081902   -0.034703
     77          1           0      -11.760538   -4.565846   -3.645373
     78          1           0      -10.749130   -5.942744   -2.962071
     79          1           0      -10.267732   -4.945761   -4.328685
     80         12           0       11.001420    0.865377   -0.324024
     81          6           0       12.064153   -2.575350    0.381397
     82          6           0        7.926324   -0.146717    0.900366
     83          6           0       10.350630    3.959841    0.089050
     84          6           0       14.459234    1.489186   -1.076459
     85          7           0       10.160356   -1.206963    0.702032
     86          6           0       10.752930   -2.440239    0.863734
     87          6           0        9.767942   -3.394048    1.633680
     88          6           0        8.398832   -2.699751    1.530252
     89          6           0        8.840420   -1.275877    1.018927
     90          6           0        7.314863   -3.304116    0.544028
     91          6           0       10.225106   -3.725229    3.095599
     92          6           0        9.999427   -5.146206    3.565392
     93          1           0        8.777560   -5.388712    4.506027
     94          7           0        9.353376    1.789028    0.265998
     95          6           0        8.151978    1.244117    0.629645
     96          6           0        7.183321    2.327497    0.951800
     97          6           0        7.911513    3.526264    0.735103
     98          6           0        9.270986    3.118613    0.389280
     99          6           0        5.750118    2.163782    1.483630
    100          6           0        7.493398    4.965656    1.048890
    101          8           0        6.344185    5.142892    1.443867
    102          6           0        8.316101    6.098933    0.887552
    103          7           0       12.352189    2.497589   -0.222930
    104          6           0       11.698583    3.711963   -0.290803
    105          6           0       12.769300    4.825449   -0.611778
    106          6           0       14.122809    4.030328   -0.668566
    107          6           0       13.595160    2.578351   -0.759408
    108          6           0       12.498064    5.673935   -1.884384
    109          6           0       15.182910    4.242049    0.486287
    110          6           0       16.077004    5.492792    0.427161
    111          7           0       12.920658   -0.238179   -0.416837
    112          6           0       14.172263    0.140450   -0.859672
    113          6           0       15.062880   -0.987830   -0.984547
    114          6           0       14.260055   -2.094305   -0.515971
    115          6           0       12.959408   -1.631236   -0.111596
    116          6           0       16.493903   -0.887019   -1.414650
    117          6           0       14.310243   -3.457445   -0.226764
    118          8           0       15.251274   -4.238916   -0.196374
    119          6           0       12.970742   -3.819157    0.477945
    120          6           0       12.401151   -4.948552   -0.348375
    121          8           0       11.983191   -6.002376    0.137789
    122          8           0       12.216175   -4.658202   -1.759933
    123          6           0       11.345478   -5.629785   -2.419810
    124          1           0        6.926978   -0.455248    1.212748
    125          1           0       10.224653    5.041641    0.009771
    126          1           0       15.445885    1.822016   -1.405131
    127          1           0        9.615299   -4.290314    1.030732
    128          1           0        7.957038   -2.526561    2.511533
    129          1           0        6.583391   -3.777463    1.198663
    130          1           0        7.742063   -4.091732   -0.075990
    131          1           0        6.868464   -2.597596   -0.155652
    132          1           0        9.680081   -3.191462    3.874571
    133          1           0       11.296170   -3.553880    3.205262
    134          1           0       10.941597   -5.491937    3.990737
    135          1           0        9.811362   -5.756879    2.681748
    136          1           0        5.095092    2.895196    1.009517
    137          1           0        5.857765    2.285371    2.561402
    138          1           0        5.343158    1.189203    1.217490
    139          1           0        8.502491    6.230304   -0.178806
    140          1           0        9.230202    6.090328    1.481305
    141          1           0        7.701452    6.864435    1.362408
    142          1           0       12.882873    5.565367    0.179802
    143          1           0       14.632951    4.182973   -1.619339
    144          1           0       13.383356    5.542833   -2.506768
    145          1           0       12.402868    6.717132   -1.584707
    146          1           0       11.578953    5.243693   -2.284042
    147          1           0       15.809263    3.352103    0.416679
    148          1           0       14.690378    4.347272    1.453176
    149          1           0       15.768004    5.914056   -0.529908
    150          1           0       17.125119    5.223138    0.289749
    151          1           0       15.964057    6.222929    1.228197
    152          1           0       16.954563   -0.191147   -0.714699
    153          1           0       16.623844   -0.407086   -2.384474
    154          1           0       17.051328   -1.810121   -1.255261
    155          1           0       13.228545   -4.210412    1.461910
    156          1           0       11.016377   -4.956014   -3.211808
    157          1           0       10.630065   -6.077249   -1.729872
    158          1           0       12.004902   -6.360237   -2.888695
 ---------------------------------------------------------------------

 SCF Done:  E(RwB97XD) =  -4070.55523634     A.U. after   18 cycles

 Excitation energies and oscillator strengths:

 Excited State   1:      Singlet-A      1.6679 eV  743.35 nm  f=0.4652  <S**2>=0.000
     309 -> 315       -0.19917
     311 -> 314       -0.10910
     312 -> 313        0.66847
     309 <- 315       -0.11791
 This state for optimization and/or second-order correction.
 Total Energy, E(TD-HF/TD-DFT) =  -4070.49394148
 Copying the excited state density for this state as the 1-particle RhoCI density.

 Excited State   2:      Singlet-A      1.6949 eV  731.52 nm  f=0.2587  <S**2>=0.000
     310 -> 316        0.19675
     311 -> 314        0.66981
     312 -> 313        0.10796
     310 <- 316        0.11709

 Excited State   3:      Singlet-A      2.1842 eV  567.65 nm  f=0.0877  <S**2>=0.000
     310 -> 314        0.63137
     311 -> 316       -0.29967

 Excited State   4:      Singlet-A      2.1898 eV  566.18 nm  f=0.0788  <S**2>=0.000
     309 -> 313        0.61225
     312 -> 315        0.33042

 Excited State   5:      Singlet-A      3.2150 eV  385.64 nm  f=0.0156  <S**2>=0.000
     308 -> 313        0.61780
     308 -> 317        0.12028
     312 -> 315       -0.24353

 The electronic state is 1-A.
 Alpha  occ. eigenvalues --  -46.96998 -46.96777 -19.31291 -19.28816 -19.25032
 Alpha  occ. eigenvalues --  -19.24913 -19.24618 -19.24107 -19.23754 -19.22797
 Alpha  occ. eigenvalues --  -14.47239 -14.46876 -14.46467 -14.46450 -14.45316
 Alpha  occ. eigenvalues --  -14.45164 -14.44081 -14.43641 -10.43894 -10.43154
 Alpha  occ. eigenvalues --  -10.39855 -10.39318 -10.38817 -10.37384 -10.36991
 Alpha  occ. eigenvalues --  -10.36320 -10.35987 -10.35852 -10.35746 -10.35542
 Alpha  occ. eigenvalues --  -10.35493 -10.35362 -10.35221 -10.34997 -10.34910
 Alpha  occ. eigenvalues --  -10.34592 -10.34361 -10.34232 -10.33987 -10.33836
 Alpha  occ. eigenvalues --  -10.33775 -10.33593 -10.33288 -10.33265 -10.33129
 Alpha  occ. eigenvalues --  -10.33048 -10.32959 -10.32839 -10.32769 -10.32633
 Alpha  occ. eigenvalues --  -10.32570 -10.32539 -10.32518 -10.32483 -10.32368
 Alpha  occ. eigenvalues --  -10.32264 -10.32201 -10.32197 -10.32181 -10.32137
 Alpha  occ. eigenvalues --  -10.32075 -10.32034 -10.31941 -10.31850 -10.31756
 Alpha  occ. eigenvalues --  -10.31655 -10.31496 -10.31303 -10.30853 -10.30752
 Alpha  occ. eigenvalues --  -10.30704 -10.30697 -10.30602 -10.30502 -10.30444
 Alpha  occ. eigenvalues --  -10.30363 -10.30310 -10.30186 -10.30146 -10.30135
 Alpha  occ. eigenvalues --  -10.30055 -10.29972 -10.29947 -10.29834 -10.29591
 Alpha  occ. eigenvalues --  -10.29152  -3.22900  -3.22622  -1.96424  -1.96165
 Alpha  occ. eigenvalues --   -1.96067  -1.95820  -1.95754  -1.95573  -1.18673
 Alpha  occ. eigenvalues --   -1.15962  -1.13781  -1.12933  -1.12609  -1.11092
 Alpha  occ. eigenvalues --   -1.09294  -1.08431  -1.07010  -1.06834  -1.05997
 Alpha  occ. eigenvalues --   -1.05267  -1.05244  -1.04987  -1.03942  -1.02987
 Alpha  occ. eigenvalues --   -0.94769  -0.94506  -0.90931  -0.90800  -0.90698
 Alpha  occ. eigenvalues --   -0.90334  -0.90323  -0.89616  -0.89298  -0.88889
 Alpha  occ. eigenvalues --   -0.88782  -0.88018  -0.87760  -0.87704  -0.86828
 Alpha  occ. eigenvalues --   -0.86797  -0.85687  -0.85501  -0.85282  -0.84647
 Alpha  occ. eigenvalues --   -0.84373  -0.83837  -0.83015  -0.82789  -0.82380
 Alpha  occ. eigenvalues --   -0.81740  -0.80139  -0.79531  -0.79258  -0.79189
 Alpha  occ. eigenvalues --   -0.78833  -0.78669  -0.78357  -0.77647  -0.77316
 Alpha  occ. eigenvalues --   -0.77128  -0.74830  -0.74728  -0.74075  -0.73816
 Alpha  occ. eigenvalues --   -0.71890  -0.71367  -0.71012  -0.70467  -0.70262
 Alpha  occ. eigenvalues --   -0.69607  -0.69241  -0.68892  -0.67858  -0.67399
 Alpha  occ. eigenvalues --   -0.67229  -0.66905  -0.66888  -0.66881  -0.66658
 Alpha  occ. eigenvalues --   -0.65934  -0.65733  -0.63770  -0.62323  -0.62115
 Alpha  occ. eigenvalues --   -0.61712  -0.61306  -0.61157  -0.60978  -0.60813
 Alpha  occ. eigenvalues --   -0.60189  -0.59757  -0.59375  -0.59092  -0.58910
 Alpha  occ. eigenvalues --   -0.58559  -0.58301  -0.58059  -0.57515  -0.57491
 Alpha  occ. eigenvalues --   -0.57041  -0.56649  -0.56249  -0.56221  -0.55739
 Alpha  occ. eigenvalues --   -0.55694  -0.55588  -0.55368  -0.55172  -0.55128
 Alpha  occ. eigenvalues --   -0.55050  -0.54798  -0.54762  -0.54338  -0.53886
 Alpha  occ. eigenvalues --   -0.53789  -0.53658  -0.53568  -0.53385  -0.53319
 Alpha  occ. eigenvalues --   -0.53066  -0.52872  -0.52683  -0.52513  -0.52447
 Alpha  occ. eigenvalues --   -0.52044  -0.51939  -0.51722  -0.51721  -0.51678
 Alpha  occ. eigenvalues --   -0.51536  -0.51433  -0.51000  -0.50929  -0.50792
 Alpha  occ. eigenvalues --   -0.50626  -0.50478  -0.50336  -0.50245  -0.49975
 Alpha  occ. eigenvalues --   -0.49807  -0.49546  -0.49542  -0.49304  -0.49207
 Alpha  occ. eigenvalues --   -0.49135  -0.48914  -0.48663  -0.48559  -0.48340
 Alpha  occ. eigenvalues --   -0.48298  -0.48043  -0.47931  -0.47746  -0.47654
 Alpha  occ. eigenvalues --   -0.47489  -0.47288  -0.47222  -0.47150  -0.46869
 Alpha  occ. eigenvalues --   -0.46812  -0.46513  -0.46327  -0.46217  -0.46208
 Alpha  occ. eigenvalues --   -0.45946  -0.45929  -0.45848  -0.45637  -0.45630
 Alpha  occ. eigenvalues --   -0.45467  -0.45422  -0.45266  -0.45048  -0.44968
 Alpha  occ. eigenvalues --   -0.44738  -0.44475  -0.44297  -0.44280  -0.44207
 Alpha  occ. eigenvalues --   -0.44152  -0.43963  -0.43951  -0.43800  -0.43663
 Alpha  occ. eigenvalues --   -0.43313  -0.43159  -0.43156  -0.42298  -0.42092
 Alpha  occ. eigenvalues --   -0.41995  -0.41852  -0.41759  -0.41102  -0.41034
 Alpha  occ. eigenvalues --   -0.40888  -0.40684  -0.40114  -0.39721  -0.39515
 Alpha  occ. eigenvalues --   -0.39388  -0.39266  -0.39051  -0.38834  -0.38279
 Alpha  occ. eigenvalues --   -0.38167  -0.37225  -0.36715  -0.36443  -0.36442
 Alpha  occ. eigenvalues --   -0.35840  -0.35425  -0.35164  -0.33751  -0.33594
 Alpha  occ. eigenvalues --   -0.33437  -0.33258  -0.33117  -0.32975  -0.32849
 Alpha  occ. eigenvalues --   -0.32019  -0.31900  -0.30770  -0.26304  -0.25993
 Alpha  occ. eigenvalues --   -0.23250  -0.23170
 Alpha virt. eigenvalues --   -0.07039  -0.07023  -0.00706  -0.00211   0.01971
 Alpha virt. eigenvalues --    0.02144   0.03742   0.03891   0.04107   0.04408
 Alpha virt. eigenvalues --    0.06615   0.06918   0.07093   0.07865   0.08282

 Mulliken charges:
               1
     1  Mg   0.954797
     2  C    0.126844
     3  C   -0.086859
     4  C   -0.102703
     5  C   -0.086756
     6  N   -0.280347
     7  C   -0.106127
     8  C    0.024585
     9  C   -0.115281
    10  C    0.019704
    11  C    0.018004
    12  C    0.021164
    13  C   -0.133143
    14  H    0.032801
    15  N   -0.458734
    16  C    0.175457
    17  C   -0.148353
    18  C   -0.099930
    19  C    0.211665
    20  C    0.047920
    21  C    0.038252
    22  O   -0.200557
    23  C   -0.012873
    24  N   -0.368145
    25  C    0.007632
    26  C   -0.062955
    27  C   -0.084098
    28  C    0.069667
    29  C    0.005018
    30  C   -0.009907
    31  C   -0.094175
    32  N   -0.439722
    33  C    0.138933
    34  C   -0.213639
    35  C   -0.016365
    36  C    0.078873
    37  C    0.071694
    38  C    0.139866
    39  O   -0.173862
    40  C   -0.211006
    41  C    0.295938
    42  O   -0.267037
    43  O   -0.352101
    44  C    0.141311
    45  H    0.007315
    46  H   -0.025022
    47  H   -0.020858
    48  H    0.029498
    49  H    0.028385
    50  H    0.024596
    51  H    0.050231
    52  H    0.027397
    53  H    0.036873
    54  H    0.046245
    55  H    0.070720
    56  H    0.060355
    57  H    0.063344
    58  H    0.025826
    59  H    0.056119
    60  H    0.047056
    61  H    0.080158
    62  H    0.053773
    63  H    0.053775
    64  H    0.040239
    65  H    0.049482
    66  H    0.047476
    67  H    0.050508
    68  H    0.049791
    69  H    0.044070
    70  H    0.038536
    71  H    0.044582
    72  H    0.039952
    73  H    0.037546
    74  H    0.051922
    75  H    0.058515
    76  H    0.085015
    77  H    0.049573
    78  H    0.055004
    79  H    0.046554
    80  Mg   0.966298
    81  C   -0.023803
    82  C   -0.062917
    83  C   -0.092286
    84  C   -0.101034
    85  N   -0.282757
    86  C   -0.033999
    87  C    0.018469
    88  C   -0.119767
    89  C   -0.008103
    90  C    0.015305
    91  C    0.017517
    92  C   -0.125949
    93  H    0.022628
    94  N   -0.499469
    95  C    0.163062
    96  C   -0.189934
    97  C   -0.055835
    98  C    0.215258
    99  C    0.096865
   100  C    0.017650
   101  O   -0.245952
   102  C    0.020291
   103  N   -0.384782
   104  C    0.048564
   105  C   -0.125743
   106  C   -0.089995
   107  C    0.044870
   108  C    0.037767
   109  C   -0.003750
   110  C   -0.042720
   111  N   -0.423435
   112  C    0.155331
   113  C   -0.159740
   114  C   -0.021083
   115  C    0.159076
   116  C    0.093673
   117  C    0.074498
   118  O   -0.216495
   119  C   -0.098778
   120  C    0.286643
   121  O   -0.256694
   122  O   -0.417899
   123  C    0.139141
   124  H   -0.000617
   125  H   -0.024083
   126  H   -0.002163
   127  H    0.034885
   128  H    0.044395
   129  H    0.049301
   130  H    0.036812
   131  H    0.049721
   132  H    0.048408
   133  H    0.043679
   134  H    0.057125
   135  H    0.052792
   136  H    0.068100
   137  H    0.069263
   138  H    0.031721
   139  H    0.075320
   140  H    0.063952
   141  H    0.054433
   142  H    0.035677
   143  H    0.019815
   144  H    0.037736
   145  H    0.041973
   146  H    0.042258
   147  H    0.028971
   148  H    0.036329
   149  H    0.015318
   150  H    0.040088
   151  H    0.050085
   152  H    0.033934
   153  H    0.047665
   154  H    0.062733
   155  H    0.072049
   156  H    0.050796
   157  H    0.069084
   158  H    0.052458
 Sum of Mulliken charges =  -0.00000

 Dipole moment (field-independent basis, Debye):
    X=             -4.7417    Y=              9.1557    Z=             -3.0388  Tot=             10.7491
 Quadrupole moment (field-independent basis, Debye-Ang):
   XX=           -531.2707   YY=           -504.9323   ZZ=           -503.4552
   XY=             93.6510   XZ=              6.6331   YZ=            -14.5914

 Normal termination of Gaussian 16 at Sun Sep 19 20:44:56 2021.
