 Gaussian 16, Revision A.03,
 Gaussian 16:  ES64L-G16RevA.03 25-Dec-2016

 --------------------------------
 #p wB97XD/Def2SVP td=(nstates=5)
 --------------------------------

 --------------------------------
 TDDFT excited states in gaussian
 --------------------------------
 Symbolic Z-matrix:
 Charge =  0 Multiplicity = 1

                         Standard orientation:
 ---------------------------------------------------------------------
 Center     Atomic      Atomic             Coordinates (Angstroms)
 Number     Number       Type             X           Y           Z
 ---------------------------------------------------------------------
      1         12           0      -20.689147   -0.549221   -0.128195
      2          6           0      -19.830761    2.852409   -0.681635
      3          6           0      -20.148280    0.127076    3.301397
      4          6           0      -21.100559   -3.725100    0.495405
      5          6           0      -20.868997   -1.008418   -3.571069
      6          7           0      -20.038743    1.317801    1.188905
      7          6           0      -19.860788    2.580880    0.679929
      8          6           0      -19.652081    3.634706    1.754275
      9          6           0      -19.633458    2.684556    3.027504
     10          6           0      -19.999292    1.289765    2.497034
     11          6           0      -18.321598    2.823375    3.794292
     12          6           0      -20.816835    4.649026    1.759536
     13          6           0      -20.500292    6.158738    2.083713
     14          1           0      -19.185004    6.483311    2.830361
     15          7           0      -20.711474   -1.652105    1.662596
     16          6           0      -20.386540   -1.197713    2.941053
     17          6           0      -20.517384   -2.328324    3.873743
     18          6           0      -20.897197   -3.447558    3.063338
     19          6           0      -20.951166   -2.922719    1.685423
     20          6           0      -20.213372   -2.235276    5.272817
     21          6           0      -21.170489   -4.884416    3.496360
     22          8           0      -21.396853   -5.772758    2.659487
     23          6           0      -21.347277   -5.222655    4.924526
     24          7           0      -20.846083   -2.163803   -1.372312
     25          6           0      -21.112928   -3.370797   -0.866493
     26          6           0      -21.232454   -4.441170   -1.999583
     27          6           0      -21.351297   -3.536773   -3.267208
     28          6           0      -20.995184   -2.173666   -2.762401
     29          6           0      -20.073486   -5.501869   -2.012685
     30          6           0      -22.868740   -3.613605   -3.687539
     31          6           0      -23.886839   -2.536640   -3.176668
     32          7           0      -20.520781    0.646435   -1.803178
     33          6           0      -20.609283    0.293934   -3.162080
     34          6           0      -20.310996    1.499266   -3.974835
     35          6           0      -19.956575    2.466021   -3.041137
     36          6           0      -20.109640    1.980788   -1.759607
     37          6           0      -20.131085    1.388913   -5.412151
     38          6           0      -19.388703    3.809477   -2.959335
     39          8           0      -19.053588    4.543157   -3.882434
     40          6           0      -19.250905    4.126931   -1.396627
     41          6           0      -17.847114    4.439374   -1.034027
     42          8           0      -17.014327    3.644204   -0.608242
     43          8           0      -17.616422    5.813103   -1.237333
     44          6           0      -16.313388    6.400718   -1.022545
     45          1           0      -20.244387    0.297580    4.376078
     46          1           0      -21.265407   -4.795892    0.634827
     47          1           0      -20.998273   -1.266813   -4.623869
     48          1           0      -18.710592    4.172239    1.638396
     49          1           0      -20.366038    3.100731    3.718503
     50          1           0      -18.429625    3.082087    4.847036
     51          1           0      -17.597847    3.528242    3.385017
     52          1           0      -17.875470    1.828322    3.820929
     53          1           0      -21.600639    4.335352    2.448896
     54          1           0      -21.192040    4.520466    0.743662
     55          1           0      -21.252188    6.565994    2.758828
     56          1           0      -20.718667    6.696454    1.161081
     57          1           0      -21.086762   -2.620209    5.799633
     58          1           0      -19.799566   -1.257639    5.518098
     59          1           0      -19.338297   -2.884197    5.320167
     60          1           0      -20.418254   -5.203370    5.495103
     61          1           0      -21.724198   -6.241668    5.009853
     62          1           0      -21.949873   -4.435431    5.376662
     63          1           0      -22.155990   -4.913244   -1.664346
     64          1           0      -20.751942   -3.916509   -4.095041
     65          1           0      -20.387922   -6.404181   -1.488053
     66          1           0      -19.191410   -5.004709   -1.610404
     67          1           0      -19.892356   -5.730160   -3.062874
     68          1           0      -23.216414   -4.642183   -3.589283
     69          1           0      -22.845700   -3.297182   -4.730770
     70          1           0      -24.755793   -3.130195   -2.894052
     71          1           0      -24.194749   -1.837057   -3.954831
     72          1           0      -23.586726   -1.971690   -2.294798
     73          1           0      -19.458418    0.556161   -5.613445
     74          1           0      -19.638449    2.307720   -5.731889
     75          1           0      -21.089626    1.414548   -5.929749
     76          1           0      -19.861837    5.021323   -1.270582
     77          1           0      -15.724868    6.493673   -1.934966
     78          1           0      -15.829797    5.983704   -0.139047
     79          1           0      -16.597470    7.379382   -0.634691
     80         12           0       19.855867   -0.811911   -0.136769
     81          6           0       21.484263    2.212309   -0.390417
     82          6           0       17.583586    0.720980    2.155669
     83          6           0       18.471539   -3.730332    0.436927
     84          6           0       22.199857   -2.299837   -2.247533
     85          7           0       19.633337    1.244839    0.719885
     86          6           0       20.386825    2.314162    0.447159
     87          6           0       19.779003    3.559302    1.171626
     88          6           0       18.604445    2.972244    2.081036
     89          6           0       18.627944    1.489924    1.660802
     90          6           0       18.823856    2.982890    3.581664
     91          6           0       19.360825    4.706998    0.240189
     92          6           0       19.945401    6.032918    0.697246
     93          1           0       19.250202    7.361626    0.366564
     94          7           0       18.199079   -1.386022    1.066490
     95          6           0       17.380493   -0.648789    1.872687
     96          6           0       16.359262   -1.414327    2.434781
     97          6           0       16.639446   -2.774657    2.060169
     98          6           0       17.815681   -2.683151    1.127617
     99          6           0       15.252743   -0.848599    3.313098
    100          6           0       15.955881   -4.052885    2.517574
    101          8           0       16.467587   -5.144648    2.202040
    102          6           0       14.785932   -4.035593    3.414382
    103          7           0       20.274587   -2.674760   -0.837115
    104          6           0       19.516995   -3.781975   -0.514766
    105          6           0       20.016392   -5.127766   -1.160092
    106          6           0       21.038045   -4.536901   -2.223006
    107          6           0       21.205785   -3.085167   -1.738388
    108          6           0       20.675540   -6.267566   -0.287276
    109          6           0       20.741394   -4.764942   -3.774568
    110          6           0       19.689053   -3.869170   -4.372797
    111          7           0       21.560815   -0.281648   -1.017650
    112          6           0       22.441711   -0.946501   -1.849293
    113          6           0       23.488596   -0.118247   -2.289754
    114          6           0       23.115186    1.124469   -1.765133
    115          6           0       21.925139    0.999737   -0.990588
    116          6           0       24.530032   -0.592855   -3.211225
    117          6           0       23.628209    2.436691   -1.668532
    118          8           0       24.707224    2.856930   -2.091087
    119          6           0       22.571790    3.270272   -0.771816
    120          6           0       23.262058    3.830003    0.376857
    121          8           0       23.634576    3.233387    1.361171
    122          8           0       23.547954    5.108918    0.166013
    123          6           0       24.337987    5.813502    1.129974
    124          1           0       16.926637    1.184914    2.893764
    125          1           0       18.121475   -4.760242    0.529394
    126          1           0       22.912885   -2.805482   -2.902104
    127          1           0       20.616182    3.831216    1.813715
    128          1           0       17.756411    3.637693    1.915598
    129          1           0       19.731546    3.494210    3.903612
    130          1           0       18.933459    1.964264    3.952836
    131          1           0       17.918730    3.324223    4.084905
    132          1           0       18.285046    4.824917    0.109042
    133          1           0       19.720713    4.465351   -0.759630
    134          1           0       20.896992    6.133130    0.173944
    135          1           0       20.050790    5.955228    1.779190
    136          1           0       15.226119    0.240503    3.276311
    137          1           0       15.493726   -1.056336    4.355862
    138          1           0       14.301935   -1.341150    3.112934
    139          1           0       14.674773   -4.992699    3.925231
    140          1           0       13.905606   -3.918110    2.781701
    141          1           0       14.886363   -3.241142    4.153488
    142          1           0       19.261268   -5.585265   -1.800092
    143          1           0       21.977159   -5.081996   -2.136501
    144          1           0       20.672167   -5.933304    0.749451
    145          1           0       21.747671   -6.286626   -0.486907
    146          1           0       20.271427   -7.277443   -0.363315
    147          1           0       20.333818   -5.772393   -3.854745
    148          1           0       21.632240   -4.769087   -4.401483
    149          1           0       19.963679   -3.715404   -5.415782
    150          1           0       19.443793   -2.909142   -3.920331
    151          1           0       18.747638   -4.413888   -4.301070
    152          1           0       24.276307   -1.368693   -3.933137
    153          1           0       25.504646   -0.795814   -2.768979
    154          1           0       24.739325    0.320473   -3.767539
    155          1           0       22.176775    4.076138   -1.390096
    156          1           0       23.728780    6.275904    1.907444
    157          1           0       24.824143    6.632339    0.599955
    158          1           0       25.041691    5.128844    1.603654
 ---------------------------------------------------------------------

 SCF Done:  E(RwB97XD) =  -4070.62253422     A.U. after   19 cycles

 Excitation energies and oscillator strengths:

 Excited State   1:      Singlet-A      1.6476 eV  752.50 nm  f=0.4118  <S**2>=0.000
     309 -> 316        0.17814
     311 -> 313        0.68443
     309 <- 316        0.11440
 This state for optimization and/or second-order correction.
 Total Energy, E(TD-HF/TD-DFT) =  -4070.56198472
 Copying the excited state density for this state as the 1-particle RhoCI density.

 Excited State   2:      Singlet-A      1.6998 eV  729.40 nm  f=0.3744  <S**2>=0.000
     310 -> 315       -0.19453
     312 -> 314        0.67891
     310 <- 315       -0.11677

 Excited State   3:      Singlet-A      2.1651 eV  572.66 nm  f=0.1549  <S**2>=0.000
     309 -> 313        0.65105
     311 -> 316       -0.25707

 Excited State   4:      Singlet-A      2.2204 eV  558.38 nm  f=0.0708  <S**2>=0.000
     310 -> 314        0.62144
     312 -> 315        0.32314

 Excited State   5:      Singlet-A      3.3545 eV  369.61 nm  f=0.0032  <S**2>=0.000
     306 -> 318       -0.10704
     307 -> 313        0.67498

 The electronic state is 1-A.
 Alpha  occ. eigenvalues --  -46.94851 -46.94027 -19.30005 -19.29242 -19.24828
 Alpha  occ. eigenvalues --  -19.24356 -19.23836 -19.23643 -19.23528 -19.23288
 Alpha  occ. eigenvalues --  -14.46888 -14.46780 -14.46758 -14.45861 -14.44315
 Alpha  occ. eigenvalues --  -14.44310 -14.43554 -14.43539 -10.43344 -10.42084
 Alpha  occ. eigenvalues --  -10.39394 -10.39316 -10.38837 -10.38518 -10.35555
 Alpha  occ. eigenvalues --  -10.35234 -10.35151 -10.35076 -10.34920 -10.34919
 Alpha  occ. eigenvalues --  -10.34797 -10.34775 -10.34558 -10.34474 -10.34461
 Alpha  occ. eigenvalues --  -10.34228 -10.34132 -10.33407 -10.33252 -10.33237
 Alpha  occ. eigenvalues --  -10.33181 -10.33043 -10.32971 -10.32936 -10.32605
 Alpha  occ. eigenvalues --  -10.32475 -10.32429 -10.32397 -10.32297 -10.32228
 Alpha  occ. eigenvalues --  -10.32188 -10.32010 -10.31731 -10.31720 -10.31638
 Alpha  occ. eigenvalues --  -10.31627 -10.31614 -10.31603 -10.31468 -10.31443
 Alpha  occ. eigenvalues --  -10.31435 -10.31379 -10.31374 -10.31225 -10.31213
 Alpha  occ. eigenvalues --  -10.31087 -10.30784 -10.30709 -10.30513 -10.30426
 Alpha  occ. eigenvalues --  -10.30419 -10.30325 -10.30286 -10.30252 -10.30164
 Alpha  occ. eigenvalues --  -10.30016 -10.29632 -10.29614 -10.29417 -10.29393
 Alpha  occ. eigenvalues --  -10.29228 -10.29112 -10.28935 -10.28755 -10.28702
 Alpha  occ. eigenvalues --  -10.28658  -3.20841  -3.20219  -1.94437  -1.93975
 Alpha  occ. eigenvalues --   -1.93815  -1.93798  -1.93366  -1.93197  -1.20087
 Alpha  occ. eigenvalues --   -1.16828  -1.11888  -1.11475  -1.11075  -1.10718
 Alpha  occ. eigenvalues --   -1.09949  -1.09455  -1.06824  -1.06597  -1.06113
 Alpha  occ. eigenvalues --   -1.05746  -1.05323  -1.05099  -1.04573  -1.03384
 Alpha  occ. eigenvalues --   -0.94038  -0.93951  -0.91890  -0.91269  -0.90639
 Alpha  occ. eigenvalues --   -0.90552  -0.90264  -0.90198  -0.89572  -0.89437
 Alpha  occ. eigenvalues --   -0.89322  -0.88720  -0.88657  -0.88115  -0.86512
 Alpha  occ. eigenvalues --   -0.86081  -0.85743  -0.85224  -0.84824  -0.84602
 Alpha  occ. eigenvalues --   -0.84317  -0.83881  -0.83137  -0.82777  -0.82558
 Alpha  occ. eigenvalues --   -0.82430  -0.80980  -0.80305  -0.79243  -0.79031
 Alpha  occ. eigenvalues --   -0.78823  -0.78792  -0.77873  -0.77720  -0.77206
 Alpha  occ. eigenvalues --   -0.76755  -0.75429  -0.74115  -0.73414  -0.73303
 Alpha  occ. eigenvalues --   -0.71549  -0.71152  -0.70886  -0.70820  -0.69853
 Alpha  occ. eigenvalues --   -0.69738  -0.69079  -0.68763  -0.67330  -0.66952
 Alpha  occ. eigenvalues --   -0.66909  -0.66655  -0.66561  -0.66445  -0.66342
 Alpha  occ. eigenvalues --   -0.66196  -0.64291  -0.63540  -0.62412  -0.62385
 Alpha  occ. eigenvalues --   -0.61977  -0.61332  -0.61068  -0.60984  -0.60485
 Alpha  occ. eigenvalues --   -0.60294  -0.60036  -0.59860  -0.59657  -0.59164
 Alpha  occ. eigenvalues --   -0.58494  -0.58295  -0.58086  -0.57485  -0.57221
 Alpha  occ. eigenvalues --   -0.57087  -0.56578  -0.56286  -0.56194  -0.55959
 Alpha  occ. eigenvalues --   -0.55772  -0.55444  -0.55312  -0.55121  -0.55121
 Alpha  occ. eigenvalues --   -0.54728  -0.54691  -0.54441  -0.54226  -0.54205
 Alpha  occ. eigenvalues --   -0.54007  -0.53728  -0.53663  -0.53461  -0.53273
 Alpha  occ. eigenvalues --   -0.53247  -0.52785  -0.52514  -0.52262  -0.52207
 Alpha  occ. eigenvalues --   -0.51920  -0.51915  -0.51729  -0.51594  -0.51560
 Alpha  occ. eigenvalues --   -0.51409  -0.51148  -0.51067  -0.50920  -0.50860
 Alpha  occ. eigenvalues --   -0.50852  -0.50459  -0.50343  -0.50317  -0.50055
 Alpha  occ. eigenvalues --   -0.50044  -0.49700  -0.49567  -0.49321  -0.49278
 Alpha  occ. eigenvalues --   -0.48875  -0.48800  -0.48638  -0.48444  -0.48300
 Alpha  occ. eigenvalues --   -0.48045  -0.47955  -0.47938  -0.47430  -0.47338
 Alpha  occ. eigenvalues --   -0.47308  -0.47046  -0.46955  -0.46850  -0.46516
 Alpha  occ. eigenvalues --   -0.46506  -0.46286  -0.46228  -0.46170  -0.46006
 Alpha  occ. eigenvalues --   -0.45841  -0.45829  -0.45573  -0.45551  -0.45427
 Alpha  occ. eigenvalues --   -0.45394  -0.45305  -0.45191  -0.44924  -0.44600
 Alpha  occ. eigenvalues --   -0.44476  -0.44456  -0.43912  -0.43873  -0.43705
 Alpha  occ. eigenvalues --   -0.43514  -0.43413  -0.43366  -0.43323  -0.43001
 Alpha  occ. eigenvalues --   -0.42904  -0.42897  -0.42613  -0.42370  -0.42228
 Alpha  occ. eigenvalues --   -0.41774  -0.41299  -0.41099  -0.40850  -0.40524
 Alpha  occ. eigenvalues --   -0.40093  -0.39725  -0.39650  -0.39380  -0.39158
 Alpha  occ. eigenvalues --   -0.39121  -0.38638  -0.38620  -0.38324  -0.38139
 Alpha  occ. eigenvalues --   -0.38103  -0.37656  -0.36218  -0.36139  -0.36027
 Alpha  occ. eigenvalues --   -0.35787  -0.35541  -0.35373  -0.33662  -0.33207
 Alpha  occ. eigenvalues --   -0.33167  -0.32802  -0.32708  -0.32543  -0.32406
 Alpha  occ. eigenvalues --   -0.32211  -0.31934  -0.31489  -0.26035  -0.25829
 Alpha  occ. eigenvalues --   -0.23278  -0.22606
 Alpha virt. eigenvalues --   -0.07454  -0.06503   0.00188   0.00507   0.02278
 Alpha virt. eigenvalues --    0.02544   0.04263   0.04592   0.06226   0.06356
 Alpha virt. eigenvalues --    0.07062   0.07650   0.07933   0.08257   0.08287

 Mulliken charges:
               1
     1  Mg   0.958958
     2  C    0.014328
     3  C   -0.116096
     4  C   -0.071730
     5  C   -0.091864
     6  N   -0.268468
     7  C   -0.050334
     8  C   -0.080365
     9  C   -0.081188
    10  C    0.061427
    11  C    0.017860
    12  C   -0.000847
    13  C   -0.101161
    14  H    0.041833
    15  N   -0.420441
    16  C    0.160645
    17  C   -0.187147
    18  C   -0.089570
    19  C    0.145943
    20  C    0.087416
    21  C    0.060893
    22  O   -0.251524
    23  C   -0.004535
    24  N   -0.411518
    25  C    0.041761
    26  C   -0.106380
    27  C   -0.056886
    28  C    0.053323
    29  C    0.041967
    30  C   -0.057123
    31  C   -0.040322
    32  N   -0.481860
    33  C    0.164245
    34  C   -0.192702
    35  C   -0.021547
    36  C    0.159817
    37  C    0.077982
    38  C    0.119473
    39  O   -0.196993
    40  C   -0.104533
    41  C    0.296023
    42  O   -0.245706
    43  O   -0.393111
    44  C    0.148814
    45  H    0.010764
    46  H    0.016649
    47  H   -0.005058
    48  H    0.045953
    49  H    0.028875
    50  H    0.025212
    51  H    0.045262
    52  H    0.027048
    53  H    0.030868
    54  H    0.034388
    55  H    0.044138
    56  H    0.052233
    57  H    0.062373
    58  H    0.037735
    59  H    0.061539
    60  H    0.050592
    61  H    0.063478
    62  H    0.049891
    63  H    0.039337
    64  H    0.036123
    65  H    0.056279
    66  H    0.049477
    67  H    0.029634
    68  H    0.044674
    69  H    0.027437
    70  H    0.033440
    71  H    0.043558
    72  H    0.047345
    73  H    0.057799
    74  H    0.044345
    75  H    0.045859
    76  H    0.075012
    77  H    0.071667
    78  H    0.047310
    79  H    0.040009
    80  Mg   0.992402
    81  C   -0.044649
    82  C   -0.105223
    83  C   -0.051586
    84  C   -0.104092
    85  N   -0.349875
    86  C   -0.028374
    87  C   -0.021328
    88  C   -0.162805
    89  C    0.116260
    90  C    0.006186
    91  C    0.037932
    92  C   -0.145889
    93  H    0.028853
    94  N   -0.425453
    95  C    0.160133
    96  C   -0.175128
    97  C   -0.074187
    98  C    0.171509
    99  C    0.066538
   100  C    0.038176
   101  O   -0.260173
   102  C    0.004541
   103  N   -0.396185
   104  C    0.027579
   105  C   -0.070170
   106  C   -0.076072
   107  C    0.087123
   108  C    0.029259
   109  C   -0.031233
   110  C   -0.058226
   111  N   -0.470207
   112  C    0.132121
   113  C   -0.134419
   114  C   -0.037916
   115  C    0.195199
   116  C    0.072314
   117  C    0.096127
   118  O   -0.219414
   119  C   -0.078101
   120  C    0.235377
   121  O   -0.251512
   122  O   -0.328023
   123  C    0.135820
   124  H   -0.002131
   125  H    0.021857
   126  H   -0.004720
   127  H    0.033182
   128  H    0.042993
   129  H    0.043807
   130  H    0.040409
   131  H    0.035200
   132  H    0.039576
   133  H    0.030044
   134  H    0.063168
   135  H    0.056120
   136  H    0.042443
   137  H    0.057020
   138  H    0.056376
   139  H    0.055862
   140  H    0.067073
   141  H    0.044995
   142  H    0.038435
   143  H    0.027403
   144  H    0.039868
   145  H    0.027319
   146  H    0.056780
   147  H    0.029189
   148  H    0.032951
   149  H    0.037810
   150  H    0.047636
   151  H    0.028772
   152  H    0.046030
   153  H    0.055574
   154  H    0.045404
   155  H    0.065550
   156  H    0.042551
   157  H    0.055544
   158  H    0.066702
 Sum of Mulliken charges =  -0.00000

 Dipole moment (field-independent basis, Debye):
    X=             -6.1108    Y=             -0.5144    Z=              4.6705  Tot=              7.7085
 Quadrupole moment (field-independent basis, Debye-Ang):
   XX=           -618.7153   YY=           -504.7490   ZZ=           -473.6441
   XY=            -12.3905   XZ=            -82.1194   YZ=             46.2647

 Normal termination of Gaussian 16 at Sun Sep 19 05:34:45 2021.
