 Gaussian 16, Revision A.03,
 Gaussian 16:  ES64L-G16RevA.03 25-Dec-2016

 --------------------------------
 #p wB97XD/Def2SVP td=(nstates=5)
 --------------------------------

 --------------------------------
 TDDFT excited states in gaussian
 --------------------------------
 Symbolic Z-matrix:
 Charge =  0 Multiplicity = 1

                         Standard orientation:
 ---------------------------------------------------------------------
 Center     Atomic      Atomic             Coordinates (Angstroms)
 Number     Number       Type             X           Y           Z
 ---------------------------------------------------------------------
      1         12           0        0.748815    0.197377   -0.401714
      2          6           0       -2.743272    0.249838   -0.362138
      3          6           0        0.521997   -3.284205   -0.053046
      4          6           0        4.047496    0.020213    0.133354
      5          6           0        0.746028    3.567631    0.294476
      6          7           0       -0.951988   -1.412419   -0.329273
      7          6           0       -2.262032   -1.053172   -0.273088
      8          6           0       -3.181186   -2.330324   -0.128703
      9          6           0       -2.074625   -3.446423    0.227615
     10          6           0       -0.754224   -2.695026   -0.011473
     11          6           0       -2.189402   -3.743029    1.765098
     12          6           0       -3.826856   -2.604387   -1.536554
     13          6           0       -4.677710   -3.893988   -1.694000
     14          1           0       -4.680514   -4.890873   -2.814521
     15          7           0        2.074019   -1.410862   -0.220567
     16          6           0        1.828359   -2.791361   -0.133580
     17          6           0        3.063574   -3.438589    0.015616
     18          6           0        4.101793   -2.526272   -0.117134
     19          6           0        3.426182   -1.239686   -0.082211
     20          6           0        3.126308   -4.929304    0.085094
     21          6           0        5.652696   -2.730782   -0.109245
     22          8           0        6.478544   -1.835382   -0.251276
     23          6           0        6.288934   -4.123195   -0.136199
     24          7           0        2.144921    1.586175    0.250253
     25          6           0        3.463679    1.289353    0.246452
     26          6           0        4.375277    2.522671    0.399052
     27          6           0        3.314600    3.641852    0.591831
     28          6           0        2.000112    2.960520    0.256117
     29          6           0        5.509094    2.365373    1.465980
     30          6           0        3.539683    4.974109   -0.174472
     31          6           0        3.257003    4.957368   -1.616760
     32          7           0       -0.658954    1.674077   -0.181441
     33          6           0       -0.535216    2.953318    0.086559
     34          6           0       -1.823190    3.652469    0.032288
     35          6           0       -2.723894    2.556228   -0.158170
     36          6           0       -1.989170    1.389734   -0.242496
     37          6           0       -2.094468    5.062124   -0.217425
     38          6           0       -4.132382    2.246241   -0.330481
     39          8           0       -5.093175    2.973843   -0.439719
     40          6           0       -4.170980    0.714529   -0.393672
     41          6           0       -5.082763    0.124029    0.687012
     42          8           0       -4.773663    0.002048    1.843785
     43          8           0       -6.309957   -0.163500    0.138957
     44          6           0       -7.247982   -0.748889    1.124356
     45          1           0        0.440179   -4.372101   -0.076108
     46          1           0        5.139114    0.022570    0.096775
     47          1           0        1.029705    4.617590    0.385176
     48          1           0       -3.886561   -2.246600    0.698453
     49          1           0       -2.162059   -4.371730   -0.343189
     50          1           0       -1.406276   -3.330768    2.400573
     51          1           0       -1.976303   -4.789094    1.986550
     52          1           0       -3.142434   -3.446787    2.202888
     53          1           0       -3.019008   -2.597058   -2.267784
     54          1           0       -4.418578   -1.724135   -1.789245
     55          1           0       -5.696739   -3.554748   -1.505697
     56          1           0       -4.303735   -4.477296   -0.853483
     57          1           0        2.164974   -5.443724    0.079859
     58          1           0        3.800160   -5.196491    0.900270
     59          1           0        3.611830   -5.207383   -0.850746
     60          1           0        6.126378   -4.698415    0.775348
     61          1           0        7.340944   -4.137281   -0.421564
     62          1           0        5.834887   -4.647787   -0.977089
     63          1           0        4.799153    2.503941   -0.604591
     64          1           0        3.309359    3.815555    1.667892
     65          1           0        5.814358    1.323785    1.560396
     66          1           0        5.138302    2.700747    2.434912
     67          1           0        6.413939    2.914462    1.204664
     68          1           0        4.601839    5.142572    0.000339
     69          1           0        3.021062    5.784522    0.338106
     70          1           0        2.190131    5.110174   -1.778884
     71          1           0        3.625324    4.041446   -2.078439
     72          1           0        3.718315    5.800677   -2.131547
     73          1           0       -1.215992    5.421334   -0.753996
     74          1           0       -2.159909    5.758674    0.618568
     75          1           0       -3.016430    5.100797   -0.796625
     76          1           0       -4.535658    0.434093   -1.382384
     77          1           0       -8.253400   -0.400044    0.889433
     78          1           0       -7.160780   -0.381931    2.147238
     79          1           0       -7.262115   -1.835901    1.051909
 ---------------------------------------------------------------------

 SCF Done:  E(RwB97XD) =  -2035.32010795     A.U. after   20 cycles

 Excitation energies and oscillator strengths:

 Excited State   1:      Singlet-A      1.6939 eV  731.93 nm  f=0.3887  <S**2>=0.000
     155 ->158        -0.19062
     156 ->157         0.68141
     155 <-158        -0.11529
 This state for optimization and/or second-order correction.
 Total Energy, E(TD-HF/TD-DFT) =  -2035.25785715
 Copying the excited state density for this state as the 1-particle RhoCI density.

 Excited State   2:      Singlet-A      2.2137 eV  560.07 nm  f=0.1130  <S**2>=0.000
     155 ->157         0.64258
     156 ->158         0.27812

 Excited State   3:      Singlet-A      3.4507 eV  359.30 nm  f=0.0475  <S**2>=0.000
     153 ->157         0.54972
     154 ->157        -0.31260
     156 ->158        -0.23881

 Excited State   4:      Singlet-A      3.5576 eV  348.50 nm  f=0.0958  <S**2>=0.000
     152 ->157        -0.13193
     153 ->157         0.11278
     154 ->157         0.54220
     155 ->157         0.10430
     156 ->158        -0.35874

 Excited State   5:      Singlet-A      3.6751 eV  337.37 nm  f=0.3481  <S**2>=0.000
     151 ->157         0.37668
     151 ->159         0.24059
     151 ->160        -0.17799
     153 ->157        -0.19773
     154 ->157        -0.14798
     155 ->157         0.18708
     156 ->158        -0.34898

 The electronic state is 1-A.
 Alpha  occ. eigenvalues --  -46.95056 -19.31021 -19.25343 -19.24498 -19.23854
 Alpha  occ. eigenvalues --  -14.46860 -14.45619 -14.43786 -14.43693 -10.43637
 Alpha  occ. eigenvalues --  -10.40200 -10.38491 -10.35563 -10.35130 -10.34685
 Alpha  occ. eigenvalues --  -10.34570 -10.34463 -10.33943 -10.33742 -10.33573
 Alpha  occ. eigenvalues --  -10.32757 -10.32676 -10.32649 -10.32575 -10.32004
 Alpha  occ. eigenvalues --  -10.31730 -10.31691 -10.31654 -10.31570 -10.31528
 Alpha  occ. eigenvalues --  -10.31376 -10.31155 -10.31012 -10.30910 -10.30255
 Alpha  occ. eigenvalues --  -10.30100 -10.29979 -10.29875 -10.29712 -10.29327
 Alpha  occ. eigenvalues --  -10.29108 -10.28933 -10.28308  -3.21062  -1.94635
 Alpha  occ. eigenvalues --   -1.94198  -1.94019  -1.18996  -1.12654  -1.12512
 Alpha  occ. eigenvalues --   -1.10970  -1.06965  -1.05804  -1.05361  -1.04507
 Alpha  occ. eigenvalues --   -0.95801  -0.91286  -0.90517  -0.90097  -0.89463
 Alpha  occ. eigenvalues --   -0.89139  -0.88115  -0.85984  -0.85518  -0.84305
 Alpha  occ. eigenvalues --   -0.83470  -0.82861  -0.82372  -0.80506  -0.79522
 Alpha  occ. eigenvalues --   -0.78516  -0.78053  -0.76810  -0.74455  -0.73763
 Alpha  occ. eigenvalues --   -0.71958  -0.71134  -0.70319  -0.69030  -0.67341
 Alpha  occ. eigenvalues --   -0.66783  -0.66413  -0.65975  -0.64484  -0.62105
 Alpha  occ. eigenvalues --   -0.61453  -0.61334  -0.60566  -0.60246  -0.59346
 Alpha  occ. eigenvalues --   -0.58479  -0.57603  -0.57470  -0.57230  -0.56561
 Alpha  occ. eigenvalues --   -0.55939  -0.55228  -0.55072  -0.54598  -0.54510
 Alpha  occ. eigenvalues --   -0.54032  -0.53066  -0.52920  -0.52506  -0.52274
 Alpha  occ. eigenvalues --   -0.51869  -0.51610  -0.51372  -0.51167  -0.50903
 Alpha  occ. eigenvalues --   -0.50742  -0.50459  -0.49847  -0.49437  -0.49053
 Alpha  occ. eigenvalues --   -0.48614  -0.48070  -0.47904  -0.47641  -0.47276
 Alpha  occ. eigenvalues --   -0.46992  -0.46912  -0.46639  -0.46351  -0.46124
 Alpha  occ. eigenvalues --   -0.45987  -0.45765  -0.45619  -0.45266  -0.45179
 Alpha  occ. eigenvalues --   -0.44834  -0.44524  -0.44426  -0.44312  -0.43810
 Alpha  occ. eigenvalues --   -0.43622  -0.42630  -0.42156  -0.41507  -0.40730
 Alpha  occ. eigenvalues --   -0.40397  -0.39820  -0.39674  -0.39323  -0.38818
 Alpha  occ. eigenvalues --   -0.38272  -0.36906  -0.36257  -0.35408  -0.33621
 Alpha  occ. eigenvalues --   -0.33103  -0.32777  -0.32261  -0.31332  -0.25731
 Alpha  occ. eigenvalues --   -0.22892
 Alpha virt. eigenvalues --   -0.06727   0.00595   0.02484   0.04350   0.05389
 Alpha virt. eigenvalues --    0.07350   0.08067   0.08844   0.09794   0.10750
 Alpha virt. eigenvalues --    0.11586   0.12412   0.12817   0.13317   0.13863

 Mulliken charges:
               1
     1  Mg   0.973303
     2  C   -0.006719
     3  C   -0.074270
     4  C   -0.111436
     5  C   -0.060547
     6  N   -0.281988
     7  C   -0.051636
     8  C   -0.080874
     9  C   -0.121277
    10  C    0.038142
    11  C    0.009294
    12  C   -0.013342
    13  C   -0.096429
    14  H    0.058576
    15  N   -0.474652
    16  C    0.176517
    17  C   -0.164458
    18  C   -0.081348
    19  C    0.151250
    20  C    0.071033
    21  C    0.085460
    22  O   -0.233794
    23  C   -0.021476
    24  N   -0.406302
    25  C    0.075795
    26  C   -0.112133
    27  C   -0.035726
    28  C   -0.010103
    29  C    0.035643
    30  C   -0.020863
    31  C   -0.015369
    32  N   -0.411394
    33  C    0.152357
    34  C   -0.157210
    35  C   -0.070595
    36  C    0.151159
    37  C    0.070530
    38  C    0.116320
    39  O   -0.187639
    40  C   -0.074608
    41  C    0.263625
    42  O   -0.227589
    43  O   -0.360622
    44  C    0.124782
    45  H   -0.012630
    46  H    0.022447
    47  H   -0.019478
    48  H    0.047384
    49  H    0.048692
    50  H    0.042537
    51  H    0.025852
    52  H    0.050549
    53  H    0.035472
    54  H    0.032166
    55  H    0.051117
    56  H    0.036224
    57  H    0.044504
    58  H    0.048717
    59  H    0.050258
    60  H    0.058350
    61  H    0.054770
    62  H    0.041271
    63  H    0.041045
    64  H    0.042843
    65  H    0.049031
    66  H    0.031772
    67  H    0.040082
    68  H    0.022775
    69  H    0.034914
    70  H    0.032021
    71  H    0.032800
    72  H    0.035423
    73  H    0.029560
    74  H    0.041851
    75  H    0.063986
    76  H    0.079184
    77  H    0.049953
    78  H    0.069106
    79  H    0.056067
 Sum of Mulliken charges =  -0.00000

 Dipole moment (field-independent basis, Debye):
    X=              1.7530    Y=             -3.7557    Z=             -0.6611  Tot=              4.1970
 Quadrupole moment (field-independent basis, Debye-Ang):
   XX=           -263.9083   YY=           -226.4292   ZZ=           -257.9511
   XY=             21.9572   XZ=             -1.6678   YZ=             -1.3464

 Normal termination of Gaussian 16 at Sat Sep 18 18:36:51 2021.
