 Gaussian 16, Revision A.03,
 Gaussian 16:  ES64L-G16RevA.03 25-Dec-2016

 --------------------------------
 #p wB97XD/Def2SVP td=(nstates=5)
 --------------------------------

 --------------------------------
 TDDFT excited states in gaussian
 --------------------------------
 Symbolic Z-matrix:
 Charge =  0 Multiplicity = 1

                         Standard orientation:
 ---------------------------------------------------------------------
 Center     Atomic      Atomic             Coordinates (Angstroms)
 Number     Number       Type             X           Y           Z
 ---------------------------------------------------------------------
      1         12           0        4.900344    0.539256    0.278546
      2          6           0        2.859227   -2.074523    1.137362
      3          6           0        7.396166   -1.598540   -0.353961
      4          6           0        6.851827    3.226882   -0.297241
      5          6           0        2.330244    2.814571    1.477212
      6          7           0        5.157010   -1.629720    0.654769
      7          6           0        4.178454   -2.511793    0.891280
      8          6           0        4.742387   -4.022403    0.815586
      9          6           0        6.208405   -3.738191    0.316591
     10          6           0        6.315486   -2.202691    0.224030
     11          6           0        7.295462   -4.432248    1.160120
     12          6           0        3.929945   -4.949023   -0.132901
     13          6           0        4.569867   -6.307053   -0.570128
     14          1           0        4.047844   -7.620307    0.127114
     15          7           0        6.889556    0.780625   -0.211082
     16          6           0        7.718009   -0.193133   -0.526409
     17          6           0        8.986999    0.390526   -0.934074
     18          6           0        8.923352    1.812738   -0.831436
     19          6           0        7.509687    1.997541   -0.436264
     20          6           0       10.254093   -0.386285   -1.251388
     21          6           0       10.002207    2.874311   -1.019077
     22          8           0        9.841840    4.019746   -0.607628
     23          6           0       11.265326    2.496414   -1.710352
     24          7           0        4.633448    2.718716    0.599585
     25          6           0        5.566618    3.590090    0.235279
     26          6           0        5.066424    5.041700    0.319764
     27          6           0        3.598509    4.817847    0.673631
     28          6           0        3.536398    3.364850    0.964621
     29          6           0        5.809127    6.007424    1.255087
     30          6           0        2.628310    5.428952   -0.305460
     31          6           0        1.699408    6.564180    0.255278
     32          7           0        3.015342    0.440388    1.063745
     33          6           0        2.040812    1.427718    1.431793
     34          6           0        0.780682    0.811788    1.785006
     35          6           0        1.109022   -0.565795    1.649146
     36          6           0        2.437778   -0.718399    1.233582
     37          6           0       -0.563491    1.392552    2.049992
     38          6           0        0.437388   -1.840710    1.628710
     39          8           0       -0.750510   -2.193687    1.675170
     40          6           0        1.496050   -2.897559    1.435929
     41          6           0        1.687846   -3.644738    2.774146
     42          8           0        1.741900   -3.156207    3.913199
     43          8           0        1.800443   -4.973318    2.489997
     44          6           0        1.959225   -5.920244    3.638938
     45          1           0        8.243951   -2.188333   -0.708760
     46          1           0        7.458559    4.134240   -0.265012
     47          1           0        1.561319    3.559551    1.689554
     48          1           0        4.731141   -4.353672    1.853333
     49          1           0        6.278254   -4.095645   -0.710735
     50          1           0        8.023389   -4.842130    0.460809
     51          1           0        6.897196   -5.274937    1.725344
     52          1           0        7.770792   -3.725487    1.840414
     53          1           0        3.884938   -4.412005   -1.080350
     54          1           0        2.967393   -5.190876    0.317625
     55          1           0        5.613833   -6.277510   -0.256406
     56          1           0        4.410054   -6.438847   -1.639709
     57          1           0       10.092145   -1.461192   -1.171399
     58          1           0       11.040749   -0.102707   -0.552628
     59          1           0       10.621374   -0.171785   -2.254177
     60          1           0       10.948783    1.986464   -2.620647
     61          1           0       12.020902    1.854536   -1.258385
     62          1           0       11.875142    3.359011   -1.976789
     63          1           0        5.135213    5.470889   -0.679236
     64          1           0        3.412439    5.337508    1.613374
     65          1           0        5.830136    6.945221    0.700484
     66          1           0        6.785451    5.605608    1.525685
     67          1           0        5.358968    6.113352    2.242071
     68          1           0        1.952691    4.607395   -0.541408
     69          1           0        3.105493    5.843468   -1.193009
     70          1           0        1.897489    6.717286    1.316473
     71          1           0        0.670362    6.219288    0.149636
     72          1           0        1.721075    7.503082   -0.298164
     73          1           0       -0.566664    2.455573    1.810445
     74          1           0       -0.682669    1.349832    3.132001
     75          1           0       -1.243915    0.813464    1.423998
     76          1           0        1.085591   -3.546412    0.661996
     77          1           0        2.695192   -5.623368    4.386544
     78          1           0        2.158297   -6.951187    3.348184
     79          1           0        1.008308   -5.888388    4.170496
     80         12           0       -4.906344    0.557526   -0.293515
     81          6           0       -2.735382   -1.968216   -1.366917
     82          6           0       -7.314125   -1.786582    0.329667
     83          6           0       -7.006853    3.023019    0.377605
     84          6           0       -2.366988    2.915713   -1.169328
     85          7           0       -4.998120   -1.641500   -0.553592
     86          6           0       -3.997903   -2.507401   -0.936312
     87          6           0       -4.399142   -3.942795   -0.650642
     88          6           0       -5.952362   -3.830792   -0.384484
     89          6           0       -6.053834   -2.293548   -0.099289
     90          6           0       -6.807747   -4.257590   -1.570603
     91          6           0       -3.460980   -4.553088    0.453564
     92          6           0       -3.929818   -5.944504    0.962360
     93          1           0       -4.680276   -6.812496   -0.026248
     94          7           0       -6.814841    0.605695    0.272007
     95          6           0       -7.702965   -0.456784    0.382464
     96          6           0       -9.058225   -0.000345    0.737597
     97          6           0       -8.932765    1.422216    0.785182
     98          6           0       -7.542505    1.730402    0.460598
     99          6           0      -10.182796   -0.927551    1.010282
    100          6           0      -10.036113    2.400765    1.095071
    101          8           0       -9.827493    3.643915    1.161102
    102          6           0      -11.428112    1.931334    1.420720
    103          7           0       -4.683383    2.691139   -0.333417
    104          6           0       -5.732910    3.442736   -0.000066
    105          6           0       -5.407836    4.983175   -0.235649
    106          6           0       -3.876291    4.949611   -0.790796
    107          6           0       -3.622921    3.441482   -0.782283
    108          6           0       -6.467482    5.570193   -1.255677
    109          6           0       -2.820283    5.674306    0.148786
    110          6           0       -2.656700    7.205701   -0.071021
    111          7           0       -3.010261    0.556695   -1.145220
    112          6           0       -2.028247    1.562699   -1.344813
    113          6           0       -0.736357    0.921931   -1.850481
    114          6           0       -0.982956   -0.443912   -1.946229
    115          6           0       -2.362611   -0.619188   -1.424981
    116          6           0        0.567481    1.595344   -2.144464
    117          6           0       -0.432241   -1.743127   -2.253534
    118          8           0        0.675030   -2.096191   -2.671493
    119          6           0       -1.493766   -2.825028   -1.714277
    120          6           0       -1.779486   -3.916205   -2.720519
    121          8           0       -2.611411   -3.834685   -3.583382
    122          8           0       -1.120774   -5.116754   -2.371260
    123          6           0       -1.633303   -6.362541   -2.961220
    124          1           0       -7.985381   -2.642298    0.431386
    125          1           0       -7.709530    3.832844    0.585436
    126          1           0       -1.590386    3.580602   -1.553338
    127          1           0       -4.214435   -4.519321   -1.556173
    128          1           0       -6.315307   -4.341917    0.507799
    129          1           0       -7.459571   -5.045286   -1.193066
    130          1           0       -6.145839   -4.530421   -2.392196
    131          1           0       -7.548176   -3.507895   -1.848550
    132          1           0       -3.331651   -3.698858    1.117414
    133          1           0       -2.489605   -4.664162   -0.027131
    134          1           0       -4.551697   -5.693549    1.821702
    135          1           0       -3.048081   -6.500110    1.281326
    136          1           0      -10.878144   -0.692430    0.204667
    137          1           0      -10.604593   -0.811127    2.008240
    138          1           0      -10.023938   -2.003336    0.925481
    139          1           0      -11.398470    1.351792    2.342388
    140          1           0      -11.624681    1.373536    0.504273
    141          1           0      -12.197171    2.700579    1.485095
    142          1           0       -5.472010    5.346293    0.790823
    143          1           0       -3.720833    5.145852   -1.852508
    144          1           0       -7.190415    4.843297   -1.625538
    145          1           0       -5.955097    5.974910   -2.128882
    146          1           0       -7.048778    6.293267   -0.684287
    147          1           0       -1.878630    5.129553    0.210589
    148          1           0       -3.215561    5.578577    1.159548
    149          1           0       -2.834293    7.679506    0.893769
    150          1           0       -3.331190    7.513796   -0.870027
    151          1           0       -1.644729    7.469056   -0.379609
    152          1           0        1.242193    1.312624   -1.336128
    153          1           0        0.430037    2.675831   -2.201235
    154          1           0        1.095984    1.306610   -3.052751
    155          1           0       -1.067462   -3.230580   -0.797188
    156          1           0       -1.237116   -6.371486   -3.976281
    157          1           0       -2.715214   -6.429258   -2.844913
    158          1           0       -1.228974   -7.172300   -2.354432
 ---------------------------------------------------------------------

 SCF Done:  E(RwB97XD) =  -4070.65002031     A.U. after   19 cycles

 Excitation energies and oscillator strengths:

 Excited State   1:      Singlet-A      1.6070 eV  771.55 nm  f=0.8970  <S**2>=0.000
     310 -> 316       -0.10603
     311 -> 313        0.44678
     312 -> 314        0.51455
 This state for optimization and/or second-order correction.
 Total Energy, E(TD-HF/TD-DFT) =  -4070.59096585
 Copying the excited state density for this state as the 1-particle RhoCI density.

 Excited State   2:      Singlet-A      1.6819 eV  737.15 nm  f=0.0142  <S**2>=0.000
     309 -> 315       -0.12702
     310 -> 316        0.12726
     311 -> 313        0.51405
     312 -> 314       -0.43849

 Excited State   3:      Singlet-A      2.2021 eV  563.03 nm  f=0.0473  <S**2>=0.000
     309 -> 313        0.58346
     310 -> 313        0.13055
     310 -> 314        0.21326
     311 -> 315        0.21285
     311 -> 316       -0.14542
     312 -> 316        0.10418

 Excited State   4:      Singlet-A      2.2301 eV  555.95 nm  f=0.0715  <S**2>=0.000
     309 -> 313       -0.23352
     310 -> 314        0.54198
     312 -> 315        0.20623
     312 -> 316        0.28893

 Excited State   5:      Singlet-A      2.3971 eV  517.23 nm  f=0.0000  <S**2>=0.000
     312 -> 313        0.69536

 The electronic state is 1-A.
 Alpha  occ. eigenvalues --  -46.95391 -46.93884 -19.30902 -19.28759 -19.24704
 Alpha  occ. eigenvalues --  -19.24521 -19.24469 -19.23921 -19.23235 -19.23084
 Alpha  occ. eigenvalues --  -14.46598 -14.46142 -14.46101 -14.45691 -14.44586
 Alpha  occ. eigenvalues --  -14.44108 -14.44026 -14.43822 -10.43475 -10.42725
 Alpha  occ. eigenvalues --  -10.40021 -10.39157 -10.38870 -10.37682 -10.36043
 Alpha  occ. eigenvalues --  -10.35527 -10.35122 -10.34873 -10.34458 -10.34394
 Alpha  occ. eigenvalues --  -10.34394 -10.34295 -10.34289 -10.34230 -10.33994
 Alpha  occ. eigenvalues --  -10.33924 -10.33914 -10.33892 -10.33806 -10.33691
 Alpha  occ. eigenvalues --  -10.32975 -10.32969 -10.32937 -10.32817 -10.32699
 Alpha  occ. eigenvalues --  -10.32697 -10.32644 -10.32157 -10.32144 -10.32103
 Alpha  occ. eigenvalues --  -10.32071 -10.32068 -10.32045 -10.31802 -10.31651
 Alpha  occ. eigenvalues --  -10.31615 -10.31562 -10.31494 -10.31265 -10.31179
 Alpha  occ. eigenvalues --  -10.31068 -10.31043 -10.30937 -10.30886 -10.30590
 Alpha  occ. eigenvalues --  -10.30549 -10.30485 -10.30417 -10.30335 -10.30299
 Alpha  occ. eigenvalues --  -10.30280 -10.30254 -10.30186 -10.29981 -10.29861
 Alpha  occ. eigenvalues --  -10.29856 -10.29815 -10.29737 -10.29731 -10.29573
 Alpha  occ. eigenvalues --  -10.29502 -10.29267 -10.29206 -10.29064 -10.28751
 Alpha  occ. eigenvalues --  -10.28387  -3.21363  -3.19988  -1.94941  -1.94478
 Alpha  occ. eigenvalues --   -1.94348  -1.93587  -1.93101  -1.92994  -1.17797
 Alpha  occ. eigenvalues --   -1.17122  -1.12558  -1.11018  -1.10610  -1.09660
 Alpha  occ. eigenvalues --   -1.09501  -1.08812  -1.07676  -1.06309  -1.05808
 Alpha  occ. eigenvalues --   -1.05748  -1.04996  -1.04856  -1.04389  -1.02914
 Alpha  occ. eigenvalues --   -0.93188  -0.92938  -0.91797  -0.90432  -0.90368
 Alpha  occ. eigenvalues --   -0.89969  -0.89576  -0.89449  -0.89425  -0.89051
 Alpha  occ. eigenvalues --   -0.88954  -0.88833  -0.88242  -0.87844  -0.85975
 Alpha  occ. eigenvalues --   -0.85497  -0.85251  -0.84505  -0.84226  -0.83907
 Alpha  occ. eigenvalues --   -0.83698  -0.83415  -0.82974  -0.82202  -0.81903
 Alpha  occ. eigenvalues --   -0.81470  -0.80507  -0.80394  -0.79477  -0.79021
 Alpha  occ. eigenvalues --   -0.78515  -0.78317  -0.77913  -0.77188  -0.77130
 Alpha  occ. eigenvalues --   -0.76088  -0.74531  -0.73603  -0.73567  -0.72962
 Alpha  occ. eigenvalues --   -0.71406  -0.70943  -0.70696  -0.70359  -0.69716
 Alpha  occ. eigenvalues --   -0.69638  -0.69402  -0.68576  -0.67759  -0.67184
 Alpha  occ. eigenvalues --   -0.66835  -0.66521  -0.66255  -0.65676  -0.65363
 Alpha  occ. eigenvalues --   -0.65085  -0.64645  -0.62799  -0.62671  -0.62244
 Alpha  occ. eigenvalues --   -0.61543  -0.60950  -0.60782  -0.60562  -0.60152
 Alpha  occ. eigenvalues --   -0.59895  -0.59499  -0.59005  -0.58970  -0.58383
 Alpha  occ. eigenvalues --   -0.58210  -0.57733  -0.57516  -0.57248  -0.57024
 Alpha  occ. eigenvalues --   -0.56398  -0.56072  -0.56033  -0.55675  -0.55510
 Alpha  occ. eigenvalues --   -0.55376  -0.55273  -0.55189  -0.54723  -0.54658
 Alpha  occ. eigenvalues --   -0.54500  -0.54227  -0.54120  -0.53841  -0.53551
 Alpha  occ. eigenvalues --   -0.53493  -0.53328  -0.53242  -0.52972  -0.52808
 Alpha  occ. eigenvalues --   -0.52556  -0.52482  -0.52385  -0.52356  -0.51982
 Alpha  occ. eigenvalues --   -0.51746  -0.51719  -0.51624  -0.51606  -0.51256
 Alpha  occ. eigenvalues --   -0.50946  -0.50934  -0.50887  -0.50836  -0.50682
 Alpha  occ. eigenvalues --   -0.50512  -0.50489  -0.50304  -0.50148  -0.49976
 Alpha  occ. eigenvalues --   -0.49869  -0.49589  -0.49571  -0.49333  -0.49145
 Alpha  occ. eigenvalues --   -0.48948  -0.48805  -0.48357  -0.48141  -0.47994
 Alpha  occ. eigenvalues --   -0.47814  -0.47678  -0.47535  -0.47134  -0.47090
 Alpha  occ. eigenvalues --   -0.46854  -0.46812  -0.46682  -0.46645  -0.46461
 Alpha  occ. eigenvalues --   -0.46328  -0.46257  -0.46123  -0.45967  -0.45942
 Alpha  occ. eigenvalues --   -0.45627  -0.45600  -0.45531  -0.45293  -0.44977
 Alpha  occ. eigenvalues --   -0.44787  -0.44587  -0.44562  -0.44543  -0.44186
 Alpha  occ. eigenvalues --   -0.44075  -0.44068  -0.43927  -0.43839  -0.43792
 Alpha  occ. eigenvalues --   -0.43743  -0.43574  -0.43374  -0.43173  -0.43041
 Alpha  occ. eigenvalues --   -0.42855  -0.42623  -0.42365  -0.42208  -0.42076
 Alpha  occ. eigenvalues --   -0.41487  -0.41212  -0.40846  -0.40734  -0.40223
 Alpha  occ. eigenvalues --   -0.40030  -0.39932  -0.39693  -0.39539  -0.39406
 Alpha  occ. eigenvalues --   -0.39098  -0.38627  -0.38248  -0.37962  -0.37758
 Alpha  occ. eigenvalues --   -0.37744  -0.37246  -0.36190  -0.35978  -0.35924
 Alpha  occ. eigenvalues --   -0.35692  -0.35505  -0.34921  -0.33864  -0.33234
 Alpha  occ. eigenvalues --   -0.33023  -0.32720  -0.32648  -0.32330  -0.32200
 Alpha  occ. eigenvalues --   -0.32084  -0.31808  -0.31614  -0.25717  -0.25373
 Alpha  occ. eigenvalues --   -0.22848  -0.21733
 Alpha virt. eigenvalues --   -0.06852  -0.05779   0.00207   0.00304   0.02182
 Alpha virt. eigenvalues --    0.02711   0.04411   0.04807   0.05462   0.07068
 Alpha virt. eigenvalues --    0.07349   0.07712   0.07811   0.08441   0.09050

 Mulliken charges:
               1
     1  Mg   0.970180
     2  C   -0.060039
     3  C   -0.077304
     4  C   -0.049371
     5  C   -0.062474
     6  N   -0.356729
     7  C   -0.023842
     8  C   -0.012121
     9  C   -0.154119
    10  C    0.122417
    11  C    0.024220
    12  C   -0.010392
    13  C   -0.130061
    14  H    0.008937
    15  N   -0.438058
    16  C    0.117670
    17  C   -0.186377
    18  C   -0.059018
    19  C    0.132062
    20  C    0.069748
    21  C    0.087923
    22  O   -0.227397
    23  C   -0.033574
    24  N   -0.273735
    25  C   -0.006627
    26  C   -0.114970
    27  C   -0.055197
    28  C    0.008209
    29  C    0.036177
    30  C    0.000359
    31  C   -0.070756
    32  N   -0.458238
    33  C    0.105055
    34  C   -0.167054
    35  C   -0.073937
    36  C    0.207769
    37  C    0.107694
    38  C    0.107571
    39  O   -0.251399
    40  C   -0.054853
    41  C    0.291012
    42  O   -0.266191
    43  O   -0.363967
    44  C    0.139213
    45  H   -0.019372
    46  H    0.029297
    47  H    0.002426
    48  H    0.037970
    49  H    0.039683
    50  H    0.034017
    51  H    0.041014
    52  H    0.048616
    53  H    0.045247
    54  H    0.074479
    55  H    0.046180
    56  H    0.068643
    57  H    0.032333
    58  H    0.051272
    59  H    0.041852
    60  H    0.049377
    61  H    0.063165
    62  H    0.052431
    63  H    0.039003
    64  H    0.021021
    65  H    0.046407
    66  H    0.044528
    67  H    0.029636
    68  H    0.027835
    69  H    0.037190
    70  H    0.033868
    71  H    0.032678
    72  H    0.042335
    73  H    0.018118
    74  H    0.060819
    75  H    0.097551
    76  H    0.073090
    77  H    0.059343
    78  H    0.063869
    79  H    0.053584
    80  Mg   0.983919
    81  C   -0.004975
    82  C   -0.096514
    83  C   -0.089554
    84  C   -0.095626
    85  N   -0.322246
    86  C    0.004599
    87  C   -0.059521
    88  C   -0.134402
    89  C    0.015237
    90  C    0.045186
    91  C   -0.019627
    92  C   -0.098521
    93  H    0.037078
    94  N   -0.498872
    95  C    0.214368
    96  C   -0.158522
    97  C   -0.077352
    98  C    0.175707
    99  C    0.073672
   100  C    0.037205
   101  O   -0.273665
   102  C    0.021105
   103  N   -0.348214
   104  C    0.046628
   105  C   -0.087943
   106  C   -0.049298
   107  C    0.038199
   108  C    0.014031
   109  C   -0.040373
   110  C   -0.031876
   111  N   -0.452041
   112  C    0.112540
   113  C   -0.195670
   114  C    0.000664
   115  C    0.138962
   116  C    0.066562
   117  C    0.146312
   118  O   -0.223727
   119  C   -0.155159
   120  C    0.286828
   121  O   -0.220216
   122  O   -0.406313
   123  C    0.144021
   124  H   -0.011545
   125  H    0.019717
   126  H   -0.004935
   127  H    0.025071
   128  H    0.029458
   129  H    0.027336
   130  H    0.057984
   131  H    0.034161
   132  H    0.063590
   133  H    0.036472
   134  H    0.057470
   135  H    0.057471
   136  H    0.053143
   137  H    0.057444
   138  H    0.036153
   139  H    0.065509
   140  H    0.038790
   141  H    0.054059
   142  H    0.049808
   143  H    0.043537
   144  H    0.053112
   145  H    0.036952
   146  H    0.048955
   147  H    0.030663
   148  H    0.018680
   149  H    0.041989
   150  H    0.040055
   151  H    0.034149
   152  H    0.072174
   153  H    0.028352
   154  H    0.052628
   155  H    0.103005
   156  H    0.065437
   157  H    0.051355
   158  H    0.051284
 Sum of Mulliken charges =  -0.00000

 Dipole moment (field-independent basis, Debye):
    X=              1.6356    Y=             -2.8949    Z=             -0.1073  Tot=              3.3268
 Quadrupole moment (field-independent basis, Debye-Ang):
   XX=           -458.7030   YY=           -467.4315   ZZ=           -527.7514
   XY=              5.0795   XZ=            -18.3268   YZ=            -13.3384

 Normal termination of Gaussian 16 at Sun Sep 19 06:23:52 2021.
