 Gaussian 16, Revision A.03,
 Gaussian 16:  ES64L-G16RevA.03 25-Dec-2016

 --------------------------------
 #p wB97XD/Def2SVP td=(nstates=5)
 --------------------------------

 --------------------------------
 TDDFT excited states in gaussian
 --------------------------------
 Symbolic Z-matrix:
 Charge =  0 Multiplicity = 1

                         Standard orientation:
 ---------------------------------------------------------------------
 Center     Atomic      Atomic             Coordinates (Angstroms)
 Number     Number       Type             X           Y           Z
 ---------------------------------------------------------------------
      1         12           0      -24.174795    0.449813    0.300263
      2          6           0      -22.990467   -2.283694   -1.306605
      3          6           0      -22.488519    2.498263   -1.941404
      4          6           0      -25.354515    3.183638    1.911451
      5          6           0      -25.442952   -1.571813    2.807822
      6          7           0      -23.023957    0.085587   -1.424980
      7          6           0      -22.608509   -1.107287   -1.920806
      8          6           0      -21.934172   -0.970080   -3.260898
      9          6           0      -21.540942    0.555193   -3.310108
     10          6           0      -22.443490    1.094668   -2.152467
     11          6           0      -20.018621    0.993269   -3.236705
     12          6           0      -22.925916   -1.317625   -4.460653
     13          6           0      -22.171651   -1.766508   -5.746897
     14          1           0      -20.739935   -1.296797   -6.054640
     15          7           0      -23.909848    2.589537    0.100861
     16          6           0      -23.158575    3.203092   -0.935639
     17          6           0      -23.240828    4.626618   -0.804857
     18          6           0      -24.074541    4.867062    0.344953
     19          6           0      -24.485917    3.494520    0.810573
     20          6           0      -22.644589    5.601950   -1.758249
     21          6           0      -24.504920    6.191023    0.966471
     22          8           0      -25.147563    6.324138    2.049093
     23          6           0      -24.136836    7.492756    0.274946
     24          7           0      -25.178838    0.776306    2.123556
     25          6           0      -25.739215    1.998514    2.498203
     26          6           0      -26.805606    1.904008    3.627427
     27          6           0      -26.810136    0.286602    3.831770
     28          6           0      -25.796731   -0.224880    2.874642
     29          6           0      -26.316291    2.697216    4.845965
     30          6           0      -28.162944   -0.349355    3.703730
     31          6           0      -28.563591   -1.153218    4.907576
     32          7           0      -24.169310   -1.439196    0.812123
     33          6           0      -24.737941   -2.182672    1.838852
     34          6           0      -24.449734   -3.557859    1.663511
     35          6           0      -23.714904   -3.689925    0.454696
     36          6           0      -23.652987   -2.391894   -0.094685
     37          6           0      -24.845202   -4.709574    2.505576
     38          6           0      -22.966388   -4.605340   -0.378474
     39          8           0      -22.676790   -5.784245   -0.317015
     40          6           0      -22.535491   -3.675698   -1.609987
     41          6           0      -21.153704   -3.960408   -2.077747
     42          8           0      -20.183084   -4.139636   -1.387394
     43          8           0      -21.052391   -4.047724   -3.413157
     44          6           0      -19.673275   -4.318004   -3.910151
     45          1           0      -21.788634    3.038515   -2.582493
     46          1           0      -25.615206    4.069605    2.494022
     47          1           0      -25.905214   -2.285819    3.492524
     48          1           0      -20.978696   -1.492785   -3.301708
     49          1           0      -21.966939    0.987528   -4.214919
     50          1           0      -19.419652    0.082857   -3.261654
     51          1           0      -19.707121    1.599192   -2.387343
     52          1           0      -19.839421    1.631338   -4.102278
     53          1           0      -23.509379   -0.406806   -4.596254
     54          1           0      -23.573890   -2.124540   -4.118208
     55          1           0      -22.846616   -1.433899   -6.535713
     56          1           0      -22.243932   -2.853419   -5.775191
     57          1           0      -23.224704    5.800008   -2.659602
     58          1           0      -21.657355    5.205830   -1.992743
     59          1           0      -22.340555    6.534534   -1.283834
     60          1           0      -23.118833    7.719669    0.591253
     61          1           0      -24.818688    8.232620    0.693489
     62          1           0      -24.167060    7.442067   -0.813599
     63          1           0      -27.698216    2.393646    3.237882
     64          1           0      -26.467518    0.067328    4.843587
     65          1           0      -25.289783    3.061086    4.796795
     66          1           0      -26.542832    2.130687    5.748885
     67          1           0      -26.908216    3.612862    4.858384
     68          1           0      -28.224987   -1.067966    2.886403
     69          1           0      -28.976218    0.347417    3.500372
     70          1           0      -29.568164   -0.922910    5.261234
     71          1           0      -27.888311   -0.978165    5.744684
     72          1           0      -28.392735   -2.186590    4.604402
     73          1           0      -24.949490   -4.509720    3.572426
     74          1           0      -23.940274   -5.317289    2.532368
     75          1           0      -25.741911   -5.177758    2.099457
     76          1           0      -23.221068   -4.109008   -2.338802
     77          1           0      -19.392174   -5.365338   -3.791011
     78          1           0      -18.950465   -3.603259   -3.516366
     79          1           0      -19.659141   -4.133769   -4.984655
     80         12           0       24.209319    0.279679    0.066114
     81          6           0       21.693180   -2.066126    0.055723
     82          6           0       22.169941    2.628785   -1.365683
     83          6           0       26.728576    2.705357    0.268206
     84          6           0       26.049965   -1.673477    2.239456
     85          7           0       22.083630    0.264296   -0.361078
     86          6           0       21.239707   -0.843779   -0.475336
     87          6           0       19.844617   -0.437554   -0.956978
     88          6           0       20.171906    0.966789   -1.525064
     89          6           0       21.555331    1.387087   -0.987837
     90          6           0       20.000212    1.055868   -3.057275
     91          6           0       18.812271   -0.425469    0.187781
     92          6           0       17.395029   -1.014753   -0.131452
     93          1           0       16.258127   -0.411574    0.596940
     94          7           0       24.415172    2.309988   -0.515410
     95          6           0       23.504188    3.069064   -1.166359
     96          6           0       24.051302    4.296289   -1.662338
     97          6           0       25.414552    4.293139   -1.324177
     98          6           0       25.593887    3.030747   -0.494034
     99          6           0       23.287826    5.291487   -2.538530
    100          6           0       26.480432    5.395112   -1.670303
    101          8           0       26.090438    6.444509   -2.243342
    102          6           0       28.039793    5.226353   -1.414293
    103          7           0       25.989430    0.609723    1.350273
    104          6           0       26.895475    1.590961    1.120132
    105          6           0       28.196770    1.371683    1.848206
    106          6           0       27.990956    0.000914    2.528214
    107          6           0       26.619327   -0.413656    1.989556
    108          6           0       29.474509    1.486076    0.952249
    109          6           0       28.158311    0.052755    4.121316
    110          6           0       29.466977   -0.548360    4.647036
    111          7           0       23.991190   -1.526061    0.938131
    112          6           0       24.831938   -2.262778    1.801238
    113          6           0       24.312358   -3.630441    1.931923
    114          6           0       23.134277   -3.591488    1.199154
    115          6           0       22.952109   -2.274925    0.744882
    116          6           0       24.855250   -4.795325    2.679555
    117          6           0       21.978840   -4.401569    0.787786
    118          8           0       21.774496   -5.626307    0.817949
    119          6           0       21.006922   -3.448666   -0.017102
    120          6           0       20.821619   -3.927470   -1.450739
    121          8           0       21.693853   -4.310796   -2.236649
    122          8           0       19.469713   -3.895877   -1.623473
    123          6           0       18.959545   -4.471253   -2.856684
    124          1           0       21.531439    3.384681   -1.827427
    125          1           0       27.615943    3.338726    0.331357
    126          1           0       26.585912   -2.344601    2.913596
    127          1           0       19.496470   -1.147780   -1.707696
    128          1           0       19.408424    1.600971   -1.074605
    129          1           0       19.370625    0.329001   -3.570440
    130          1           0       20.994008    0.885290   -3.470976
    131          1           0       19.623779    2.028312   -3.373822
    132          1           0       18.694899    0.558148    0.641744
    133          1           0       19.300491   -0.951390    1.008592
    134          1           0       17.402976   -2.084921    0.075195
    135          1           0       17.176037   -0.832340   -1.184458
    136          1           0       23.878635    5.391234   -3.448796
    137          1           0       23.026223    6.172159   -1.951819
    138          1           0       22.381313    4.758004   -2.824278
    139          1           0       28.208225    5.523237   -0.379780
    140          1           0       28.533756    5.927152   -2.086928
    141          1           0       28.302145    4.233100   -1.779604
    142          1           0       28.290155    2.148276    2.607449
    143          1           0       28.588208   -0.825572    2.143810
    144          1           0       30.169988    0.668348    1.139266
    145          1           0       30.013794    2.420248    1.108012
    146          1           0       29.171415    1.538386   -0.092641
    147          1           0       27.389465   -0.519985    4.639755
    148          1           0       28.018602    1.073212    4.477868
    149          1           0       29.842127    0.055392    5.473571
    150          1           0       30.210494   -0.563742    3.850430
    151          1           0       29.371882   -1.575157    4.999749
    152          1           0       25.829877   -4.504674    3.071684
    153          1           0       24.747152   -5.702381    2.084527
    154          1           0       24.237865   -4.888200    3.573681
    155          1           0       20.038414   -3.334716    0.470564
    156          1           0       19.521085   -4.181113   -3.745620
    157          1           0       17.908176   -4.298808   -3.086794
    158          1           0       19.002508   -5.559157   -2.798578
 ---------------------------------------------------------------------

 SCF Done:  E(RwB97XD) =  -4070.62869736     A.U. after   19 cycles

 Excitation energies and oscillator strengths:

 Excited State   1:      Singlet-A      1.5874 eV  781.07 nm  f=0.3863  <S**2>=0.000
     309 -> 316       -0.17574
     312 -> 313        0.68654
     309 <- 316       -0.11663
 This state for optimization and/or second-order correction.
 Total Energy, E(TD-HF/TD-DFT) =  -4070.57036318
 Copying the excited state density for this state as the 1-particle RhoCI density.

 Excited State   2:      Singlet-A      1.6649 eV  744.70 nm  f=0.3644  <S**2>=0.000
     310 -> 315        0.17868
     311 -> 314        0.68382
     310 <- 315        0.11336

 Excited State   3:      Singlet-A      2.1691 eV  571.59 nm  f=0.1098  <S**2>=0.000
     309 -> 313        0.63606
     312 -> 316        0.29405

 Excited State   4:      Singlet-A      2.1965 eV  564.46 nm  f=0.0912  <S**2>=0.000
     310 -> 314        0.62327
     311 -> 315       -0.31705

 Excited State   5:      Singlet-A      3.3096 eV  374.62 nm  f=0.0147  <S**2>=0.000
     306 -> 313        0.10110
     308 -> 313        0.67092
     312 -> 316       -0.11077

 The electronic state is 1-A.
 Alpha  occ. eigenvalues --  -46.95525 -46.93513 -19.31572 -19.30375 -19.25205
 Alpha  occ. eigenvalues --  -19.24792 -19.24286 -19.23699 -19.23557 -19.23468
 Alpha  occ. eigenvalues --  -14.47465 -14.47024 -14.46760 -14.46305 -14.44871
 Alpha  occ. eigenvalues --  -14.44114 -14.43666 -14.43407 -10.43803 -10.42422
 Alpha  occ. eigenvalues --  -10.40763 -10.39225 -10.39178 -10.38750 -10.36322
 Alpha  occ. eigenvalues --  -10.35819 -10.35778 -10.35741 -10.35385 -10.35237
 Alpha  occ. eigenvalues --  -10.35110 -10.34955 -10.34722 -10.34522 -10.34522
 Alpha  occ. eigenvalues --  -10.34429 -10.34126 -10.33901 -10.33638 -10.33336
 Alpha  occ. eigenvalues --  -10.32967 -10.32896 -10.32840 -10.32762 -10.32708
 Alpha  occ. eigenvalues --  -10.32554 -10.32398 -10.32310 -10.32199 -10.32192
 Alpha  occ. eigenvalues --  -10.32134 -10.32104 -10.32062 -10.31994 -10.31976
 Alpha  occ. eigenvalues --  -10.31918 -10.31913 -10.31814 -10.31785 -10.31768
 Alpha  occ. eigenvalues --  -10.31764 -10.31710 -10.31603 -10.31594 -10.31546
 Alpha  occ. eigenvalues --  -10.31408 -10.31390 -10.31147 -10.30998 -10.30832
 Alpha  occ. eigenvalues --  -10.30684 -10.30631 -10.30508 -10.30262 -10.29975
 Alpha  occ. eigenvalues --  -10.29936 -10.29788 -10.29714 -10.29635 -10.29557
 Alpha  occ. eigenvalues --  -10.29502 -10.29447 -10.29331 -10.29285 -10.28920
 Alpha  occ. eigenvalues --  -10.28565  -3.21502  -3.19763  -1.95056  -1.94611
 Alpha  occ. eigenvalues --   -1.94501  -1.93352  -1.92877  -1.92784  -1.19481
 Alpha  occ. eigenvalues --   -1.19012  -1.12390  -1.10908  -1.10539  -1.09945
 Alpha  occ. eigenvalues --   -1.09629  -1.09456  -1.06671  -1.06524  -1.06025
 Alpha  occ. eigenvalues --   -1.05607  -1.05589  -1.04732  -1.04169  -1.03428
 Alpha  occ. eigenvalues --   -0.95362  -0.93356  -0.91587  -0.90813  -0.90732
 Alpha  occ. eigenvalues --   -0.90715  -0.90563  -0.90450  -0.89599  -0.89185
 Alpha  occ. eigenvalues --   -0.89175  -0.88957  -0.88388  -0.88364  -0.86240
 Alpha  occ. eigenvalues --   -0.86233  -0.85768  -0.85726  -0.84404  -0.84384
 Alpha  occ. eigenvalues --   -0.83594  -0.83572  -0.83085  -0.83007  -0.82470
 Alpha  occ. eigenvalues --   -0.82135  -0.80313  -0.79864  -0.79712  -0.79433
 Alpha  occ. eigenvalues --   -0.79276  -0.78690  -0.78467  -0.77806  -0.77242
 Alpha  occ. eigenvalues --   -0.77161  -0.74882  -0.74691  -0.73820  -0.73716
 Alpha  occ. eigenvalues --   -0.71120  -0.71080  -0.70913  -0.70595  -0.70148
 Alpha  occ. eigenvalues --   -0.69830  -0.69281  -0.68685  -0.68045  -0.67792
 Alpha  occ. eigenvalues --   -0.67308  -0.67072  -0.66972  -0.66779  -0.66567
 Alpha  occ. eigenvalues --   -0.66087  -0.64662  -0.64332  -0.62337  -0.61909
 Alpha  occ. eigenvalues --   -0.61892  -0.61607  -0.60941  -0.60941  -0.60599
 Alpha  occ. eigenvalues --   -0.60369  -0.59970  -0.59725  -0.59694  -0.59216
 Alpha  occ. eigenvalues --   -0.58083  -0.57992  -0.57727  -0.57361  -0.57235
 Alpha  occ. eigenvalues --   -0.57161  -0.56991  -0.56959  -0.55862  -0.55713
 Alpha  occ. eigenvalues --   -0.55322  -0.55287  -0.55107  -0.54962  -0.54813
 Alpha  occ. eigenvalues --   -0.54766  -0.54537  -0.54461  -0.54369  -0.54110
 Alpha  occ. eigenvalues --   -0.53910  -0.53910  -0.53527  -0.53287  -0.53250
 Alpha  occ. eigenvalues --   -0.53169  -0.53089  -0.53037  -0.52780  -0.52242
 Alpha  occ. eigenvalues --   -0.52019  -0.51932  -0.51861  -0.51603  -0.51376
 Alpha  occ. eigenvalues --   -0.51240  -0.51021  -0.50950  -0.50801  -0.50427
 Alpha  occ. eigenvalues --   -0.50314  -0.50243  -0.50139  -0.50084  -0.49907
 Alpha  occ. eigenvalues --   -0.49757  -0.49748  -0.49687  -0.49395  -0.49259
 Alpha  occ. eigenvalues --   -0.49132  -0.49116  -0.48818  -0.48637  -0.48547
 Alpha  occ. eigenvalues --   -0.48510  -0.48303  -0.48288  -0.47976  -0.47845
 Alpha  occ. eigenvalues --   -0.47450  -0.47150  -0.47147  -0.46855  -0.46732
 Alpha  occ. eigenvalues --   -0.46715  -0.46480  -0.46349  -0.46071  -0.46000
 Alpha  occ. eigenvalues --   -0.45831  -0.45700  -0.45654  -0.45468  -0.45454
 Alpha  occ. eigenvalues --   -0.45211  -0.45203  -0.45126  -0.44930  -0.44510
 Alpha  occ. eigenvalues --   -0.44370  -0.44370  -0.44258  -0.44095  -0.43985
 Alpha  occ. eigenvalues --   -0.43891  -0.43843  -0.43488  -0.43335  -0.43074
 Alpha  occ. eigenvalues --   -0.42958  -0.42840  -0.42715  -0.42506  -0.42502
 Alpha  occ. eigenvalues --   -0.42329  -0.42282  -0.41928  -0.41608  -0.41270
 Alpha  occ. eigenvalues --   -0.40681  -0.40288  -0.40211  -0.40069  -0.39889
 Alpha  occ. eigenvalues --   -0.39638  -0.39415  -0.39174  -0.38990  -0.38913
 Alpha  occ. eigenvalues --   -0.38647  -0.38385  -0.36847  -0.36775  -0.36625
 Alpha  occ. eigenvalues --   -0.36211  -0.35435  -0.35277  -0.33745  -0.33687
 Alpha  occ. eigenvalues --   -0.33307  -0.32820  -0.32693  -0.32648  -0.32403
 Alpha  occ. eigenvalues --   -0.32139  -0.31939  -0.31760  -0.26237  -0.26132
 Alpha  occ. eigenvalues --   -0.22901  -0.22841
 Alpha virt. eigenvalues --   -0.07328  -0.06915  -0.00122   0.00292   0.02164
 Alpha virt. eigenvalues --    0.02241   0.04064   0.04333   0.04816   0.06119
 Alpha virt. eigenvalues --    0.07157   0.07415   0.07432   0.07845   0.08025

 Mulliken charges:
               1
     1  Mg   0.985477
     2  C    0.012825
     3  C   -0.095403
     4  C   -0.062357
     5  C   -0.128166
     6  N   -0.378359
     7  C   -0.008599
     8  C   -0.043354
     9  C   -0.122041
    10  C    0.058031
    11  C    0.021190
    12  C    0.005367
    13  C   -0.092416
    14  H    0.043444
    15  N   -0.389384
    16  C    0.163995
    17  C   -0.155403
    18  C   -0.073815
    19  C    0.099869
    20  C    0.064898
    21  C    0.052973
    22  O   -0.274738
    23  C   -0.022244
    24  N   -0.392093
    25  C    0.057898
    26  C   -0.092115
    27  C   -0.027216
    28  C    0.109046
    29  C    0.008981
    30  C   -0.008514
    31  C   -0.062960
    32  N   -0.527619
    33  C    0.189866
    34  C   -0.191431
    35  C   -0.055001
    36  C    0.141614
    37  C    0.072780
    38  C    0.153158
    39  O   -0.183109
    40  C   -0.107224
    41  C    0.224545
    42  O   -0.229895
    43  O   -0.358858
    44  C    0.140891
    45  H   -0.003556
    46  H    0.017275
    47  H   -0.016883
    48  H    0.024567
    49  H    0.035432
    50  H    0.042321
    51  H    0.048426
    52  H    0.037239
    53  H    0.035718
    54  H    0.041472
    55  H    0.044236
    56  H    0.060600
    57  H    0.073826
    58  H    0.034837
    59  H    0.031875
    60  H    0.066666
    61  H    0.059206
    62  H    0.050463
    63  H    0.056048
    64  H    0.035271
    65  H    0.060723
    66  H    0.037238
    67  H    0.041375
    68  H    0.033228
    69  H    0.028293
    70  H    0.043818
    71  H    0.022321
    72  H    0.037631
    73  H    0.026950
    74  H    0.061478
    75  H    0.068393
    76  H    0.069228
    77  H    0.070820
    78  H    0.058534
    79  H    0.040394
    80  Mg   0.973293
    81  C   -0.080600
    82  C   -0.110090
    83  C   -0.086261
    84  C   -0.082970
    85  N   -0.403968
    86  C   -0.008484
    87  C   -0.052785
    88  C   -0.092067
    89  C    0.125926
    90  C    0.014008
    91  C    0.023135
    92  C   -0.127710
    93  H    0.043622
    94  N   -0.430248
    95  C    0.153011
    96  C   -0.190629
    97  C   -0.078550
    98  C    0.194568
    99  C    0.116437
   100  C    0.044470
   101  O   -0.256264
   102  C   -0.009406
   103  N   -0.325119
   104  C    0.022970
   105  C   -0.076376
   106  C   -0.052251
   107  C    0.038481
   108  C    0.010514
   109  C   -0.007613
   110  C   -0.058078
   111  N   -0.440741
   112  C    0.101359
   113  C   -0.206419
   114  C   -0.044019
   115  C    0.153290
   116  C    0.107337
   117  C    0.155558
   118  O   -0.229680
   119  C   -0.059920
   120  C    0.289203
   121  O   -0.247461
   122  O   -0.356441
   123  C    0.133480
   124  H    0.007796
   125  H   -0.019712
   126  H   -0.011076
   127  H    0.025026
   128  H    0.032690
   129  H    0.036824
   130  H    0.034825
   131  H    0.038384
   132  H    0.030652
   133  H    0.030161
   134  H    0.066490
   135  H    0.049587
   136  H    0.065581
   137  H    0.072103
   138  H    0.012124
   139  H    0.080714
   140  H    0.058291
   141  H    0.060727
   142  H    0.046727
   143  H    0.034050
   144  H    0.046869
   145  H    0.033545
   146  H    0.037714
   147  H    0.032995
   148  H    0.028782
   149  H    0.039101
   150  H    0.028603
   151  H    0.041150
   152  H    0.021226
   153  H    0.075396
   154  H    0.050536
   155  H    0.064481
   156  H    0.055233
   157  H    0.052202
   158  H    0.053685
 Sum of Mulliken charges =  -0.00000

 Dipole moment (field-independent basis, Debye):
    X=              0.0251    Y=              5.0659    Z=             -3.5385  Tot=              6.1794
 Quadrupole moment (field-independent basis, Debye-Ang):
   XX=           -335.0228   YY=           -586.9866   ZZ=           -475.8902
   XY=              5.8779   XZ=            105.5815   YZ=             -3.9120

 Normal termination of Gaussian 16 at Mon Sep 20 01:11:35 2021.
