 Gaussian 16, Revision A.03,
 Gaussian 16:  ES64L-G16RevA.03 25-Dec-2016

 --------------------------------
 #p wB97XD/Def2SVP td=(nstates=5)
 --------------------------------

 --------------------------------
 TDDFT excited states in gaussian
 --------------------------------
 Symbolic Z-matrix:
 Charge =  0 Multiplicity = 1

                         Standard orientation:
 ---------------------------------------------------------------------
 Center     Atomic      Atomic             Coordinates (Angstroms)
 Number     Number       Type             X           Y           Z
 ---------------------------------------------------------------------
      1         12           0       14.474175   -0.205909   -0.163839
      2          6           0       11.141679   -1.032626   -0.423248
      3          6           0       14.012243    2.133225   -2.609112
      4          6           0       17.167702    1.319828    0.989310
      5          6           0       14.758543   -2.625960    2.364001
      6          7           0       12.617670    0.740971   -1.013466
      7          6           0       11.436478    0.087571   -1.161334
      8          6           0       10.523251    0.755211   -2.146570
      9          6           0       11.582180    1.429980   -3.077378
     10          6           0       12.841013    1.373153   -2.224616
     11          6           0       11.690977    0.748355   -4.471494
     12          6           0        9.569029    1.849008   -1.448708
     13          6           0        8.101846    1.976510   -2.071292
     14          1           0        7.931981    3.388746   -2.574060
     15          7           0       15.551600    1.385158   -0.871587
     16          6           0       15.207553    2.293102   -1.811176
     17          6           0       16.233156    3.321345   -1.933821
     18          6           0       17.173955    3.075341   -0.912740
     19          6           0       16.635991    1.878752   -0.206591
     20          6           0       16.117113    4.447105   -2.989980
     21          6           0       18.281541    4.034090   -0.575187
     22          8           0       18.436960    5.020631   -1.246623
     23          6           0       19.235878    3.882588    0.624764
     24          7           0       15.901951   -0.645518    1.389535
     25          6           0       16.864403    0.122339    1.650106
     26          6           0       17.609726   -0.258413    2.875596
     27          6           0       16.850892   -1.562055    3.343184
     28          6           0       15.783870   -1.636731    2.339375
     29          6           0       19.146242   -0.390374    2.602603
     30          6           0       16.285811   -1.426932    4.832513
     31          6           0       15.917054   -2.751854    5.590088
     32          7           0       13.284457   -1.621266    0.753065
     33          6           0       13.574229   -2.598900    1.687502
     34          6           0       12.454359   -3.482355    1.858851
     35          6           0       11.456208   -2.923225    0.986268
     36          6           0       11.973733   -1.764088    0.441130
     37          6           0       12.363917   -4.689774    2.735384
     38          6           0       10.136899   -3.117940    0.492134
     39          8           0        9.241406   -3.949234    0.689865
     40          6           0        9.807973   -1.802180   -0.287996
     41          6           0        9.144721   -2.215158   -1.559502
     42          8           0        7.919346   -2.294155   -1.725112
     43          8           0       10.091796   -2.546026   -2.488956
     44          6           0        9.410468   -3.001276   -3.733306
     45          1           0       14.014314    2.809140   -3.467217
     46          1           0       18.019035    1.878481    1.382349
     47          1           0       14.806902   -3.282317    3.236256
     48          1           0       10.033263   -0.075380   -2.653065
     49          1           0       11.266284    2.450998   -3.292095
     50          1           0       11.381795    1.454164   -5.241887
     51          1           0       10.957311   -0.058203   -4.490785
     52          1           0       12.705942    0.364412   -4.569255
     53          1           0        9.986644    2.848890   -1.331628
     54          1           0        9.411650    1.597926   -0.400255
     55          1           0        7.439925    1.849323   -1.214549
     56          1           0        7.757098    1.243038   -2.800263
     57          1           0       16.105763    5.458547   -2.584000
     58          1           0       15.268099    4.337174   -3.665572
     59          1           0       16.968055    4.334897   -3.661022
     60          1           0       19.871517    3.000054    0.560508
     61          1           0       18.731003    3.896543    1.591015
     62          1           0       19.777693    4.828158    0.661680
     63          1           0       17.394491    0.561041    3.561230
     64          1           0       17.359981   -2.520927    3.248758
     65          1           0       19.645337    0.314384    3.267314
     66          1           0       19.393382   -0.189711    1.559971
     67          1           0       19.586965   -1.316234    2.971933
     68          1           0       15.390321   -0.805138    4.836839
     69          1           0       17.060098   -0.894418    5.382847
     70          1           0       16.409718   -3.022572    6.523546
     71          1           0       16.130383   -3.619460    4.967206
     72          1           0       14.850759   -2.771767    5.815360
     73          1           0       13.290879   -5.029872    3.196679
     74          1           0       11.963467   -5.398612    2.011736
     75          1           0       11.562969   -4.373233    3.403628
     76          1           0        9.176752   -1.101596    0.259712
     77          1           0        8.933686   -3.963968   -3.551684
     78          1           0       10.111573   -3.272212   -4.522733
     79          1           0        8.731194   -2.207651   -4.045208
     80         12           0      -13.912956    0.842315    0.247448
     81          6           0      -14.002020   -2.557915   -0.682432
     82          6           0      -10.506940    0.794119   -0.208778
     83          6           0      -13.732280    4.058732    1.197466
     84          6           0      -17.262833    0.682056    1.245361
     85          7           0      -12.545965   -0.693697   -0.496384
     86          6           0      -12.697971   -1.971952   -0.830670
     87          6           0      -11.430892   -2.717837   -1.298363
     88          6           0      -10.369039   -1.616243   -0.813417
     89          6           0      -11.207038   -0.420750   -0.431048
     90          6           0       -9.494052   -2.076754    0.327049
     91          6           0      -11.367535   -2.991907   -2.901622
     92          6           0      -10.516917   -4.211158   -3.269488
     93          1           0      -11.299510   -5.333928   -3.998051
     94          7           0      -12.350018    2.327571    0.319330
     95          6           0      -10.973839    2.050306    0.127379
     96          6           0      -10.299099    3.326797    0.056473
     97          6           0      -11.215222    4.302777    0.438284
     98          6           0      -12.519139    3.602062    0.658723
     99          6           0       -8.804967    3.482944   -0.154780
    100          6           0      -11.086657    5.803135    0.569262
    101          8           0      -12.048839    6.460210    0.840894
    102          6           0       -9.800971    6.517808    0.295778
    103          7           0      -15.217931    2.130985    1.277715
    104          6           0      -14.944061    3.449935    1.494712
    105          6           0      -16.243399    4.076248    2.072822
    106          6           0      -17.388482    3.222821    1.557680
    107          6           0      -16.625985    1.892367    1.354548
    108          6           0      -16.204773    4.002368    3.598565
    109          6           0      -18.052322    3.744745    0.337467
    110          6           0      -17.201723    4.215413   -0.816239
    111          7           0      -15.391251   -0.591890    0.268213
    112          6           0      -16.702463   -0.545345    0.702998
    113          6           0      -17.324921   -1.858161    0.472404
    114          6           0      -16.304245   -2.646196   -0.087326
    115          6           0      -15.190723   -1.857483   -0.187220
    116          6           0      -18.698468   -2.244264    0.816260
    117          6           0      -15.997833   -3.897924   -0.726222
    118          8           0      -16.727858   -4.902341   -0.973564
    119          6           0      -14.458049   -3.843198   -1.163394
    120          6           0      -13.766632   -4.958642   -0.423090
    121          8           0      -13.910998   -5.147912    0.748249
    122          8           0      -12.873290   -5.747101   -1.197815
    123          6           0      -11.956848   -6.626803   -0.410363
    124          1           0       -9.419142    0.785546   -0.297745
    125          1           0      -13.694077    5.069473    1.609928
    126          1           0      -18.345489    0.609833    1.370363
    127          1           0      -11.380187   -3.699766   -0.826238
    128          1           0       -9.762414   -1.432658   -1.701071
    129          1           0       -8.560463   -2.411345   -0.124949
    130          1           0       -9.983916   -2.810408    0.967623
    131          1           0       -9.221881   -1.151546    0.834894
    132          1           0      -10.935220   -2.128054   -3.407511
    133          1           0      -12.371932   -3.090035   -3.314014
    134          1           0      -10.120698   -4.498704   -2.295396
    135          1           0       -9.633408   -3.936891   -3.845618
    136          1           0       -8.497275    2.534060   -0.592515
    137          1           0       -8.421648    3.519273    0.864551
    138          1           0       -8.562876    4.304967   -0.828712
    139          1           0       -9.765727    6.408935   -0.788335
    140          1           0       -8.918163    6.046085    0.726472
    141          1           0       -9.871586    7.559397    0.611029
    142          1           0      -16.391306    5.131717    1.846968
    143          1           0      -18.224189    3.099128    2.245643
    144          1           0      -16.778908    3.235114    4.118081
    145          1           0      -16.527755    4.971990    3.977392
    146          1           0      -15.162939    3.893130    3.901959
    147          1           0      -18.764730    4.536846    0.569228
    148          1           0      -18.643018    2.900474   -0.017553
    149          1           0      -17.369762    3.495007   -1.617303
    150          1           0      -16.119697    4.337919   -0.759730
    151          1           0      -17.609920    5.161477   -1.171468
    152          1           0      -18.771239   -2.303841    1.902144
    153          1           0      -18.838013   -3.191140    0.294797
    154          1           0      -19.416312   -1.482050    0.510254
    155          1           0      -14.481254   -3.928266   -2.249979
    156          1           0      -12.489040   -7.512207   -0.062753
    157          1           0      -11.511689   -6.123746    0.449257
    158          1           0      -11.130995   -7.072679   -0.963937
 ---------------------------------------------------------------------

 SCF Done:  E(RwB97XD) =  -4070.59510500     A.U. after   19 cycles

 Excitation energies and oscillator strengths:

 Excited State   1:      Singlet-A      1.6532 eV  749.98 nm  f=0.4060  <S**2>=0.000
     310 -> 316       -0.17750
     311 -> 314        0.68452
     310 <- 316       -0.11359
 This state for optimization and/or second-order correction.
 Total Energy, E(TD-HF/TD-DFT) =  -4070.53435228
 Copying the excited state density for this state as the 1-particle RhoCI density.

 Excited State   2:      Singlet-A      1.6582 eV  747.72 nm  f=0.3251  <S**2>=0.000
     309 -> 315       -0.16743
     312 -> 313        0.68471
     309 <- 315       -0.10866

 Excited State   3:      Singlet-A      2.1351 eV  580.70 nm  f=0.1171  <S**2>=0.000
     310 -> 314        0.64469
     311 -> 316        0.27131

 Excited State   4:      Singlet-A      2.1690 eV  571.61 nm  f=0.1039  <S**2>=0.000
     309 -> 313        0.63803
     312 -> 315        0.28233

 Excited State   5:      Singlet-A      3.3784 eV  366.99 nm  f=0.0308  <S**2>=0.000
     300 -> 314        0.16069
     304 -> 314       -0.38083
     306 -> 314        0.37151
     307 -> 314       -0.34330
     311 -> 316       -0.19235

 The electronic state is 1-A.
 Alpha  occ. eigenvalues --  -46.95679 -46.94848 -19.30874 -19.29590 -19.24817
 Alpha  occ. eigenvalues --  -19.24702 -19.24122 -19.24043 -19.23165 -19.23006
 Alpha  occ. eigenvalues --  -14.47920 -14.46786 -14.46611 -14.45820 -14.45079
 Alpha  occ. eigenvalues --  -14.44233 -14.43513 -14.43251 -10.43118 -10.42633
 Alpha  occ. eigenvalues --  -10.39891 -10.39078 -10.38644 -10.38142 -10.36569
 Alpha  occ. eigenvalues --  -10.35988 -10.35831 -10.35580 -10.35318 -10.35274
 Alpha  occ. eigenvalues --  -10.35262 -10.34983 -10.34957 -10.34798 -10.34643
 Alpha  occ. eigenvalues --  -10.34411 -10.34272 -10.34046 -10.33757 -10.33551
 Alpha  occ. eigenvalues --  -10.33233 -10.32899 -10.32827 -10.32642 -10.32538
 Alpha  occ. eigenvalues --  -10.32405 -10.32374 -10.32359 -10.32271 -10.32226
 Alpha  occ. eigenvalues --  -10.32207 -10.32205 -10.32199 -10.32121 -10.32054
 Alpha  occ. eigenvalues --  -10.31983 -10.31965 -10.31869 -10.31799 -10.31604
 Alpha  occ. eigenvalues --  -10.31593 -10.31535 -10.31409 -10.31377 -10.31053
 Alpha  occ. eigenvalues --  -10.31047 -10.31030 -10.30981 -10.30786 -10.30762
 Alpha  occ. eigenvalues --  -10.30701 -10.30685 -10.30608 -10.30510 -10.30392
 Alpha  occ. eigenvalues --  -10.30216 -10.30197 -10.30152 -10.30120 -10.29557
 Alpha  occ. eigenvalues --  -10.29204 -10.28867 -10.28821 -10.28491 -10.28280
 Alpha  occ. eigenvalues --  -10.28186  -3.21690  -3.20780  -1.95267  -1.94829
 Alpha  occ. eigenvalues --   -1.94651  -1.94393  -1.93881  -1.93768  -1.18220
 Alpha  occ. eigenvalues --   -1.17611  -1.14343  -1.14276  -1.10386  -1.09448
 Alpha  occ. eigenvalues --   -1.09161  -1.08741  -1.08735  -1.07204  -1.06800
 Alpha  occ. eigenvalues --   -1.06090  -1.05525  -1.04924  -1.04810  -1.03655
 Alpha  occ. eigenvalues --   -0.94805  -0.94541  -0.91882  -0.91710  -0.91207
 Alpha  occ. eigenvalues --   -0.90715  -0.90658  -0.90262  -0.89694  -0.89357
 Alpha  occ. eigenvalues --   -0.89044  -0.88744  -0.88633  -0.88002  -0.86492
 Alpha  occ. eigenvalues --   -0.86329  -0.85784  -0.85324  -0.84477  -0.84313
 Alpha  occ. eigenvalues --   -0.84289  -0.83859  -0.82945  -0.82934  -0.82405
 Alpha  occ. eigenvalues --   -0.81751  -0.80813  -0.80452  -0.79925  -0.79139
 Alpha  occ. eigenvalues --   -0.78896  -0.78844  -0.78086  -0.77995  -0.77557
 Alpha  occ. eigenvalues --   -0.76833  -0.74755  -0.74331  -0.74320  -0.73200
 Alpha  occ. eigenvalues --   -0.72481  -0.71510  -0.71443  -0.70735  -0.70249
 Alpha  occ. eigenvalues --   -0.69821  -0.69703  -0.68977  -0.68852  -0.67660
 Alpha  occ. eigenvalues --   -0.67428  -0.66976  -0.66848  -0.66579  -0.66093
 Alpha  occ. eigenvalues --   -0.65236  -0.64512  -0.63641  -0.62684  -0.62311
 Alpha  occ. eigenvalues --   -0.61788  -0.61684  -0.61300  -0.61042  -0.60883
 Alpha  occ. eigenvalues --   -0.60849  -0.60425  -0.60101  -0.59488  -0.59078
 Alpha  occ. eigenvalues --   -0.58710  -0.58311  -0.58222  -0.57760  -0.57645
 Alpha  occ. eigenvalues --   -0.57048  -0.56585  -0.56348  -0.56190  -0.55890
 Alpha  occ. eigenvalues --   -0.55828  -0.55673  -0.55558  -0.55488  -0.55041
 Alpha  occ. eigenvalues --   -0.54873  -0.54775  -0.54455  -0.54253  -0.54053
 Alpha  occ. eigenvalues --   -0.53716  -0.53703  -0.53513  -0.53325  -0.53227
 Alpha  occ. eigenvalues --   -0.53210  -0.52648  -0.52631  -0.52521  -0.52512
 Alpha  occ. eigenvalues --   -0.52289  -0.52090  -0.51970  -0.51817  -0.51772
 Alpha  occ. eigenvalues --   -0.51512  -0.51427  -0.51175  -0.50967  -0.50941
 Alpha  occ. eigenvalues --   -0.50910  -0.50718  -0.50339  -0.50154  -0.50048
 Alpha  occ. eigenvalues --   -0.49818  -0.49697  -0.49572  -0.49474  -0.49467
 Alpha  occ. eigenvalues --   -0.48992  -0.48982  -0.48852  -0.48552  -0.48328
 Alpha  occ. eigenvalues --   -0.48275  -0.48171  -0.47918  -0.47794  -0.47693
 Alpha  occ. eigenvalues --   -0.47444  -0.47350  -0.47223  -0.47193  -0.47000
 Alpha  occ. eigenvalues --   -0.46802  -0.46693  -0.46469  -0.46350  -0.46252
 Alpha  occ. eigenvalues --   -0.46120  -0.46059  -0.45975  -0.45544  -0.45408
 Alpha  occ. eigenvalues --   -0.45331  -0.45213  -0.45033  -0.44984  -0.44933
 Alpha  occ. eigenvalues --   -0.44656  -0.44633  -0.44357  -0.44278  -0.44210
 Alpha  occ. eigenvalues --   -0.43943  -0.43922  -0.43633  -0.43457  -0.43387
 Alpha  occ. eigenvalues --   -0.43237  -0.42849  -0.42785  -0.42761  -0.42167
 Alpha  occ. eigenvalues --   -0.42100  -0.42060  -0.41605  -0.41548  -0.41306
 Alpha  occ. eigenvalues --   -0.40713  -0.40338  -0.40202  -0.39741  -0.39577
 Alpha  occ. eigenvalues --   -0.39174  -0.39007  -0.38971  -0.38901  -0.38543
 Alpha  occ. eigenvalues --   -0.38259  -0.38114  -0.37087  -0.36511  -0.36397
 Alpha  occ. eigenvalues --   -0.35915  -0.35466  -0.35301  -0.34073  -0.33801
 Alpha  occ. eigenvalues --   -0.33691  -0.33273  -0.32906  -0.32230  -0.32129
 Alpha  occ. eigenvalues --   -0.32041  -0.31346  -0.31142  -0.26256  -0.25972
 Alpha  occ. eigenvalues --   -0.23101  -0.23094
 Alpha virt. eigenvalues --   -0.07222  -0.07190   0.00030   0.00293   0.02183
 Alpha virt. eigenvalues --    0.02584   0.04042   0.04401   0.05033   0.06366
 Alpha virt. eigenvalues --    0.06854   0.07258   0.07830   0.07990   0.08215

 Mulliken charges:
               1
     1  Mg   0.966688
     2  C    0.015951
     3  C   -0.089478
     4  C   -0.073402
     5  C   -0.081583
     6  N   -0.340663
     7  C   -0.050282
     8  C   -0.024430
     9  C   -0.146476
    10  C    0.110936
    11  C    0.045295
    12  C    0.023018
    13  C   -0.129885
    14  H    0.028669
    15  N   -0.460709
    16  C    0.119260
    17  C   -0.139193
    18  C   -0.060547
    19  C    0.168774
    20  C    0.086653
    21  C    0.018685
    22  O   -0.210953
    23  C   -0.019720
    24  N   -0.295118
    25  C    0.031315
    26  C   -0.087971
    27  C   -0.051404
    28  C    0.005387
    29  C    0.018745
    30  C   -0.018491
    31  C   -0.065446
    32  N   -0.450983
    33  C    0.151268
    34  C   -0.200751
    35  C   -0.007654
    36  C    0.106037
    37  C    0.098604
    38  C    0.085827
    39  O   -0.226454
    40  C   -0.061279
    41  C    0.241454
    42  O   -0.258528
    43  O   -0.369971
    44  C    0.138536
    45  H    0.002858
    46  H   -0.045327
    47  H   -0.027105
    48  H    0.025896
    49  H    0.042354
    50  H    0.041561
    51  H    0.029691
    52  H    0.040994
    53  H    0.040740
    54  H    0.032312
    55  H    0.057202
    56  H    0.062773
    57  H    0.069865
    58  H    0.019188
    59  H    0.052985
    60  H    0.067321
    61  H    0.060719
    62  H    0.051669
    63  H    0.046724
    64  H    0.042082
    65  H    0.030695
    66  H    0.057253
    67  H    0.038875
    68  H    0.040980
    69  H    0.036670
    70  H    0.040268
    71  H    0.033100
    72  H    0.044142
    73  H    0.043422
    74  H    0.065004
    75  H    0.064649
    76  H    0.078172
    77  H    0.064845
    78  H    0.047478
    79  H    0.060214
    80  Mg   0.953807
    81  C   -0.042807
    82  C   -0.110289
    83  C   -0.074579
    84  C   -0.071406
    85  N   -0.321212
    86  C   -0.004142
    87  C   -0.076221
    88  C   -0.141405
    89  C    0.116659
    90  C    0.056554
    91  C    0.009084
    92  C   -0.101847
    93  H    0.060522
    94  N   -0.444623
    95  C    0.147224
    96  C   -0.177288
    97  C   -0.058265
    98  C    0.148199
    99  C    0.068552
   100  C    0.023159
   101  O   -0.210096
   102  C   -0.009894
   103  N   -0.406388
   104  C    0.080523
   105  C   -0.094274
   106  C   -0.043862
   107  C    0.108096
   108  C    0.034277
   109  C    0.007542
   110  C   -0.069486
   111  N   -0.442547
   112  C    0.083727
   113  C   -0.209239
   114  C    0.006988
   115  C    0.127274
   116  C    0.079124
   117  C    0.099108
   118  O   -0.251667
   119  C   -0.045763
   120  C    0.263284
   121  O   -0.210421
   122  O   -0.401488
   123  C    0.135626
   124  H    0.006965
   125  H    0.021125
   126  H   -0.000566
   127  H    0.038212
   128  H    0.036176
   129  H    0.032685
   130  H    0.057750
   131  H    0.022959
   132  H    0.027401
   133  H    0.042667
   134  H    0.027750
   135  H    0.044855
   136  H    0.032814
   137  H    0.076257
   138  H    0.059543
   139  H    0.059857
   140  H    0.052905
   141  H    0.061813
   142  H    0.024880
   143  H    0.018104
   144  H    0.044945
   145  H    0.032786
   146  H    0.031345
   147  H    0.031955
   148  H    0.016131
   149  H    0.030660
   150  H    0.056787
   151  H    0.029782
   152  H    0.053834
   153  H    0.066110
   154  H    0.034909
   155  H    0.077636
   156  H    0.056818
   157  H    0.050026
   158  H    0.052002
 Sum of Mulliken charges =  -0.00000

 Dipole moment (field-independent basis, Debye):
    X=             12.2189    Y=              4.8555    Z=             -0.3810  Tot=             13.1538
 Quadrupole moment (field-independent basis, Debye-Ang):
   XX=           -502.7619   YY=           -552.2955   ZZ=           -482.2824
   XY=            -99.2637   XZ=             33.1170   YZ=              2.2742

 Normal termination of Gaussian 16 at Mon Sep 20 05:17:29 2021.
