 Gaussian 16, Revision A.03,
 Gaussian 16:  ES64L-G16RevA.03 25-Dec-2016

 --------------------------------
 #p wB97XD/Def2SVP td=(nstates=5)
 --------------------------------

 --------------------------------
 TDDFT excited states in gaussian
 --------------------------------
 Symbolic Z-matrix:
 Charge =  0 Multiplicity = 1

                         Standard orientation:
 ---------------------------------------------------------------------
 Center     Atomic      Atomic             Coordinates (Angstroms)
 Number     Number       Type             X           Y           Z
 ---------------------------------------------------------------------
      1         12           0      -30.251913   -0.422883   -0.198642
      2          6           0      -27.107535    0.832659   -1.140288
      3          6           0      -28.688374   -3.247023    0.985305
      4          6           0      -33.099091   -1.166796    1.313219
      5          6           0      -31.706997    2.651929   -1.221433
      6          7           0      -28.143522   -0.993383    0.131385
      7          6           0      -26.985596   -0.324279   -0.342548
      8          6           0      -25.788220   -1.182366   -0.341092
      9          6           0      -26.349562   -2.541265    0.263138
     10          6           0      -27.835003   -2.272900    0.446233
     11          6           0      -25.957038   -3.775509   -0.584557
     12          6           0      -24.684483   -0.716016    0.558467
     13          6           0      -25.102135   -0.081429    1.893393
     14          1           0      -24.250301   -0.290405    3.205604
     15          7           0      -30.868692   -2.020600    0.977923
     16          6           0      -30.109840   -3.105246    1.225609
     17          6           0      -30.924326   -4.086834    1.897218
     18          6           0      -32.234270   -3.549474    1.945559
     19          6           0      -32.141370   -2.196632    1.373510
     20          6           0      -30.444553   -5.399102    2.456716
     21          6           0      -33.469238   -4.259860    2.498924
     22          8           0      -33.392517   -5.380528    2.963339
     23          6           0      -34.849383   -3.695197    2.661674
     24          7           0      -32.045303    0.689212    0.239584
     25          6           0      -33.129819    0.123401    0.855247
     26          6           0      -34.413391    0.998227    0.671901
     27          6           0      -33.821398    2.333494    0.127622
     28          6           0      -32.455053    1.872585   -0.330492
     29          6           0      -35.472547    0.430019   -0.303312
     30          6           0      -33.519173    3.465692    1.219042
     31          6           0      -33.971472    4.844231    0.898574
     32          7           0      -29.648389    1.296076   -1.077038
     33          6           0      -30.363526    2.313323   -1.576041
     34          6           0      -29.535608    3.088399   -2.575384
     35          6           0      -28.253304    2.466729   -2.442460
     36          6           0      -28.341281    1.483881   -1.416330
     37          6           0      -29.907755    4.261673   -3.470482
     38          6           0      -26.881827    2.607148   -2.838746
     39          8           0      -26.347413    3.416344   -3.580466
     40          6           0      -26.087106    1.513589   -2.017021
     41          6           0      -25.175921    2.256239   -1.061862
     42          8           0      -25.487902    2.909216   -0.121501
     43          8           0      -23.873478    1.956040   -1.399869
     44          6           0      -22.892547    2.370473   -0.391731
     45          1           0      -28.216517   -4.213103    1.175354
     46          1           0      -34.091947   -1.469326    1.650254
     47          1           0      -32.253856    3.505141   -1.628132
     48          1           0      -25.420273   -1.236166   -1.365694
     49          1           0      -26.086021   -2.748812    1.300185
     50          1           0      -25.588290   -4.440232    0.196843
     51          1           0      -25.191927   -3.446859   -1.287994
     52          1           0      -26.812069   -4.255646   -1.060885
     53          1           0      -23.916182   -0.132894    0.050051
     54          1           0      -24.016068   -1.503901    0.906382
     55          1           0      -26.123199   -0.427480    2.057489
     56          1           0      -25.174656    0.973418    1.627972
     57          1           0      -30.829583   -5.559371    3.464320
     58          1           0      -29.357154   -5.449002    2.401711
     59          1           0      -30.874448   -6.143326    1.785900
     60          1           0      -34.942365   -2.885635    3.384882
     61          1           0      -35.358092   -4.529106    3.145550
     62          1           0      -35.382110   -3.583611    1.716691
     63          1           0      -34.884384    1.102714    1.649237
     64          1           0      -34.386419    2.749903   -0.706718
     65          1           0      -35.512958    1.072607   -1.182643
     66          1           0      -36.399044    0.173007    0.209895
     67          1           0      -35.124572   -0.537068   -0.664528
     68          1           0      -32.461030    3.486365    1.478804
     69          1           0      -34.049919    3.117084    2.105142
     70          1           0      -34.627872    5.265369    1.659793
     71          1           0      -34.461103    4.927477   -0.071975
     72          1           0      -33.137034    5.543744    0.856562
     73          1           0      -29.235717    5.076966   -3.202542
     74          1           0      -30.985436    4.410119   -3.391810
     75          1           0      -29.609614    3.964342   -4.475789
     76          1           0      -25.529623    0.835059   -2.662319
     77          1           0      -23.294021    2.364537    0.621529
     78          1           0      -22.635578    3.386018   -0.693116
     79          1           0      -21.998790    1.779635   -0.590412
     80         12           0       29.257592    0.526737    0.654741
     81          6           0       29.296945   -2.506006   -1.289407
     82          6           0       27.694077    2.075439   -1.857776
     83          6           0       30.058176    3.422008    2.140412
     84          6           0       31.302996   -1.143092    2.963907
     85          7           0       28.642400   -0.132806   -1.324742
     86          6           0       28.569889   -1.434067   -1.850433
     87          6           0       27.704316   -1.474211   -3.167144
     88          6           0       27.277334    0.015642   -3.333244
     89          6           0       27.856764    0.699330   -2.066270
     90          6           0       27.699681    0.719972   -4.597579
     91          6           0       26.490265   -2.546139   -3.087882
     92          6           0       26.426052   -3.548059   -4.247271
     93          1           0       25.068925   -3.518102   -5.043930
     94          7           0       28.797690    2.482620    0.268855
     95          6           0       28.155899    2.944338   -0.809156
     96          6           0       28.036318    4.403116   -0.781540
     97          6           0       28.823817    4.787989    0.358048
     98          6           0       29.288587    3.545812    0.984203
     99          6           0       27.291580    5.173372   -1.785681
    100          6           0       29.159688    6.268873    0.719975
    101          8           0       29.776277    6.563272    1.730266
    102          6           0       28.731681    7.425981   -0.125180
    103          7           0       30.463859    1.024443    2.265225
    104          6           0       30.532637    2.317359    2.772987
    105          6           0       31.372323    2.357808    4.091878
    106          6           0       31.449758    0.839605    4.501015
    107          6           0       30.998719    0.180067    3.197966
    108          6           0       32.715400    3.158037    4.078148
    109          6           0       30.520930    0.451199    5.683849
    110          6           0       31.030200   -0.524935    6.714152
    111          7           0       30.180408   -1.401669    0.811375
    112          6           0       30.971123   -1.914330    1.800270
    113          6           0       31.199504   -3.398972    1.520078
    114          6           0       30.523298   -3.677652    0.356974
    115          6           0       29.978688   -2.419829   -0.074939
    116          6           0       31.940103   -4.306396    2.475871
    117          6           0       30.178440   -4.677874   -0.637575
    118          8           0       30.529303   -5.874832   -0.576853
    119          6           0       29.403349   -3.910418   -1.866465
    120          6           0       30.164604   -3.878016   -3.175276
    121          8           0       31.330194   -3.437890   -3.225725
    122          8           0       29.491473   -4.540962   -4.202315
    123          6           0       30.373166   -4.878894   -5.313611
    124          1           0       27.090656    2.618546   -2.587814
    125          1           0       30.216657    4.403305    2.591772
    126          1           0       31.839116   -1.624201    3.785185
    127          1           0       28.426379   -1.812047   -3.910251
    128          1           0       26.195867   -0.024071   -3.470522
    129          1           0       28.314011    0.099579   -5.250260
    130          1           0       28.396855    1.440693   -4.171597
    131          1           0       26.859724    1.081731   -5.191392
    132          1           0       25.609674   -1.905650   -3.047136
    133          1           0       26.516462   -3.038586   -2.116180
    134          1           0       26.660568   -4.525557   -3.825848
    135          1           0       27.205193   -3.306714   -4.971445
    136          1           0       27.785754    5.968733   -2.342742
    137          1           0       26.618971    5.798587   -1.199584
    138          1           0       26.599328    4.597800   -2.400568
    139          1           0       27.641860    7.383426   -0.129600
    140          1           0       29.064499    7.207659   -1.140292
    141          1           0       29.182282    8.305936    0.332174
    142          1           0       30.715682    2.868228    4.796471
    143          1           0       32.470964    0.495051    4.662155
    144          1           0       32.716229    3.657976    3.109826
    145          1           0       33.600748    2.551225    4.265824
    146          1           0       32.692278    4.010657    4.757956
    147          1           0       29.712000    0.019940    5.094461
    148          1           0       30.098241    1.294628    6.230183
    149          1           0       30.715825   -0.122315    7.677118
    150          1           0       32.118200   -0.594481    6.737834
    151          1           0       30.435837   -1.429827    6.585257
    152          1           0       32.275173   -3.688808    3.308988
    153          1           0       32.845172   -4.654315    1.978472
    154          1           0       31.306171   -5.151763    2.742660
    155          1           0       28.414098   -4.354817   -1.976015
    156          1           0       30.578801   -5.941051   -5.438961
    157          1           0       31.332883   -4.362299   -5.294215
    158          1           0       29.866938   -4.534350   -6.214979
 ---------------------------------------------------------------------

 SCF Done:  E(RwB97XD) =  -4070.58914545     A.U. after   19 cycles

 Excitation energies and oscillator strengths:

 Excited State   1:      Singlet-A      1.6067 eV  771.67 nm  f=0.3699  <S**2>=0.000
     309 -> 315       -0.17853
     311 -> 313        0.68544
     309 <- 315       -0.11726
 This state for optimization and/or second-order correction.
 Total Energy, E(TD-HF/TD-DFT) =  -4070.53010030
 Copying the excited state density for this state as the 1-particle RhoCI density.

 Excited State   2:      Singlet-A      1.6412 eV  755.46 nm  f=0.4176  <S**2>=0.000
     310 -> 316        0.17863
     312 -> 314        0.68585
     310 <- 316        0.11672

 Excited State   3:      Singlet-A      2.2111 eV  560.74 nm  f=0.0984  <S**2>=0.000
     309 -> 313        0.62752
     311 -> 315        0.31207

 Excited State   4:      Singlet-A      2.2310 eV  555.73 nm  f=0.0892  <S**2>=0.000
     310 -> 314        0.62832
     312 -> 316       -0.31486

 Excited State   5:      Singlet-A      3.4114 eV  363.44 nm  f=0.0006  <S**2>=0.000
     300 -> 313       -0.11532
     306 -> 313       -0.18085
     308 -> 313        0.64751

 The electronic state is 1-A.
 Alpha  occ. eigenvalues --  -46.94947 -46.94744 -19.31941 -19.29858 -19.25825
 Alpha  occ. eigenvalues --  -19.25350 -19.25072 -19.24196 -19.23531 -19.23264
 Alpha  occ. eigenvalues --  -14.47191 -14.47006 -14.46500 -14.46253 -14.44311
 Alpha  occ. eigenvalues --  -14.44194 -14.44125 -14.43936 -10.44725 -10.43096
 Alpha  occ. eigenvalues --  -10.40615 -10.39022 -10.38861 -10.38576 -10.35673
 Alpha  occ. eigenvalues --  -10.35489 -10.35257 -10.35217 -10.34984 -10.34965
 Alpha  occ. eigenvalues --  -10.34849 -10.34741 -10.34668 -10.34613 -10.34522
 Alpha  occ. eigenvalues --  -10.34362 -10.34119 -10.34044 -10.34008 -10.33771
 Alpha  occ. eigenvalues --  -10.33485 -10.33338 -10.33190 -10.33064 -10.33021
 Alpha  occ. eigenvalues --  -10.32877 -10.32650 -10.32573 -10.32567 -10.32470
 Alpha  occ. eigenvalues --  -10.32342 -10.32307 -10.32192 -10.32184 -10.32117
 Alpha  occ. eigenvalues --  -10.31894 -10.31891 -10.31744 -10.31535 -10.31506
 Alpha  occ. eigenvalues --  -10.31420 -10.31296 -10.31270 -10.31081 -10.31015
 Alpha  occ. eigenvalues --  -10.30998 -10.30870 -10.30554 -10.30552 -10.30505
 Alpha  occ. eigenvalues --  -10.30433 -10.30380 -10.30314 -10.30054 -10.29999
 Alpha  occ. eigenvalues --  -10.29972 -10.29843 -10.29825 -10.29447 -10.29376
 Alpha  occ. eigenvalues --  -10.29366 -10.29344 -10.29242 -10.29208 -10.29196
 Alpha  occ. eigenvalues --  -10.29167  -3.21018  -3.20819  -1.94571  -1.94391
 Alpha  occ. eigenvalues --   -1.94148  -1.94006  -1.93927  -1.93820  -1.19422
 Alpha  occ. eigenvalues --   -1.18536  -1.12622  -1.12289  -1.12206  -1.11348
 Alpha  occ. eigenvalues --   -1.11173  -1.10177  -1.06604  -1.06046  -1.05931
 Alpha  occ. eigenvalues --   -1.05342  -1.05335  -1.04663  -1.04640  -1.03916
 Alpha  occ. eigenvalues --   -0.95172  -0.94642  -0.91757  -0.91323  -0.90999
 Alpha  occ. eigenvalues --   -0.90610  -0.90309  -0.89925  -0.89463  -0.89291
 Alpha  occ. eigenvalues --   -0.89140  -0.88296  -0.88082  -0.87768  -0.86659
 Alpha  occ. eigenvalues --   -0.86199  -0.86064  -0.85561  -0.84644  -0.84623
 Alpha  occ. eigenvalues --   -0.83838  -0.83613  -0.83169  -0.82830  -0.82479
 Alpha  occ. eigenvalues --   -0.82200  -0.80386  -0.79896  -0.79542  -0.79453
 Alpha  occ. eigenvalues --   -0.78881  -0.78792  -0.78148  -0.77993  -0.77106
 Alpha  occ. eigenvalues --   -0.76656  -0.74704  -0.74462  -0.73667  -0.72954
 Alpha  occ. eigenvalues --   -0.71570  -0.71018  -0.70824  -0.70583  -0.70339
 Alpha  occ. eigenvalues --   -0.69842  -0.69102  -0.68684  -0.67802  -0.67268
 Alpha  occ. eigenvalues --   -0.67087  -0.66947  -0.66905  -0.66534  -0.66381
 Alpha  occ. eigenvalues --   -0.66366  -0.64601  -0.64112  -0.62257  -0.61989
 Alpha  occ. eigenvalues --   -0.61756  -0.61438  -0.61021  -0.60937  -0.60894
 Alpha  occ. eigenvalues --   -0.60507  -0.60348  -0.60118  -0.59409  -0.59323
 Alpha  occ. eigenvalues --   -0.58548  -0.58255  -0.58030  -0.57413  -0.57375
 Alpha  occ. eigenvalues --   -0.57067  -0.57059  -0.56859  -0.56573  -0.56036
 Alpha  occ. eigenvalues --   -0.55710  -0.55451  -0.55120  -0.55005  -0.54816
 Alpha  occ. eigenvalues --   -0.54545  -0.54362  -0.54310  -0.54223  -0.54030
 Alpha  occ. eigenvalues --   -0.53765  -0.53551  -0.53543  -0.53452  -0.53354
 Alpha  occ. eigenvalues --   -0.53187  -0.53088  -0.53068  -0.52885  -0.52780
 Alpha  occ. eigenvalues --   -0.52188  -0.52111  -0.51566  -0.51564  -0.51351
 Alpha  occ. eigenvalues --   -0.51345  -0.51226  -0.51073  -0.50859  -0.50732
 Alpha  occ. eigenvalues --   -0.50700  -0.50575  -0.50562  -0.50296  -0.50265
 Alpha  occ. eigenvalues --   -0.50084  -0.49873  -0.49476  -0.49189  -0.49143
 Alpha  occ. eigenvalues --   -0.49055  -0.48932  -0.48836  -0.48749  -0.48690
 Alpha  occ. eigenvalues --   -0.48432  -0.48323  -0.47962  -0.47960  -0.47895
 Alpha  occ. eigenvalues --   -0.47836  -0.47604  -0.47436  -0.47327  -0.47181
 Alpha  occ. eigenvalues --   -0.46613  -0.46508  -0.46325  -0.46308  -0.46078
 Alpha  occ. eigenvalues --   -0.46036  -0.45953  -0.45849  -0.45723  -0.45560
 Alpha  occ. eigenvalues --   -0.45548  -0.45163  -0.45156  -0.44959  -0.44822
 Alpha  occ. eigenvalues --   -0.44709  -0.44603  -0.44533  -0.44393  -0.44125
 Alpha  occ. eigenvalues --   -0.44092  -0.43800  -0.43729  -0.43638  -0.43069
 Alpha  occ. eigenvalues --   -0.43038  -0.42690  -0.42685  -0.42461  -0.42308
 Alpha  occ. eigenvalues --   -0.42097  -0.41774  -0.41431  -0.41043  -0.41033
 Alpha  occ. eigenvalues --   -0.40422  -0.40210  -0.39822  -0.39750  -0.39492
 Alpha  occ. eigenvalues --   -0.39436  -0.39328  -0.39087  -0.38505  -0.38487
 Alpha  occ. eigenvalues --   -0.38040  -0.37723  -0.37089  -0.37061  -0.36439
 Alpha  occ. eigenvalues --   -0.36227  -0.35309  -0.35165  -0.33712  -0.33590
 Alpha  occ. eigenvalues --   -0.33515  -0.33132  -0.32613  -0.32579  -0.32477
 Alpha  occ. eigenvalues --   -0.32083  -0.31941  -0.31837  -0.26239  -0.26101
 Alpha  occ. eigenvalues --   -0.22862  -0.22582
 Alpha virt. eigenvalues --   -0.07131  -0.06770   0.00116   0.00590   0.01972
 Alpha virt. eigenvalues --    0.02287   0.04282   0.04482   0.04642   0.04880
 Alpha virt. eigenvalues --    0.05111   0.06995   0.07565   0.07762   0.08009

 Mulliken charges:
               1
     1  Mg   0.971058
     2  C   -0.073633
     3  C   -0.088679
     4  C   -0.070201
     5  C   -0.087645
     6  N   -0.366474
     7  C    0.021317
     8  C   -0.041293
     9  C   -0.131864
    10  C    0.060006
    11  C    0.036717
    12  C   -0.026174
    13  C   -0.106216
    14  H    0.042059
    15  N   -0.438440
    16  C    0.155183
    17  C   -0.199093
    18  C   -0.050499
    19  C    0.165187
    20  C    0.110805
    21  C    0.017537
    22  O   -0.237360
    23  C   -0.009386
    24  N   -0.356927
    25  C    0.045851
    26  C   -0.080019
    27  C   -0.111626
    28  C    0.037471
    29  C    0.042916
    30  C    0.014736
    31  C   -0.045855
    32  N   -0.434631
    33  C    0.148017
    34  C   -0.205195
    35  C   -0.044305
    36  C    0.163091
    37  C    0.102113
    38  C    0.124273
    39  O   -0.206603
    40  C   -0.072854
    41  C    0.257954
    42  O   -0.210156
    43  O   -0.374956
    44  C    0.128914
    45  H   -0.001806
    46  H   -0.030294
    47  H    0.001592
    48  H    0.040527
    49  H    0.052527
    50  H    0.037915
    51  H    0.045538
    52  H    0.046144
    53  H    0.018113
    54  H    0.023446
    55  H    0.051763
    56  H    0.057223
    57  H    0.065738
    58  H    0.021435
    59  H    0.056281
    60  H    0.066077
    61  H    0.044679
    62  H    0.054439
    63  H    0.033933
    64  H    0.029539
    65  H    0.040563
    66  H    0.046116
    67  H    0.027737
    68  H    0.057233
    69  H    0.024523
    70  H    0.038669
    71  H    0.024908
    72  H    0.035847
    73  H    0.069377
    74  H    0.037723
    75  H    0.057398
    76  H    0.064941
    77  H    0.073187
    78  H    0.055927
    79  H    0.055921
    80  Mg   0.975980
    81  C   -0.099791
    82  C   -0.080679
    83  C   -0.088188
    84  C   -0.101339
    85  N   -0.370354
    86  C   -0.011397
    87  C   -0.072254
    88  C   -0.107168
    89  C    0.104519
    90  C    0.024254
    91  C    0.006624
    92  C   -0.108973
    93  H    0.027747
    94  N   -0.454562
    95  C    0.114056
    96  C   -0.149755
    97  C   -0.076206
    98  C    0.118101
    99  C    0.069719
   100  C    0.031596
   101  O   -0.238342
   102  C    0.011667
   103  N   -0.401008
   104  C    0.093427
   105  C   -0.058224
   106  C   -0.103744
   107  C    0.063827
   108  C    0.035214
   109  C   -0.016672
   110  C   -0.026204
   111  N   -0.388630
   112  C    0.149179
   113  C   -0.228834
   114  C    0.015729
   115  C    0.154201
   116  C    0.098520
   117  C    0.146778
   118  O   -0.221211
   119  C   -0.037276
   120  C    0.292849
   121  O   -0.256306
   122  O   -0.367185
   123  C    0.121079
   124  H   -0.014041
   125  H    0.016133
   126  H   -0.003798
   127  H    0.041619
   128  H    0.034180
   129  H    0.028899
   130  H    0.041577
   131  H    0.042992
   132  H    0.031987
   133  H    0.037991
   134  H    0.064386
   135  H    0.054537
   136  H    0.046742
   137  H    0.028224
   138  H    0.042572
   139  H    0.049445
   140  H    0.052087
   141  H    0.067753
   142  H    0.030988
   143  H    0.029190
   144  H    0.038581
   145  H    0.045336
   146  H    0.035507
   147  H    0.029353
   148  H    0.034953
   149  H    0.028932
   150  H    0.041852
   151  H    0.043812
   152  H    0.023026
   153  H    0.059027
   154  H    0.067083
   155  H    0.058152
   156  H    0.063448
   157  H    0.072080
   158  H    0.044630
 Sum of Mulliken charges =  -0.00000

 Dipole moment (field-independent basis, Debye):
    X=             -5.1762    Y=              0.8699    Z=             -1.5491  Tot=              5.4726
 Quadrupole moment (field-independent basis, Debye-Ang):
   XX=           -564.4848   YY=           -553.5061   ZZ=           -491.4517
   XY=             22.8805   XZ=             29.8400   YZ=              7.8984

 Normal termination of Gaussian 16 at Sat Sep 18 16:02:59 2021.
