 Gaussian 16, Revision A.03,
 Gaussian 16:  ES64L-G16RevA.03 25-Dec-2016

 --------------------------------
 #p wB97XD/Def2SVP td=(nstates=5)
 --------------------------------

 --------------------------------
 TDDFT excited states in gaussian
 --------------------------------
 Symbolic Z-matrix:
 Charge =  0 Multiplicity = 1

                         Standard orientation:
 ---------------------------------------------------------------------
 Center     Atomic      Atomic             Coordinates (Angstroms)
 Number     Number       Type             X           Y           Z
 ---------------------------------------------------------------------
      1         12           0       -4.019051   -0.501546    1.223678
      2          6           0       -5.368558    2.415331   -0.258616
      3          6           0       -1.742312    1.452898    2.768304
      4          6           0       -2.727760   -3.245911    2.456293
      5          6           0       -6.022439   -2.395372   -1.071471
      6          7           0       -3.507807    1.721357    1.188608
      7          6           0       -4.376459    2.686371    0.706980
      8          6           0       -3.931010    3.990452    1.275099
      9          6           0       -2.498182    3.741139    1.746971
     10          6           0       -2.542780    2.206658    1.955488
     11          6           0       -1.461892    4.118268    0.622879
     12          6           0       -4.846657    4.624257    2.455128
     13          6           0       -5.170104    6.149691    2.472116
     14          1           0       -3.968120    7.122671    2.298906
     15          7           0       -2.412109   -0.815633    2.454993
     16          6           0       -1.647401    0.099660    2.973200
     17          6           0       -0.605000   -0.567927    3.771960
     18          6           0       -0.977475   -1.941256    3.890183
     19          6           0       -2.073803   -2.068307    2.888399
     20          6           0        0.670722    0.058973    4.443477
     21          6           0       -0.434833   -3.070531    4.765477
     22          8           0       -0.788180   -4.261586    4.672240
     23          6           0        0.707555   -2.792065    5.622137
     24          7           0       -4.244279   -2.577173    0.593853
     25          6           0       -3.649865   -3.554109    1.388237
     26          6           0       -4.241556   -4.962114    0.993684
     27          6           0       -5.363708   -4.606627   -0.013282
     28          6           0       -5.243806   -3.087731   -0.156389
     29          6           0       -3.171640   -5.951859    0.531885
     30          6           0       -6.778928   -5.140324    0.323081
     31          6           0       -7.647337   -5.664978   -0.844120
     32          7           0       -5.399132   -0.130587   -0.356226
     33          6           0       -6.086046   -0.975555   -1.222179
     34          6           0       -7.009525   -0.185715   -1.996324
     35          6           0       -6.720048    1.145144   -1.691429
     36          6           0       -5.732895    1.161440   -0.667765
     37          6           0       -8.008171   -0.657704   -2.862469
     38          6           0       -7.091993    2.546999   -1.933209
     39          8           0       -7.938198    3.070296   -2.640654
     40          6           0       -6.227517    3.429786   -0.974694
     41          6           0       -5.473265    4.426204   -1.836957
     42          8           0       -4.439668    4.369350   -2.463893
     43          8           0       -6.217532    5.558008   -1.668885
     44          6           0       -5.615195    6.847528   -2.083388
     45          1           0       -1.055952    2.078698    3.343200
     46          1           0       -2.410851   -4.111985    3.040938
     47          1           0       -6.792434   -2.950846   -1.610071
     48          1           0       -3.893446    4.827938    0.578014
     49          1           0       -2.302281    4.156006    2.735412
     50          1           0       -0.513231    4.494053    1.004702
     51          1           0       -1.785708    4.954005    0.002082
     52          1           0       -1.265780    3.183042    0.099597
     53          1           0       -4.462435    4.299714    3.421597
     54          1           0       -5.820805    4.133884    2.462197
     55          1           0       -5.513796    6.297923    3.496480
     56          1           0       -5.922131    6.221957    1.686374
     57          1           0        0.657472    0.090336    5.532710
     58          1           0        0.764092    1.074207    4.056864
     59          1           0        1.595693   -0.497996    4.293862
     60          1           0        0.508026   -1.940602    6.273286
     61          1           0        1.599189   -2.594935    5.026830
     62          1           0        0.781257   -3.620441    6.326059
     63          1           0       -4.770790   -5.320610    1.876700
     64          1           0       -5.082371   -4.908148   -1.022074
     65          1           0       -3.035553   -5.851811   -0.545453
     66          1           0       -3.437553   -7.000443    0.661679
     67          1           0       -2.200998   -5.620556    0.899453
     68          1           0       -7.381660   -4.455547    0.919450
     69          1           0       -6.724591   -5.964813    1.035242
     70          1           0       -8.297107   -4.824498   -1.088468
     71          1           0       -8.262131   -6.448400   -0.399809
     72          1           0       -7.014256   -5.966361   -1.678221
     73          1           0       -8.393454   -0.014316   -3.653164
     74          1           0       -8.818712   -1.025347   -2.232427
     75          1           0       -7.552093   -1.489394   -3.398266
     76          1           0       -6.869227    3.936946   -0.254446
     77          1           0       -5.858557    7.535543   -1.274260
     78          1           0       -5.996598    7.283024   -3.006606
     79          1           0       -4.531563    6.749664   -2.143177
     80         12           0        3.773473   -0.797107   -1.204888
     81          6           0        5.756428    1.991031   -0.148684
     82          6           0        0.954321    1.129217   -0.836703
     83          6           0        1.796183   -3.483376   -1.736018
     84          6           0        6.590677   -2.827847   -0.587788
     85          7           0        3.432739    1.309485   -0.578034
     86          6           0        4.366409    2.306980   -0.255797
     87          6           0        3.640554    3.609772   -0.037726
     88          6           0        2.153523    3.127721    0.235107
     89          6           0        2.178129    1.703184   -0.392852
     90          6           0        1.931686    3.103185    1.789471
     91          6           0        3.852907    4.663428   -1.181428
     92          6           0        4.094192    5.974462   -0.622625
     93          1           0        4.674214    7.060409   -1.661382
     94          7           0        1.661251   -1.004449   -1.431052
     95          6           0        0.693680   -0.092504   -1.277885
     96          6           0       -0.563710   -0.672060   -1.638297
     97          6           0       -0.366152   -2.013948   -1.887656
     98          6           0        1.144104   -2.250826   -1.742902
     99          6           0       -1.908415    0.111272   -1.506914
    100          6           0       -1.385439   -3.077774   -2.344529
    101          8           0       -1.020579   -4.218381   -2.478149
    102          6           0       -2.798340   -2.688124   -2.710018
    103          7           0        4.117663   -2.886994   -0.890292
    104          6           0        3.142924   -3.777866   -1.325993
    105          6           0        3.702974   -5.157419   -1.450906
    106          6           0        5.257589   -4.952156   -1.103025
    107          6           0        5.363708   -3.458335   -0.905463
    108          6           0        2.976988   -6.162489   -0.622024
    109          6           0        6.346217   -5.516694   -2.171307
    110          6           0        7.291514   -6.557885   -1.717793
    111          7           0        5.795362   -0.537596   -0.561424
    112          6           0        6.781624   -1.478357   -0.367802
    113          6           0        8.061371   -0.738666    0.016828
    114          6           0        7.736420    0.632635    0.003591
    115          6           0        6.331978    0.698513   -0.302626
    116          6           0        9.390840   -1.422796    0.363254
    117          6           0        8.272350    1.917967    0.335511
    118          8           0        9.427818    2.249121    0.684848
    119          6           0        6.985990    2.837966    0.420118
    120          6           0        7.369114    4.151309   -0.325974
    121          8           0        6.985387    4.355657   -1.492267
    122          8           0        8.049763    4.973498    0.509782
    123          6           0        8.582218    6.133717   -0.284249
    124          1           0        0.084154    1.781368   -0.940131
    125          1           0        1.180294   -4.365707   -1.925663
    126          1           0        7.537866   -3.357953   -0.469407
    127          1           0        4.006182    3.994524    0.914046
    128          1           0        1.422408    3.799264   -0.213604
    129          1           0        2.430371    2.272509    2.288246
    130          1           0        0.861176    3.105574    1.990214
    131          1           0        2.317078    4.031303    2.212214
    132          1           0        2.885630    4.778716   -1.671074
    133          1           0        4.600183    4.336676   -1.904945
    134          1           0        4.911099    5.950124    0.098804
    135          1           0        3.152124    6.328389   -0.203158
    136          1           0       -2.333038    0.031185   -2.507566
    137          1           0       -1.802148    1.170668   -1.273972
    138          1           0       -2.517306   -0.328817   -0.717296
    139          1           0       -3.395689   -3.573843   -2.926585
    140          1           0       -2.537870   -2.099443   -3.589572
    141          1           0       -3.212951   -2.107770   -1.885819
    142          1           0        3.579675   -5.365781   -2.513842
    143          1           0        5.435722   -5.476039   -0.164252
    144          1           0        2.453816   -6.783113   -1.348395
    145          1           0        2.182071   -5.723665   -0.019188
    146          1           0        3.598930   -6.760063    0.044850
    147          1           0        6.951453   -4.630659   -2.362767
    148          1           0        5.809860   -5.772177   -3.084199
    149          1           0        8.319690   -6.198531   -1.751623
    150          1           0        7.148231   -7.228975   -2.563985
    151          1           0        6.974154   -7.059497   -0.802570
    152          1           0        9.389775   -1.532218    1.447170
    153          1           0       10.255860   -0.834396    0.057417
    154          1           0        9.453218   -2.367906   -0.176223
    155          1           0        6.864337    2.989624    1.491769
    156          1           0        9.430501    5.899133   -0.927071
    157          1           0        8.861682    7.003208    0.309830
    158          1           0        7.738330    6.492894   -0.873613
 ---------------------------------------------------------------------

 SCF Done:  E(RwB97XD) =  -4070.59435895     A.U. after   19 cycles

 Excitation energies and oscillator strengths:

 Excited State   1:      Singlet-A      1.6614 eV  746.28 nm  f=0.3368  <S**2>=0.000
     309 -> 315        0.19257
     311 -> 313        0.68031
     309 <- 315        0.11697
 This state for optimization and/or second-order correction.
 Total Energy, E(TD-HF/TD-DFT) =  -4070.53330477
 Copying the excited state density for this state as the 1-particle RhoCI density.

 Excited State   2:      Singlet-A      1.6839 eV  736.27 nm  f=0.3870  <S**2>=0.000
     310 -> 316       -0.18716
     312 -> 314        0.68037
     310 <- 316       -0.11306

 Excited State   3:      Singlet-A      2.1960 eV  564.58 nm  f=0.0427  <S**2>=0.000
     309 -> 313        0.59555
     310 -> 314        0.15261
     311 -> 315       -0.30787
     312 -> 316        0.10313

 Excited State   4:      Singlet-A      2.2204 eV  558.39 nm  f=0.0136  <S**2>=0.000
     309 -> 313       -0.16203
     310 -> 314        0.52559
     312 -> 316        0.42116

 Excited State   5:      Singlet-A      2.3076 eV  537.29 nm  f=0.0001  <S**2>=0.000
     312 -> 313        0.70178

 The electronic state is 1-A.
 Alpha  occ. eigenvalues --  -46.96460 -46.95595 -19.31321 -19.30161 -19.25620
 Alpha  occ. eigenvalues --  -19.24651 -19.24637 -19.24274 -19.24209 -19.23647
 Alpha  occ. eigenvalues --  -14.47071 -14.46756 -14.46711 -14.46293 -14.45042
 Alpha  occ. eigenvalues --  -14.44262 -14.43747 -14.43570 -10.43711 -10.43503
 Alpha  occ. eigenvalues --  -10.39834 -10.39391 -10.39240 -10.38774 -10.36416
 Alpha  occ. eigenvalues --  -10.35675 -10.35483 -10.35443 -10.35353 -10.35268
 Alpha  occ. eigenvalues --  -10.35250 -10.35156 -10.34894 -10.34803 -10.34779
 Alpha  occ. eigenvalues --  -10.34643 -10.34327 -10.34245 -10.34194 -10.34166
 Alpha  occ. eigenvalues --  -10.32927 -10.32916 -10.32833 -10.32831 -10.32650
 Alpha  occ. eigenvalues --  -10.32596 -10.32560 -10.32487 -10.32411 -10.32332
 Alpha  occ. eigenvalues --  -10.32291 -10.32259 -10.32217 -10.32206 -10.32043
 Alpha  occ. eigenvalues --  -10.32011 -10.31941 -10.31870 -10.31806 -10.31728
 Alpha  occ. eigenvalues --  -10.31635 -10.31426 -10.31413 -10.31301 -10.31240
 Alpha  occ. eigenvalues --  -10.31157 -10.30913 -10.30882 -10.30779 -10.30616
 Alpha  occ. eigenvalues --  -10.30406 -10.30286 -10.30192 -10.30137 -10.30120
 Alpha  occ. eigenvalues --  -10.29975 -10.29908 -10.29653 -10.29644 -10.29579
 Alpha  occ. eigenvalues --  -10.29427 -10.29323 -10.29041 -10.28938 -10.28749
 Alpha  occ. eigenvalues --  -10.28694  -3.22330  -3.21398  -1.95935  -1.95446
 Alpha  occ. eigenvalues --   -1.95281  -1.94979  -1.94504  -1.94363  -1.18879
 Alpha  occ. eigenvalues --   -1.18160  -1.13630  -1.12371  -1.11916  -1.10574
 Alpha  occ. eigenvalues --   -1.09927  -1.09239  -1.07817  -1.06656  -1.05932
 Alpha  occ. eigenvalues --   -1.05703  -1.04910  -1.04737  -1.04506  -1.03253
 Alpha  occ. eigenvalues --   -0.95378  -0.93024  -0.91297  -0.90896  -0.90737
 Alpha  occ. eigenvalues --   -0.90507  -0.90444  -0.90056  -0.89881  -0.89562
 Alpha  occ. eigenvalues --   -0.89369  -0.89116  -0.88962  -0.87219  -0.86772
 Alpha  occ. eigenvalues --   -0.86230  -0.85881  -0.85558  -0.85214  -0.84721
 Alpha  occ. eigenvalues --   -0.84380  -0.84007  -0.83847  -0.83150  -0.82418
 Alpha  occ. eigenvalues --   -0.82273  -0.80807  -0.79843  -0.79753  -0.79605
 Alpha  occ. eigenvalues --   -0.79240  -0.78431  -0.78320  -0.77599  -0.77350
 Alpha  occ. eigenvalues --   -0.76747  -0.75088  -0.74388  -0.74033  -0.73232
 Alpha  occ. eigenvalues --   -0.71414  -0.71042  -0.70585  -0.70216  -0.69881
 Alpha  occ. eigenvalues --   -0.69634  -0.69233  -0.68202  -0.67979  -0.67773
 Alpha  occ. eigenvalues --   -0.67628  -0.66939  -0.66914  -0.66749  -0.66280
 Alpha  occ. eigenvalues --   -0.66121  -0.64495  -0.63929  -0.62976  -0.62306
 Alpha  occ. eigenvalues --   -0.61833  -0.61633  -0.60999  -0.60818  -0.60487
 Alpha  occ. eigenvalues --   -0.60211  -0.60070  -0.60045  -0.59230  -0.58896
 Alpha  occ. eigenvalues --   -0.58659  -0.58397  -0.57773  -0.57674  -0.57354
 Alpha  occ. eigenvalues --   -0.57007  -0.56858  -0.56287  -0.56232  -0.56161
 Alpha  occ. eigenvalues --   -0.55760  -0.55717  -0.55649  -0.55401  -0.55305
 Alpha  occ. eigenvalues --   -0.55297  -0.54882  -0.54691  -0.54633  -0.54459
 Alpha  occ. eigenvalues --   -0.54452  -0.54256  -0.54103  -0.53837  -0.53655
 Alpha  occ. eigenvalues --   -0.53632  -0.53134  -0.52908  -0.52813  -0.52427
 Alpha  occ. eigenvalues --   -0.52251  -0.52200  -0.52078  -0.51980  -0.51869
 Alpha  occ. eigenvalues --   -0.51765  -0.51635  -0.51366  -0.51145  -0.50948
 Alpha  occ. eigenvalues --   -0.50692  -0.50548  -0.50343  -0.50255  -0.50118
 Alpha  occ. eigenvalues --   -0.49851  -0.49783  -0.49507  -0.49435  -0.49218
 Alpha  occ. eigenvalues --   -0.49147  -0.48904  -0.48792  -0.48511  -0.48350
 Alpha  occ. eigenvalues --   -0.48240  -0.48025  -0.47963  -0.47797  -0.47700
 Alpha  occ. eigenvalues --   -0.47450  -0.47358  -0.47113  -0.47109  -0.46839
 Alpha  occ. eigenvalues --   -0.46563  -0.46402  -0.46350  -0.46093  -0.46085
 Alpha  occ. eigenvalues --   -0.45983  -0.45688  -0.45583  -0.45503  -0.45401
 Alpha  occ. eigenvalues --   -0.45328  -0.45204  -0.44942  -0.44836  -0.44684
 Alpha  occ. eigenvalues --   -0.44543  -0.44443  -0.44262  -0.44177  -0.44053
 Alpha  occ. eigenvalues --   -0.43894  -0.43755  -0.43717  -0.43300  -0.43249
 Alpha  occ. eigenvalues --   -0.43097  -0.42893  -0.42530  -0.42502  -0.42374
 Alpha  occ. eigenvalues --   -0.42030  -0.41857  -0.41560  -0.41037  -0.40632
 Alpha  occ. eigenvalues --   -0.40370  -0.40204  -0.39909  -0.39616  -0.39175
 Alpha  occ. eigenvalues --   -0.39127  -0.39038  -0.38973  -0.38820  -0.38480
 Alpha  occ. eigenvalues --   -0.37948  -0.37279  -0.36718  -0.36555  -0.35964
 Alpha  occ. eigenvalues --   -0.35912  -0.35684  -0.35041  -0.34094  -0.33905
 Alpha  occ. eigenvalues --   -0.33621  -0.33213  -0.32992  -0.32956  -0.32497
 Alpha  occ. eigenvalues --   -0.32084  -0.32028  -0.31303  -0.26540  -0.26021
 Alpha  occ. eigenvalues --   -0.23384  -0.21855
 Alpha virt. eigenvalues --   -0.07236  -0.05661  -0.00786  -0.00443   0.01424
 Alpha virt. eigenvalues --    0.02259   0.03689   0.04483   0.04684   0.05261
 Alpha virt. eigenvalues --    0.07292   0.07342   0.07434   0.07708   0.07869

 Mulliken charges:
               1
     1  Mg   0.864160
     2  C   -0.049894
     3  C   -0.091481
     4  C   -0.057802
     5  C   -0.093433
     6  N   -0.323731
     7  C    0.049144
     8  C   -0.095187
     9  C   -0.083252
    10  C   -0.014090
    11  C    0.048582
    12  C   -0.020831
    13  C   -0.114251
    14  H    0.030340
    15  N   -0.425162
    16  C    0.196378
    17  C   -0.162278
    18  C   -0.068960
    19  C    0.115925
    20  C    0.059917
    21  C    0.068009
    22  O   -0.248938
    23  C   -0.005042
    24  N   -0.366149
    25  C    0.036219
    26  C   -0.067559
    27  C   -0.042523
    28  C    0.056454
    29  C    0.045467
    30  C   -0.038638
    31  C   -0.041441
    32  N   -0.439249
    33  C    0.129866
    34  C   -0.196327
    35  C   -0.014153
    36  C    0.163202
    37  C    0.061165
    38  C    0.109079
    39  O   -0.197637
    40  C   -0.077599
    41  C    0.279451
    42  O   -0.229260
    43  O   -0.373086
    44  C    0.131187
    45  H   -0.005259
    46  H    0.027396
    47  H   -0.011704
    48  H    0.024379
    49  H    0.023255
    50  H    0.037201
    51  H    0.048292
    52  H    0.037429
    53  H    0.022761
    54  H    0.026193
    55  H    0.066794
    56  H    0.072258
    57  H    0.044451
    58  H    0.037048
    59  H    0.046854
    60  H    0.037658
    61  H    0.078730
    62  H    0.055699
    63  H    0.039559
    64  H    0.027821
    65  H    0.026742
    66  H    0.045643
    67  H    0.049948
    68  H    0.025470
    69  H    0.024308
    70  H    0.042732
    71  H    0.040954
    72  H    0.046720
    73  H    0.060669
    74  H    0.055625
    75  H    0.037472
    76  H    0.082877
    77  H    0.048739
    78  H    0.065470
    79  H    0.057552
    80  Mg   0.940633
    81  C    0.041522
    82  C   -0.120346
    83  C   -0.075172
    84  C   -0.078214
    85  N   -0.335755
    86  C   -0.019057
    87  C   -0.078788
    88  C   -0.152774
    89  C    0.139098
    90  C    0.024543
    91  C    0.093144
    92  C   -0.136224
    93  H    0.009777
    94  N   -0.448315
    95  C    0.165336
    96  C   -0.151978
    97  C   -0.099297
    98  C    0.165394
    99  C    0.077054
   100  C    0.032322
   101  O   -0.224439
   102  C    0.004900
   103  N   -0.393374
   104  C    0.061755
   105  C   -0.103739
   106  C   -0.058165
   107  C    0.088301
   108  C    0.028974
   109  C   -0.034423
   110  C   -0.028571
   111  N   -0.416313
   112  C    0.094415
   113  C   -0.197448
   114  C   -0.011794
   115  C    0.103777
   116  C    0.075172
   117  C    0.121917
   118  O   -0.236222
   119  C   -0.139138
   120  C    0.281081
   121  O   -0.274795
   122  O   -0.340901
   123  C    0.131738
   124  H   -0.015380
   125  H    0.028513
   126  H   -0.009165
   127  H    0.015127
   128  H    0.023722
   129  H    0.051336
   130  H    0.015119
   131  H    0.033487
   132  H    0.019039
   133  H    0.074338
   134  H    0.051152
   135  H    0.041205
   136  H    0.058591
   137  H    0.046112
   138  H    0.096170
   139  H    0.052209
   140  H    0.064361
   141  H    0.082575
   142  H    0.042988
   143  H    0.030777
   144  H    0.038949
   145  H    0.048065
   146  H    0.038620
   147  H    0.026841
   148  H    0.028076
   149  H    0.044652
   150  H    0.030106
   151  H    0.041622
   152  H    0.061486
   153  H    0.057057
   154  H    0.033250
   155  H    0.087921
   156  H    0.070234
   157  H    0.051831
   158  H    0.059079
 Sum of Mulliken charges =  -0.00000

 Dipole moment (field-independent basis, Debye):
    X=             -4.1674    Y=             -0.5073    Z=              4.2387  Tot=              5.9658
 Quadrupole moment (field-independent basis, Debye-Ang):
   XX=           -550.0237   YY=           -479.1041   ZZ=           -510.3758
   XY=             -3.0631   XZ=            -20.3645   YZ=             28.0171

 Normal termination of Gaussian 16 at Sun Sep 19 13:21:06 2021.
