 Gaussian 16, Revision A.03,
 Gaussian 16:  ES64L-G16RevA.03 25-Dec-2016

 --------------------------------
 #p wB97XD/Def2SVP td=(nstates=5)
 --------------------------------

 --------------------------------
 TDDFT excited states in gaussian
 --------------------------------
 Symbolic Z-matrix:
 Charge =  0 Multiplicity = 1

                         Standard orientation:
 ---------------------------------------------------------------------
 Center     Atomic      Atomic             Coordinates (Angstroms)
 Number     Number       Type             X           Y           Z
 ---------------------------------------------------------------------
      1         12           0       -0.737233    0.068281    0.141032
      2          6           0        2.729366    0.339220    0.089071
      3          6           0       -0.423275   -3.343982    0.168561
      4          6           0       -4.128270   -0.132379   -0.132522
      5          6           0       -0.813837    3.610219   -0.145556
      6          7           0        0.947407   -1.334652    0.095006
      7          6           0        2.262954   -0.967260    0.200556
      8          6           0        3.067790   -2.264840    0.307857
      9          6           0        2.082564   -3.385747    0.028265
     10          6           0        0.762015   -2.632558    0.141530
     11          6           0        2.206241   -4.195304   -1.234592
     12          6           0        3.912468   -2.443663    1.657963
     13          6           0        4.558516   -3.849464    1.877043
     14          1           0        6.001329   -4.091279    1.361407
     15          7           0       -2.067403   -1.524110    0.183044
     16          6           0       -1.752288   -2.843167    0.164705
     17          6           0       -2.997389   -3.563515    0.102337
     18          6           0       -4.064980   -2.622892    0.009132
     19          6           0       -3.460267   -1.367370   -0.009154
     20          6           0       -3.008502   -5.060933    0.122204
     21          6           0       -5.570194   -2.954866   -0.207170
     22          8           0       -6.358619   -2.121785   -0.616961
     23          6           0       -6.128939   -4.289012   -0.059752
     24          7           0       -2.148280    1.460805   -0.085148
     25          6           0       -3.512506    1.175533   -0.132446
     26          6           0       -4.377080    2.444709   -0.226878
     27          6           0       -3.321225    3.566883    0.056151
     28          6           0       -2.004220    2.812137   -0.019497
     29          6           0       -5.277276    2.546595   -1.387986
     30          6           0       -3.471727    4.486620    1.390901
     31          6           0       -3.619502    6.006886    1.277736
     32          7           0        0.690707    1.724209   -0.061270
     33          6           0        0.476203    3.068745   -0.179778
     34          6           0        1.706220    3.781933   -0.260980
     35          6           0        2.677486    2.724495   -0.079522
     36          6           0        1.985737    1.481138   -0.052824
     37          6           0        1.811958    5.254921   -0.375822
     38          6           0        4.086281    2.470162    0.115988
     39          8           0        5.065450    3.180418    0.233776
     40          6           0        4.161106    0.835528    0.226321
     41          6           0        5.178277    0.273330   -0.698394
     42          8           0        5.081565    0.306775   -1.905563
     43          8           0        6.211380   -0.289455   -0.047384
     44          6           0        7.177613   -1.117173   -0.866793
     45          1           0       -0.329905   -4.430414    0.231438
     46          1           0       -5.212136   -0.225200   -0.225938
     47          1           0       -1.048278    4.675266   -0.204984
     48          1           0        3.759699   -2.122309   -0.522116
     49          1           0        2.170110   -4.143670    0.806318
     50          1           0        1.356446   -3.789296   -1.782463
     51          1           0        2.173731   -5.269230   -1.050378
     52          1           0        3.080670   -3.916962   -1.823202
     53          1           0        3.151045   -2.257903    2.415774
     54          1           0        4.699179   -1.691527    1.703683
     55          1           0        3.984245   -4.636497    1.389887
     56          1           0        4.538302   -4.061679    2.945986
     57          1           0       -2.062632   -5.582896    0.270388
     58          1           0       -3.327940   -5.362547   -0.874789
     59          1           0       -3.752505   -5.474112    0.803551
     60          1           0       -5.641552   -5.140462   -0.533599
     61          1           0       -7.189563   -4.381608   -0.293060
     62          1           0       -6.116745   -4.417111    1.022424
     63          1           0       -4.963665    2.281983    0.677713
     64          1           0       -3.402196    4.112873   -0.883626
     65          1           0       -6.348419    2.556363   -1.184546
     66          1           0       -5.067261    1.697341   -2.038714
     67          1           0       -5.148300    3.457465   -1.972470
     68          1           0       -2.588551    4.312567    2.005266
     69          1           0       -4.286999    4.248964    2.075293
     70          1           0       -2.720416    6.574898    1.518124
     71          1           0       -4.505326    6.418230    1.760859
     72          1           0       -3.734987    6.241640    0.219509
     73          1           0        1.102932    5.593602   -1.130884
     74          1           0        2.828785    5.589100   -0.580199
     75          1           0        1.353511    5.681355    0.516993
     76          1           0        4.515421    0.632398    1.236396
     77          1           0        8.059139   -1.132798   -0.226277
     78          1           0        7.350480   -0.611517   -1.816594
     79          1           0        6.746015   -2.115373   -0.941870
 ---------------------------------------------------------------------

 SCF Done:  E(RwB97XD) =  -2035.30692206     A.U. after   20 cycles

 Excitation energies and oscillator strengths:

 Excited State   1:      Singlet-A      1.6386 eV  756.64 nm  f=0.3969  <S**2>=0.000
     155 ->158        -0.18475
     156 ->157         0.68353
     155 <-158        -0.11773
 This state for optimization and/or second-order correction.
 Total Energy, E(TD-HF/TD-DFT) =  -2035.24670387
 Copying the excited state density for this state as the 1-particle RhoCI density.

 Excited State   2:      Singlet-A      2.1629 eV  573.23 nm  f=0.0921  <S**2>=0.000
     155 ->157         0.63069
     156 ->158         0.30284

 Excited State   3:      Singlet-A      3.2555 eV  380.84 nm  f=0.0003  <S**2>=0.000
     153 ->157        -0.22681
     154 ->157         0.64161

 Excited State   4:      Singlet-A      3.3664 eV  368.30 nm  f=0.0659  <S**2>=0.000
     153 ->157         0.56267
     154 ->157         0.15025
     156 ->158        -0.35343

 Excited State   5:      Singlet-A      3.4933 eV  354.92 nm  f=0.0385  <S**2>=0.000
     152 ->157         0.57083
     152 ->159         0.28514
     152 ->160        -0.15888
     156 ->158         0.18053

 The electronic state is 1-A.
 Alpha  occ. eigenvalues --  -46.94227 -19.29638 -19.24109 -19.23722 -19.23201
 Alpha  occ. eigenvalues --  -14.47339 -14.46616 -14.43693 -14.43030 -10.41799
 Alpha  occ. eigenvalues --  -10.39554 -10.38679 -10.35862 -10.35667 -10.35140
 Alpha  occ. eigenvalues --  -10.35125 -10.34450 -10.33866 -10.33749 -10.33600
 Alpha  occ. eigenvalues --  -10.32990 -10.32459 -10.32209 -10.32181 -10.32111
 Alpha  occ. eigenvalues --  -10.31634 -10.31580 -10.31490 -10.31320 -10.31237
 Alpha  occ. eigenvalues --  -10.31199 -10.31137 -10.31008 -10.30971 -10.30957
 Alpha  occ. eigenvalues --  -10.30917 -10.30897 -10.30131 -10.30020 -10.29596
 Alpha  occ. eigenvalues --  -10.29403 -10.29331 -10.29312  -3.20304  -1.93915
 Alpha  occ. eigenvalues --   -1.93430  -1.93281  -1.18017  -1.13201  -1.11741
 Alpha  occ. eigenvalues --   -1.08925  -1.07238  -1.06134  -1.05342  -1.04419
 Alpha  occ. eigenvalues --   -0.94403  -0.91074  -0.90582  -0.90282  -0.89501
 Alpha  occ. eigenvalues --   -0.88922  -0.88653  -0.86540  -0.85607  -0.84566
 Alpha  occ. eigenvalues --   -0.84378  -0.83348  -0.82714  -0.80768  -0.79721
 Alpha  occ. eigenvalues --   -0.79202  -0.77839  -0.77102  -0.74776  -0.73801
 Alpha  occ. eigenvalues --   -0.71307  -0.70843  -0.70235  -0.68939  -0.67545
 Alpha  occ. eigenvalues --   -0.67375  -0.66619  -0.66211  -0.63427  -0.62536
 Alpha  occ. eigenvalues --   -0.61708  -0.60968  -0.60821  -0.59971  -0.59236
 Alpha  occ. eigenvalues --   -0.58338  -0.57756  -0.57295  -0.56722  -0.56492
 Alpha  occ. eigenvalues --   -0.55769  -0.55108  -0.54911  -0.54546  -0.54235
 Alpha  occ. eigenvalues --   -0.54034  -0.53253  -0.52920  -0.52773  -0.52458
 Alpha  occ. eigenvalues --   -0.52268  -0.51846  -0.51387  -0.51261  -0.51052
 Alpha  occ. eigenvalues --   -0.50911  -0.50555  -0.50182  -0.49652  -0.49379
 Alpha  occ. eigenvalues --   -0.49052  -0.48783  -0.48513  -0.48507  -0.48179
 Alpha  occ. eigenvalues --   -0.48024  -0.47079  -0.47030  -0.46742  -0.46331
 Alpha  occ. eigenvalues --   -0.46192  -0.45929  -0.45655  -0.45287  -0.44797
 Alpha  occ. eigenvalues --   -0.44654  -0.43985  -0.43733  -0.43469  -0.43223
 Alpha  occ. eigenvalues --   -0.42830  -0.42294  -0.42108  -0.41446  -0.41192
 Alpha  occ. eigenvalues --   -0.40705  -0.39760  -0.39217  -0.38898  -0.38288
 Alpha  occ. eigenvalues --   -0.38071  -0.36224  -0.36046  -0.34976  -0.33264
 Alpha  occ. eigenvalues --   -0.33184  -0.32229  -0.31908  -0.31222  -0.26129
 Alpha  occ. eigenvalues --   -0.22934
 Alpha virt. eigenvalues --   -0.07164   0.00032   0.02673   0.04825   0.06474
 Alpha virt. eigenvalues --    0.07336   0.07924   0.08437   0.09642   0.10347
 Alpha virt. eigenvalues --    0.11240   0.12056   0.12629   0.13367   0.13816

 Mulliken charges:
               1
     1  Mg   0.969866
     2  C    0.027113
     3  C   -0.088480
     4  C   -0.071892
     5  C   -0.105514
     6  N   -0.331433
     7  C   -0.006782
     8  C   -0.044240
     9  C   -0.151582
    10  C    0.059656
    11  C    0.050722
    12  C    0.000252
    13  C   -0.115508
    14  H    0.029157
    15  N   -0.488252
    16  C    0.172457
    17  C   -0.166790
    18  C   -0.057485
    19  C    0.125912
    20  C    0.053586
    21  C    0.071642
    22  O   -0.233727
    23  C   -0.004591
    24  N   -0.422831
    25  C    0.060730
    26  C   -0.086747
    27  C   -0.053568
    28  C    0.048515
    29  C    0.042975
    30  C   -0.002779
    31  C   -0.069039
    32  N   -0.373853
    33  C    0.159898
    34  C   -0.166752
    35  C   -0.076244
    36  C    0.113136
    37  C    0.102509
    38  C    0.145472
    39  O   -0.193115
    40  C   -0.138707
    41  C    0.241237
    42  O   -0.254355
    43  O   -0.372472
    44  C    0.133547
    45  H   -0.016240
    46  H    0.028723
    47  H    0.001724
    48  H    0.035353
    49  H    0.021819
    50  H    0.039180
    51  H    0.043588
    52  H    0.038581
    53  H    0.034481
    54  H    0.060935
    55  H    0.043672
    56  H    0.059101
    57  H    0.039630
    58  H    0.049834
    59  H    0.047096
    60  H    0.056616
    61  H    0.050149
    62  H    0.049750
    63  H    0.038406
    64  H    0.031808
    65  H    0.040574
    66  H    0.046739
    67  H    0.027947
    68  H    0.036109
    69  H    0.035529
    70  H    0.039393
    71  H    0.045773
    72  H    0.018534
    73  H    0.034837
    74  H    0.072757
    75  H    0.044367
    76  H    0.067432
    77  H    0.062659
    78  H    0.082010
    79  H    0.059488
 Sum of Mulliken charges =  -0.00000

 Dipole moment (field-independent basis, Debye):
    X=             -3.0104    Y=             -3.8639    Z=              2.3790  Tot=              5.4454
 Quadrupole moment (field-independent basis, Debye-Ang):
   XX=           -268.1553   YY=           -220.4627   ZZ=           -260.1495
   XY=            -27.7293   XZ=             -2.1605   YZ=             -1.1829

 Normal termination of Gaussian 16 at Mon Sep 20 04:40:17 2021.
