 Gaussian 16, Revision A.03,
 Gaussian 16:  ES64L-G16RevA.03 25-Dec-2016

 --------------------------------
 #p wB97XD/Def2SVP td=(nstates=5)
 --------------------------------

 --------------------------------
 TDDFT excited states in gaussian
 --------------------------------
 Symbolic Z-matrix:
 Charge =  0 Multiplicity = 1

                         Standard orientation:
 ---------------------------------------------------------------------
 Center     Atomic      Atomic             Coordinates (Angstroms)
 Number     Number       Type             X           Y           Z
 ---------------------------------------------------------------------
      1         12           0       29.337408    0.398556    0.550444
      2          6           0       29.149628   -2.175198   -1.869571
      3          6           0       28.637877    2.694627   -1.929553
      4          6           0       29.811041    2.865057    2.825014
      5          6           0       30.254524   -1.946819    2.989198
      6          7           0       29.057331    0.182592   -1.635175
      7          6           0       28.800274   -0.966599   -2.379031
      8          6           0       28.370088   -0.611935   -3.861113
      9          6           0       28.501030    0.934453   -3.868290
     10          6           0       28.802640    1.326808   -2.404564
     11          6           0       29.549647    1.586044   -4.845513
     12          6           0       27.013065   -1.243565   -4.378060
     13          6           0       27.137980   -2.127191   -5.582205
     14          1           0       25.952103   -2.052798   -6.623671
     15          7           0       29.237808    2.433123    0.410409
     16          6           0       28.870752    3.219636   -0.662631
     17          6           0       28.939622    4.621463   -0.280745
     18          6           0       29.275478    4.727650    1.098647
     19          6           0       29.440913    3.290283    1.527975
     20          6           0       28.529189    5.787962   -1.201881
     21          6           0       29.404412    5.960532    1.987397
     22          8           0       29.613525    5.913714    3.182158
     23          6           0       29.176314    7.446101    1.488357
     24          7           0       30.048142    0.450016    2.615811
     25          6           0       30.146950    1.574651    3.312457
     26          6           0       30.607588    1.313454    4.790869
     27          6           0       30.558672   -0.262787    4.887311
     28          6           0       30.241693   -0.638106    3.408141
     29          6           0       31.955477    2.020161    5.115228
     30          6           0       29.563076   -0.741880    5.925190
     31          6           0       30.062157   -1.908532    6.775817
     32          7           0       29.796541   -1.631831    0.628165
     33          6           0       30.057073   -2.473606    1.692445
     34          6           0       30.278998   -3.781251    1.156421
     35          6           0       29.901995   -3.752539   -0.209145
     36          6           0       29.608892   -2.395565   -0.520732
     37          6           0       30.724871   -4.971173    1.918434
     38          6           0       29.660808   -4.583781   -1.401438
     39          8           0       29.884602   -5.764015   -1.654149
     40          6           0       29.085874   -3.474979   -2.576029
     41          6           0       29.923034   -3.523671   -3.733908
     42          8           0       30.744092   -2.681948   -4.027400
     43          8           0       29.579580   -4.584374   -4.541322
     44          6           0       30.460618   -4.708176   -5.729239
     45          1           0       28.299314    3.440318   -2.652154
     46          1           0       30.024011    3.619605    3.584431
     47          1           0       30.457903   -2.618153    3.826876
     48          1           0       29.223393   -0.920147   -4.464286
     49          1           0       27.547715    1.399705   -4.119130
     50          1           0       29.076736    2.478008   -5.257617
     51          1           0       29.799762    0.858229   -5.617022
     52          1           0       30.481190    1.890190   -4.367792
     53          1           0       26.343742   -0.401788   -4.556135
     54          1           0       26.632395   -1.869569   -3.570842
     55          1           0       27.194661   -3.170190   -5.267929
     56          1           0       28.084591   -1.818078   -6.024563
     57          1           0       27.631973    6.203836   -0.744834
     58          1           0       28.182862    5.382792   -2.152965
     59          1           0       29.259933    6.590724   -1.307854
     60          1           0       28.174980    7.505099    1.060438
     61          1           0       30.024223    7.838405    0.926106
     62          1           0       29.324278    8.055014    2.379724
     63          1           0       29.896472    1.668158    5.536656
     64          1           0       31.582476   -0.578663    5.088652
     65          1           0       32.629418    1.285278    5.556431
     66          1           0       31.839256    2.912801    5.730391
     67          1           0       32.412366    2.375407    4.193018
     68          1           0       28.608105   -1.020769    5.481028
     69          1           0       29.233653    0.031898    6.620360
     70          1           0       30.989515   -2.322645    6.379936
     71          1           0       29.294680   -2.680441    6.712365
     72          1           0       30.119431   -1.657720    7.835139
     73          1           0       30.921640   -4.840569    2.982496
     74          1           0       31.486870   -5.453438    1.304972
     75          1           0       29.805032   -5.547946    2.017946
     76          1           0       28.065583   -3.746389   -2.848532
     77          1           0       31.493461   -4.849924   -5.410287
     78          1           0       30.277326   -3.819127   -6.332587
     79          1           0       30.232149   -5.582156   -6.337962
     80         12           0      -29.881864   -0.617892   -0.346272
     81          6           0      -28.049113    2.331802   -0.288197
     82          6           0      -27.235155   -2.210267    1.390918
     83          6           0      -31.968355   -3.040592    0.623901
     84          6           0      -32.649285    1.272228   -1.440574
     85          7           0      -27.956440    0.125422    0.790529
     86          6           0      -27.361006    1.302011    0.403966
     87          6           0      -25.976398    1.424561    0.958416
     88          6           0      -25.619281   -0.102040    1.265559
     89          6           0      -27.014375   -0.816822    1.184439
     90          6           0      -24.530558   -0.781493    0.291032
     91          6           0      -25.943708    2.479523    2.180475
     92          6           0      -24.663629    3.111233    2.400823
     93          1           0      -24.130836    2.943870    3.839652
     94          7           0      -29.627837   -2.454864    0.672010
     95          6           0      -28.450436   -2.934344    1.311423
     96          6           0      -28.745910   -4.256728    1.836480
     97          6           0      -30.114026   -4.546027    1.612988
     98          6           0      -30.622280   -3.351166    0.858865
     99          6           0      -27.755939   -5.028444    2.626746
    100          6           0      -30.849258   -5.849913    2.137061
    101          8           0      -30.166026   -6.660780    2.760501
    102          6           0      -32.232083   -6.254501    1.637885
    103          7           0      -31.991571   -0.757583   -0.330452
    104          6           0      -32.566180   -1.936453    0.018759
    105          6           0      -34.217097   -1.884284   -0.037648
    106          6           0      -34.414652   -0.557289   -0.916086
    107          6           0      -32.975408    0.047335   -0.950418
    108          6           0      -34.920321   -3.115685   -0.724491
    109          6           0      -35.419813    0.422426   -0.307618
    110          6           0      -36.675775    0.863054   -1.097072
    111          7           0      -30.203427    1.298599   -1.044483
    112          6           0      -31.350987    1.894838   -1.480370
    113          6           0      -31.039946    3.207572   -1.975170
    114          6           0      -29.711490    3.421867   -1.446813
    115          6           0      -29.294413    2.217514   -0.854772
    116          6           0      -32.003818    4.184672   -2.583839
    117          6           0      -28.692847    4.433230   -1.256190
    118          8           0      -28.594220    5.522489   -1.733869
    119          6           0      -27.470656    3.763378   -0.515363
    120          6           0      -26.177770    3.671200   -1.355471
    121          8           0      -26.118800    3.230123   -2.483096
    122          8           0      -25.112333    4.267560   -0.649954
    123          6           0      -23.877409    4.423334   -1.357530
    124          1           0      -26.358958   -2.661564    1.859426
    125          1           0      -32.714049   -3.669346    1.114533
    126          1           0      -33.529805    1.812241   -1.793462
    127          1           0      -25.236723    1.636897    0.185779
    128          1           0      -25.250244   -0.160998    2.290126
    129          1           0      -23.714351   -1.085835    0.946105
    130          1           0      -24.180559   -0.106992   -0.489797
    131          1           0      -25.012321   -1.661873   -0.135316
    132          1           0      -26.186676    1.864723    3.046967
    133          1           0      -26.797849    3.109777    1.931369
    134          1           0      -24.808067    4.167819    2.178499
    135          1           0      -23.909342    2.663397    1.753893
    136          1           0      -26.754207   -4.608641    2.536830
    137          1           0      -27.659028   -6.035253    2.219722
    138          1           0      -28.010419   -5.030730    3.686881
    139          1           0      -33.026188   -5.571647    1.941529
    140          1           0      -32.429651   -7.261582    2.006576
    141          1           0      -32.176798   -6.317031    0.551025
    142          1           0      -34.493806   -1.699422    0.999950
    143          1           0      -34.622247   -0.731956   -1.972008
    144          1           0      -35.488493   -3.675256    0.018015
    145          1           0      -34.163262   -3.771398   -1.156279
    146          1           0      -35.580262   -2.708566   -1.491295
    147          1           0      -34.927781    1.315398    0.077210
    148          1           0      -35.832093    0.113819    0.652918
    149          1           0      -36.715737    1.895760   -1.444582
    150          1           0      -37.498019    0.768378   -0.387400
    151          1           0      -36.831360    0.235335   -1.975315
    152          1           0      -31.409154    4.926032   -3.118137
    153          1           0      -32.446639    4.893550   -1.884903
    154          1           0      -32.809652    3.737038   -3.164925
    155          1           0      -27.292487    4.442958    0.318491
    156          1           0      -23.175702    4.405803   -0.522992
    157          1           0      -23.768094    5.424687   -1.773629
    158          1           0      -23.773306    3.663642   -2.131176
 ---------------------------------------------------------------------

 SCF Done:  E(RwB97XD) =  -4070.58205101     A.U. after   19 cycles

 Excitation energies and oscillator strengths:

 Excited State   1:      Singlet-A      1.6352 eV  758.20 nm  f=0.3871  <S**2>=0.000
     309 -> 316        0.17852
     312 -> 313        0.68609
     309 <- 316        0.11658
 This state for optimization and/or second-order correction.
 Total Energy, E(TD-HF/TD-DFT) =  -4070.52195701
 Copying the excited state density for this state as the 1-particle RhoCI density.

 Excited State   2:      Singlet-A      1.7608 eV  704.12 nm  f=0.3731  <S**2>=0.000
     310 -> 315        0.17859
     311 -> 314        0.68335
     310 <- 315        0.10772

 Excited State   3:      Singlet-A      2.1961 eV  564.55 nm  f=0.1044  <S**2>=0.000
     309 -> 313        0.63437
     312 -> 316       -0.29407

 Excited State   4:      Singlet-A      2.2096 eV  561.13 nm  f=0.1119  <S**2>=0.000
     310 -> 314        0.63747
     311 -> 315       -0.28425

 Excited State   5:      Singlet-A      3.3901 eV  365.72 nm  f=0.0208  <S**2>=0.000
     304 -> 313        0.56106
     306 -> 313        0.12425
     307 -> 313       -0.35222
     312 -> 316        0.15574

 The electronic state is 1-A.
 Alpha  occ. eigenvalues --  -46.96157 -46.94584 -19.30358 -19.29487 -19.25666
 Alpha  occ. eigenvalues --  -19.24967 -19.24771 -19.24359 -19.24080 -19.23255
 Alpha  occ. eigenvalues --  -14.46937 -14.46901 -14.46622 -14.46342 -14.45018
 Alpha  occ. eigenvalues --  -14.44841 -14.43632 -14.43278 -10.43952 -10.42072
 Alpha  occ. eigenvalues --  -10.40458 -10.40426 -10.39970 -10.37984 -10.36670
 Alpha  occ. eigenvalues --  -10.36174 -10.35916 -10.35714 -10.35364 -10.35307
 Alpha  occ. eigenvalues --  -10.35287 -10.35187 -10.35125 -10.34962 -10.34536
 Alpha  occ. eigenvalues --  -10.34464 -10.34462 -10.34149 -10.33749 -10.33607
 Alpha  occ. eigenvalues --  -10.33362 -10.33082 -10.32720 -10.32703 -10.32667
 Alpha  occ. eigenvalues --  -10.32590 -10.32570 -10.32560 -10.32389 -10.32354
 Alpha  occ. eigenvalues --  -10.32264 -10.32108 -10.32092 -10.32033 -10.32016
 Alpha  occ. eigenvalues --  -10.32003 -10.31911 -10.31858 -10.31715 -10.31693
 Alpha  occ. eigenvalues --  -10.31669 -10.31642 -10.31398 -10.31170 -10.30957
 Alpha  occ. eigenvalues --  -10.30886 -10.30749 -10.30695 -10.30658 -10.30596
 Alpha  occ. eigenvalues --  -10.30594 -10.30503 -10.30372 -10.30367 -10.30304
 Alpha  occ. eigenvalues --  -10.30218 -10.30132 -10.29879 -10.29687 -10.29674
 Alpha  occ. eigenvalues --  -10.29536 -10.29434 -10.29085 -10.28919 -10.28845
 Alpha  occ. eigenvalues --  -10.28640  -3.22042  -3.20548  -1.95573  -1.95216
 Alpha  occ. eigenvalues --   -1.94973  -1.94146  -1.93664  -1.93527  -1.18238
 Alpha  occ. eigenvalues --   -1.17956  -1.13798  -1.12997  -1.12564  -1.11437
 Alpha  occ. eigenvalues --   -1.10932  -1.09557  -1.06904  -1.06085  -1.04977
 Alpha  occ. eigenvalues --   -1.04544  -1.04393  -1.03965  -1.03642  -1.02943
 Alpha  occ. eigenvalues --   -0.94200  -0.93757  -0.91111  -0.90988  -0.90296
 Alpha  occ. eigenvalues --   -0.90277  -0.90078  -0.90013  -0.89262  -0.88825
 Alpha  occ. eigenvalues --   -0.88813  -0.88395  -0.87773  -0.87474  -0.86281
 Alpha  occ. eigenvalues --   -0.86005  -0.85503  -0.85249  -0.84627  -0.84416
 Alpha  occ. eigenvalues --   -0.84170  -0.83109  -0.83000  -0.82662  -0.82233
 Alpha  occ. eigenvalues --   -0.82057  -0.80453  -0.79761  -0.79308  -0.78831
 Alpha  occ. eigenvalues --   -0.78700  -0.78356  -0.78061  -0.77658  -0.76902
 Alpha  occ. eigenvalues --   -0.76681  -0.74661  -0.74214  -0.73340  -0.73291
 Alpha  occ. eigenvalues --   -0.71149  -0.71096  -0.70742  -0.70421  -0.69431
 Alpha  occ. eigenvalues --   -0.69416  -0.69148  -0.68487  -0.67858  -0.67531
 Alpha  occ. eigenvalues --   -0.66843  -0.66745  -0.66605  -0.66463  -0.66350
 Alpha  occ. eigenvalues --   -0.66108  -0.64805  -0.63126  -0.62091  -0.61707
 Alpha  occ. eigenvalues --   -0.61445  -0.61157  -0.60992  -0.60771  -0.60535
 Alpha  occ. eigenvalues --   -0.59988  -0.59943  -0.59750  -0.59464  -0.59009
 Alpha  occ. eigenvalues --   -0.58341  -0.57948  -0.57666  -0.57294  -0.56952
 Alpha  occ. eigenvalues --   -0.56717  -0.56698  -0.56131  -0.55936  -0.55618
 Alpha  occ. eigenvalues --   -0.55237  -0.55191  -0.55169  -0.54951  -0.54686
 Alpha  occ. eigenvalues --   -0.54509  -0.54498  -0.54421  -0.54049  -0.54048
 Alpha  occ. eigenvalues --   -0.53702  -0.53614  -0.53598  -0.53317  -0.53043
 Alpha  occ. eigenvalues --   -0.52964  -0.52777  -0.52716  -0.52503  -0.52166
 Alpha  occ. eigenvalues --   -0.52047  -0.52022  -0.51689  -0.51589  -0.51522
 Alpha  occ. eigenvalues --   -0.51454  -0.51356  -0.51157  -0.51054  -0.50720
 Alpha  occ. eigenvalues --   -0.50633  -0.50564  -0.50374  -0.49963  -0.49933
 Alpha  occ. eigenvalues --   -0.49914  -0.49806  -0.49676  -0.49475  -0.49231
 Alpha  occ. eigenvalues --   -0.49001  -0.48930  -0.48693  -0.48361  -0.48332
 Alpha  occ. eigenvalues --   -0.48124  -0.48086  -0.47916  -0.47891  -0.47583
 Alpha  occ. eigenvalues --   -0.47466  -0.47179  -0.47099  -0.46890  -0.46752
 Alpha  occ. eigenvalues --   -0.46745  -0.46658  -0.46437  -0.46414  -0.46030
 Alpha  occ. eigenvalues --   -0.45962  -0.45904  -0.45876  -0.45477  -0.45458
 Alpha  occ. eigenvalues --   -0.45361  -0.45192  -0.45156  -0.45081  -0.44982
 Alpha  occ. eigenvalues --   -0.44730  -0.44626  -0.44433  -0.44300  -0.44192
 Alpha  occ. eigenvalues --   -0.44181  -0.43892  -0.43404  -0.43392  -0.43134
 Alpha  occ. eigenvalues --   -0.42958  -0.42891  -0.42463  -0.42367  -0.42202
 Alpha  occ. eigenvalues --   -0.41936  -0.41716  -0.41565  -0.41311  -0.40618
 Alpha  occ. eigenvalues --   -0.40601  -0.40184  -0.39701  -0.39651  -0.39206
 Alpha  occ. eigenvalues --   -0.39046  -0.38896  -0.38683  -0.38243  -0.38225
 Alpha  occ. eigenvalues --   -0.37838  -0.37575  -0.36756  -0.36250  -0.36164
 Alpha  occ. eigenvalues --   -0.35781  -0.35543  -0.35331  -0.33915  -0.33589
 Alpha  occ. eigenvalues --   -0.33495  -0.33457  -0.32882  -0.32437  -0.32180
 Alpha  occ. eigenvalues --   -0.31946  -0.31301  -0.30751  -0.26264  -0.26019
 Alpha  occ. eigenvalues --   -0.23154  -0.22988
 Alpha virt. eigenvalues --   -0.07127  -0.06837   0.00151   0.00248   0.02093
 Alpha virt. eigenvalues --    0.02509   0.04213   0.04251   0.04491   0.06017
 Alpha virt. eigenvalues --    0.06723   0.06922   0.07082   0.07912   0.08214

 Mulliken charges:
               1
     1  Mg   0.955413
     2  C    0.013656
     3  C   -0.100443
     4  C   -0.065546
     5  C   -0.067013
     6  N   -0.380833
     7  C   -0.011734
     8  C   -0.052190
     9  C   -0.156829
    10  C    0.113016
    11  C    0.022926
    12  C    0.049822
    13  C   -0.135495
    14  H    0.029620
    15  N   -0.510014
    16  C    0.184510
    17  C   -0.168031
    18  C   -0.051426
    19  C    0.184707
    20  C    0.065793
    21  C    0.037431
    22  O   -0.218193
    23  C   -0.019019
    24  N   -0.317928
    25  C    0.037497
    26  C   -0.121228
    27  C   -0.060552
    28  C    0.021403
    29  C    0.018083
    30  C    0.000706
    31  C   -0.057013
    32  N   -0.463862
    33  C    0.166423
    34  C   -0.208596
    35  C   -0.042139
    36  C    0.161474
    37  C    0.091189
    38  C    0.152357
    39  O   -0.199088
    40  C   -0.162838
    41  C    0.269652
    42  O   -0.250542
    43  O   -0.372361
    44  C    0.150447
    45  H   -0.008593
    46  H    0.020406
    47  H   -0.018296
    48  H    0.051744
    49  H    0.032784
    50  H    0.036890
    51  H    0.043464
    52  H    0.050796
    53  H    0.038833
    54  H    0.034459
    55  H    0.066040
    56  H    0.050642
    57  H    0.052552
    58  H    0.034075
    59  H    0.066412
    60  H    0.061586
    61  H    0.055637
    62  H    0.047376
    63  H    0.040341
    64  H    0.034397
    65  H    0.035216
    66  H    0.050602
    67  H    0.041483
    68  H    0.030951
    69  H    0.027959
    70  H    0.041062
    71  H    0.031089
    72  H    0.041231
    73  H    0.019059
    74  H    0.070174
    75  H    0.044829
    76  H    0.079919
    77  H    0.060085
    78  H    0.049494
    79  H    0.052085
    80  Mg   0.961088
    81  C   -0.078156
    82  C   -0.075576
    83  C   -0.094060
    84  C   -0.091062
    85  N   -0.325304
    86  C   -0.039612
    87  C   -0.084162
    88  C   -0.134206
    89  C    0.034696
    90  C    0.014950
    91  C    0.052754
    92  C   -0.094168
    93  H    0.019832
    94  N   -0.466498
    95  C    0.174669
    96  C   -0.161975
    97  C   -0.102752
    98  C    0.203850
    99  C    0.095631
   100  C    0.075997
   101  O   -0.234448
   102  C   -0.028136
   103  N   -0.403862
   104  C    0.073769
   105  C   -0.123930
   106  C   -0.024153
   107  C    0.034526
   108  C    0.024333
   109  C   -0.029715
   110  C   -0.054247
   111  N   -0.416326
   112  C    0.139703
   113  C   -0.160981
   114  C   -0.085644
   115  C    0.221429
   116  C    0.066544
   117  C    0.109016
   118  O   -0.181755
   119  C   -0.079656
   120  C    0.276247
   121  O   -0.220970
   122  O   -0.387214
   123  C    0.130575
   124  H    0.011433
   125  H   -0.019713
   126  H   -0.007321
   127  H    0.027340
   128  H    0.037135
   129  H    0.043856
   130  H    0.052429
   131  H    0.042183
   132  H    0.036916
   133  H    0.036978
   134  H    0.063403
   135  H    0.049670
   136  H    0.010677
   137  H    0.056740
   138  H    0.066338
   139  H    0.071096
   140  H    0.057642
   141  H    0.067768
   142  H    0.055946
   143  H    0.043572
   144  H    0.039935
   145  H    0.046121
   146  H    0.045235
   147  H    0.031539
   148  H    0.018914
   149  H    0.040055
   150  H    0.034077
   151  H    0.032266
   152  H    0.049871
   153  H    0.043569
   154  H    0.043564
   155  H    0.072455
   156  H    0.046038
   157  H    0.054201
   158  H    0.067029
 Sum of Mulliken charges =  -0.00000

 Dipole moment (field-independent basis, Debye):
    X=             -3.8071    Y=              2.4155    Z=              0.3810  Tot=              4.5248
 Quadrupole moment (field-independent basis, Debye-Ang):
   XX=           -466.9258   YY=           -551.4798   ZZ=           -497.9060
   XY=            210.4976   XZ=             -3.8503   YZ=             -0.3360

 Normal termination of Gaussian 16 at Mon Sep 20 13:15:12 2021.
