 Gaussian 16, Revision A.03,
 Gaussian 16:  ES64L-G16RevA.03 25-Dec-2016

 --------------------------------
 #p wB97XD/Def2SVP td=(nstates=5)
 --------------------------------

 --------------------------------
 TDDFT excited states in gaussian
 --------------------------------
 Symbolic Z-matrix:
 Charge =  0 Multiplicity = 1

                         Standard orientation:
 ---------------------------------------------------------------------
 Center     Atomic      Atomic             Coordinates (Angstroms)
 Number     Number       Type             X           Y           Z
 ---------------------------------------------------------------------
      1         12           0       -9.617487   -0.871030    0.502356
      2          6           0       -9.556303    2.527775   -0.407233
      3          6           0       -7.691749   -0.025268    3.271257
      4          6           0       -9.429028   -4.124558    1.140016
      5          6           0      -10.824468   -1.669364   -2.783423
      6          7           0       -8.718660    1.001655    1.311059
      7          6           0       -8.950126    2.290889    0.811285
      8          6           0       -8.631436    3.307670    1.891734
      9          6           0       -7.787064    2.529437    2.940589
     10          6           0       -8.087281    1.069853    2.484162
     11          6           0       -6.281183    2.925386    3.051419
     12          6           0       -9.881596    4.042991    2.487719
     13          6           0       -9.592950    5.532483    2.970235
     14          1           0       -8.158396    6.055233    2.857112
     15          7           0       -8.822876   -1.875114    2.018342
     16          6           0       -8.136837   -1.354361    3.102002
     17          6           0       -7.833483   -2.383842    4.053774
     18          6           0       -8.208909   -3.606826    3.411159
     19          6           0       -8.870518   -3.223231    2.176843
     20          6           0       -7.076444   -2.127652    5.392602
     21          6           0       -7.994550   -5.010990    3.873461
     22          8           0       -8.238244   -5.990558    3.129124
     23          6           0       -7.394389   -5.522916    5.215950
     24          7           0       -9.800042   -2.665823   -0.733527
     25          6           0       -9.773378   -3.895912   -0.186669
     26          6           0      -10.376516   -4.936685   -1.163235
     27          6           0      -10.801500   -4.170724   -2.421193
     28          6           0      -10.490161   -2.692754   -1.917434
     29          6           0       -9.481714   -6.126211   -1.334460
     30          6           0      -12.253661   -4.365638   -2.907581
     31          6           0      -13.351597   -3.979275   -1.886092
     32          7           0      -10.058289    0.163294   -1.316269
     33          6           0      -10.665578   -0.277460   -2.442643
     34          6           0      -11.054525    0.910443   -3.201133
     35          6           0      -10.682788    2.071308   -2.466863
     36          6           0      -10.020190    1.565363   -1.322139
     37          6           0      -11.860036    0.914722   -4.497680
     38          6           0      -10.684759    3.499284   -2.449062
     39          8           0      -11.197721    4.360066   -3.159197
     40          6           0       -9.849686    3.882040   -1.060689
     41          6           0       -8.704197    4.813723   -1.409203
     42          8           0       -7.645645    4.434610   -1.870667
     43          8           0       -8.994107    6.107055   -1.038101
     44          6           0       -8.216056    7.198467   -1.615170
     45          1           0       -7.203015    0.369175    4.164363
     46          1           0       -9.425367   -5.171839    1.448360
     47          1           0      -11.312701   -1.983663   -3.707926
     48          1           0       -8.013847    4.100016    1.469051
     49          1           0       -8.259145    2.691127    3.909230
     50          1           0       -5.778330    1.973721    2.882757
     51          1           0       -6.035258    3.221191    4.071993
     52          1           0       -5.861439    3.656019    2.360018
     53          1           0      -10.235247    3.554923    3.395386
     54          1           0      -10.688289    4.002655    1.756917
     55          1           0       -9.760351    5.561360    4.047028
     56          1           0      -10.274401    6.185325    2.425323
     57          1           0       -6.402196   -2.969664    5.553839
     58          1           0       -7.745467   -2.089541    6.251625
     59          1           0       -6.487664   -1.223599    5.547204
     60          1           0       -7.943902   -5.112794    6.063733
     61          1           0       -6.326646   -5.320714    5.300020
     62          1           0       -7.637392   -6.558769    5.449743
     63          1           0      -11.200981   -5.397122   -0.620364
     64          1           0      -10.006699   -4.363907   -3.142524
     65          1           0       -9.815340   -6.992586   -0.763025
     66          1           0       -8.455347   -5.857735   -1.083761
     67          1           0       -9.383723   -6.467005   -2.365769
     68          1           0      -12.314332   -5.440839   -3.077233
     69          1           0      -12.409698   -3.835308   -3.847466
     70          1           0      -13.930850   -3.195583   -2.373927
     71          1           0      -12.837928   -3.614910   -0.996395
     72          1           0      -13.950843   -4.817968   -1.531353
     73          1           0      -12.635880    1.679758   -4.506644
     74          1           0      -12.438393   -0.001752   -4.611074
     75          1           0      -11.158447    0.967812   -5.330631
     76          1           0      -10.565612    4.454255   -0.470119
     77          1           0       -7.181982    6.854773   -1.652030
     78          1           0       -8.232413    8.125513   -1.041986
     79          1           0       -8.678639    7.405348   -2.580250
     80         12           0        9.573772   -0.604587   -0.141221
     81          6           0        7.807082    2.410519   -0.321747
     82          6           0       12.224432    1.040267    1.254868
     83          6           0       11.300544   -3.420174   -0.319892
     84          6           0        6.804908   -2.160416   -1.781103
     85          7           0        9.961045    1.520614    0.354078
     86          6           0        9.102740    2.594822    0.276087
     87          6           0        9.668481    3.783351    1.031263
     88          6           0       11.177497    3.374175    1.257808
     89          6           0       11.065095    1.831161    1.010374
     90          6           0       12.144475    4.046824    0.291776
     91          6           0        8.757081    4.117014    2.268153
     92          6           0        9.371851    5.181054    3.219257
     93          1           0       10.280667    6.214410    2.586663
     94          7           0       11.426318   -1.103034    0.391810
     95          6           0       12.435973   -0.272111    0.860839
     96          6           0       13.699890   -1.004594    1.053631
     97          6           0       13.390552   -2.330151    0.619014
     98          6           0       11.992210   -2.316322    0.197581
     99          6           0       14.917406   -0.386650    1.632013
    100          6           0       14.340532   -3.499657    0.591439
    101          8           0       13.970849   -4.652362    0.233794
    102          6           0       15.761223   -3.363641    1.068108
    103          7           0        9.081482   -2.550939   -0.898169
    104          6           0       10.005992   -3.508989   -0.827805
    105          6           0        9.499441   -4.822754   -1.570469
    106          6           0        8.017714   -4.393883   -2.095351
    107          6           0        7.959822   -2.954338   -1.582438
    108          6           0       10.529493   -5.179557   -2.719200
    109          6           0        6.827417   -5.234713   -1.463410
    110          6           0        6.481069   -6.567771   -2.186767
    111          7           0        7.743181   -0.057068   -0.959568
    112          6           0        6.652699   -0.792643   -1.494369
    113          6           0        5.483455    0.152944   -1.766391
    114          6           0        5.908118    1.424692   -1.395144
    115          6           0        7.268096    1.223075   -0.833290
    116          6           0        4.122154   -0.196175   -2.281058
    117          6           0        5.546356    2.815541   -1.252490
    118          8           0        4.518193    3.437880   -1.537042
    119          6           0        6.706631    3.498138   -0.371602
    120          6           0        7.184856    4.810312   -0.949811
    121          8           0        8.045622    4.904702   -1.782548
    122          8           0        6.667399    5.906276   -0.222968
    123          6           0        7.367161    7.192968   -0.355185
    124          1           0       12.993298    1.711390    1.644252
    125          1           0       11.881030   -4.342582   -0.390341
    126          1           0        5.971727   -2.545149   -2.373083
    127          1           0        9.609327    4.647466    0.370740
    128          1           0       11.553400    3.504403    2.273133
    129          1           0       12.870209    4.565664    0.917866
    130          1           0       11.569216    4.666211   -0.395981
    131          1           0       12.796766    3.336458   -0.215597
    132          1           0        8.482936    3.117746    2.604960
    133          1           0        7.835892    4.515466    1.844338
    134          1           0        9.908203    4.575127    3.949571
    135          1           0        8.552482    5.716408    3.698764
    136          1           0       15.620079   -0.435541    0.800349
    137          1           0       15.265272   -0.885188    2.536358
    138          1           0       14.902770    0.667321    1.912499
    139          1           0       15.755542   -3.124647    2.130684
    140          1           0       16.077810   -2.566487    0.394334
    141          1           0       16.420535   -4.209832    0.876786
    142          1           0        9.459969   -5.511103   -0.725345
    143          1           0        7.896976   -4.203004   -3.162542
    144          1           0       11.358933   -4.479334   -2.816782
    145          1           0       10.018214   -5.196022   -3.682083
    146          1           0       10.980926   -6.124764   -2.419162
    147          1           0        5.961465   -4.615802   -1.230253
    148          1           0        7.175535   -5.535869   -0.475903
    149          1           0        6.543098   -7.354721   -1.435959
    150          1           0        7.153364   -6.684035   -3.036927
    151          1           0        5.462185   -6.570117   -2.574759
    152          1           0        3.445871   -0.106651   -1.430645
    153          1           0        4.122766   -1.204570   -2.696634
    154          1           0        3.685802    0.448235   -3.043947
    155          1           0        6.286103    3.631573    0.624698
    156          1           0        7.031807    7.593337   -1.311551
    157          1           0        8.440646    7.065915   -0.213779
    158          1           0        7.037305    7.803435    0.484999
 ---------------------------------------------------------------------

 SCF Done:  E(RwB97XD) =  -4070.63038888     A.U. after   18 cycles

 Excitation energies and oscillator strengths:

 Excited State   1:      Singlet-A      1.6014 eV  774.24 nm  f=0.4018  <S**2>=0.000
     309 -> 316        0.17292
     311 -> 313        0.68564
     309 <- 316        0.11419
 This state for optimization and/or second-order correction.
 Total Energy, E(TD-HF/TD-DFT) =  -4070.57153960
 Copying the excited state density for this state as the 1-particle RhoCI density.

 Excited State   2:      Singlet-A      1.6547 eV  749.29 nm  f=0.3830  <S**2>=0.000
     310 -> 315       -0.20548
     312 -> 314        0.67801
     310 <- 315       -0.12145

 Excited State   3:      Singlet-A      2.1364 eV  580.35 nm  f=0.1449  <S**2>=0.000
     309 -> 313        0.65491
     311 -> 316       -0.24810

 Excited State   4:      Singlet-A      2.2347 eV  554.81 nm  f=0.0334  <S**2>=0.000
     310 -> 314        0.58726
     312 -> 315        0.38643

 Excited State   5:      Singlet-A      3.2153 eV  385.61 nm  f=0.0000  <S**2>=0.000
     312 -> 313        0.70697

 The electronic state is 1-A.
 Alpha  occ. eigenvalues --  -46.95171 -46.94361 -19.29345 -19.29167 -19.25168
 Alpha  occ. eigenvalues --  -19.24305 -19.24194 -19.24043 -19.23403 -19.23358
 Alpha  occ. eigenvalues --  -14.47089 -14.46685 -14.46064 -14.45898 -14.44817
 Alpha  occ. eigenvalues --  -14.44519 -14.44447 -14.43870 -10.43225 -10.42823
 Alpha  occ. eigenvalues --  -10.39511 -10.39508 -10.39427 -10.39186 -10.35559
 Alpha  occ. eigenvalues --  -10.35446 -10.34973 -10.34891 -10.34861 -10.34708
 Alpha  occ. eigenvalues --  -10.34701 -10.34685 -10.34602 -10.34461 -10.34324
 Alpha  occ. eigenvalues --  -10.34311 -10.34304 -10.34265 -10.34110 -10.33752
 Alpha  occ. eigenvalues --  -10.33651 -10.33575 -10.33435 -10.33346 -10.33175
 Alpha  occ. eigenvalues --  -10.33145 -10.32931 -10.32560 -10.32286 -10.32236
 Alpha  occ. eigenvalues --  -10.32232 -10.32200 -10.32178 -10.32092 -10.32026
 Alpha  occ. eigenvalues --  -10.31955 -10.31763 -10.31751 -10.31708 -10.31640
 Alpha  occ. eigenvalues --  -10.31537 -10.31522 -10.31465 -10.31404 -10.31324
 Alpha  occ. eigenvalues --  -10.31085 -10.30929 -10.30825 -10.30583 -10.30574
 Alpha  occ. eigenvalues --  -10.30498 -10.30306 -10.30265 -10.30158 -10.30044
 Alpha  occ. eigenvalues --  -10.29988 -10.29987 -10.29969 -10.29575 -10.29366
 Alpha  occ. eigenvalues --  -10.29357 -10.29352 -10.29228 -10.29138 -10.29117
 Alpha  occ. eigenvalues --  -10.28683  -3.21183  -3.20461  -1.94742  -1.94306
 Alpha  occ. eigenvalues --   -1.94162  -1.94061  -1.93574  -1.93464  -1.17568
 Alpha  occ. eigenvalues --   -1.17472  -1.11580  -1.11303  -1.10575  -1.09974
 Alpha  occ. eigenvalues --   -1.09931  -1.09502  -1.06271  -1.06269  -1.05420
 Alpha  occ. eigenvalues --   -1.05391  -1.05149  -1.04765  -1.04041  -1.03344
 Alpha  occ. eigenvalues --   -0.94052  -0.93522  -0.90972  -0.90795  -0.90393
 Alpha  occ. eigenvalues --   -0.90308  -0.90025  -0.89688  -0.89426  -0.89194
 Alpha  occ. eigenvalues --   -0.88703  -0.88577  -0.88171  -0.87162  -0.86105
 Alpha  occ. eigenvalues --   -0.85612  -0.85136  -0.84786  -0.84073  -0.83986
 Alpha  occ. eigenvalues --   -0.83754  -0.82909  -0.82630  -0.82473  -0.81904
 Alpha  occ. eigenvalues --   -0.81897  -0.80883  -0.80595  -0.79278  -0.78842
 Alpha  occ. eigenvalues --   -0.78769  -0.78573  -0.77656  -0.77648  -0.76850
 Alpha  occ. eigenvalues --   -0.76421  -0.74422  -0.74001  -0.73380  -0.72952
 Alpha  occ. eigenvalues --   -0.71749  -0.71301  -0.71033  -0.70446  -0.70231
 Alpha  occ. eigenvalues --   -0.70230  -0.69431  -0.69032  -0.67343  -0.67114
 Alpha  occ. eigenvalues --   -0.67059  -0.66758  -0.66051  -0.65985  -0.65863
 Alpha  occ. eigenvalues --   -0.65711  -0.63508  -0.63219  -0.62858  -0.62604
 Alpha  occ. eigenvalues --   -0.61409  -0.61353  -0.60702  -0.60643  -0.59959
 Alpha  occ. eigenvalues --   -0.59680  -0.59464  -0.59291  -0.58819  -0.58700
 Alpha  occ. eigenvalues --   -0.58067  -0.57815  -0.57770  -0.57586  -0.56674
 Alpha  occ. eigenvalues --   -0.56650  -0.56468  -0.56089  -0.55826  -0.55727
 Alpha  occ. eigenvalues --   -0.55552  -0.55292  -0.55145  -0.54889  -0.54602
 Alpha  occ. eigenvalues --   -0.54405  -0.54384  -0.54196  -0.54084  -0.53827
 Alpha  occ. eigenvalues --   -0.53779  -0.53584  -0.53302  -0.53182  -0.53028
 Alpha  occ. eigenvalues --   -0.52862  -0.52735  -0.52511  -0.52333  -0.51985
 Alpha  occ. eigenvalues --   -0.51919  -0.51408  -0.51388  -0.51320  -0.51174
 Alpha  occ. eigenvalues --   -0.51048  -0.51028  -0.50858  -0.50850  -0.50709
 Alpha  occ. eigenvalues --   -0.50575  -0.50459  -0.50371  -0.50045  -0.50000
 Alpha  occ. eigenvalues --   -0.49971  -0.49746  -0.49570  -0.49303  -0.49269
 Alpha  occ. eigenvalues --   -0.48715  -0.48518  -0.48219  -0.48167  -0.48042
 Alpha  occ. eigenvalues --   -0.47959  -0.47692  -0.47613  -0.47446  -0.47294
 Alpha  occ. eigenvalues --   -0.47059  -0.47053  -0.47026  -0.46705  -0.46571
 Alpha  occ. eigenvalues --   -0.46563  -0.46334  -0.46053  -0.46048  -0.45900
 Alpha  occ. eigenvalues --   -0.45859  -0.45822  -0.45357  -0.45284  -0.45017
 Alpha  occ. eigenvalues --   -0.45015  -0.44945  -0.44894  -0.44787  -0.44444
 Alpha  occ. eigenvalues --   -0.44417  -0.44209  -0.44159  -0.44040  -0.43795
 Alpha  occ. eigenvalues --   -0.43689  -0.43495  -0.43440  -0.43427  -0.43245
 Alpha  occ. eigenvalues --   -0.42769  -0.42542  -0.42404  -0.42188  -0.42031
 Alpha  occ. eigenvalues --   -0.41887  -0.41442  -0.41078  -0.41050  -0.40890
 Alpha  occ. eigenvalues --   -0.40491  -0.40433  -0.40036  -0.39835  -0.39652
 Alpha  occ. eigenvalues --   -0.39497  -0.38808  -0.38770  -0.38202  -0.38170
 Alpha  occ. eigenvalues --   -0.37832  -0.37753  -0.36429  -0.36080  -0.35921
 Alpha  occ. eigenvalues --   -0.35608  -0.35352  -0.35149  -0.33592  -0.33415
 Alpha  occ. eigenvalues --   -0.33004  -0.32882  -0.32664  -0.32525  -0.32400
 Alpha  occ. eigenvalues --   -0.32180  -0.32173  -0.31556  -0.25949  -0.25854
 Alpha  occ. eigenvalues --   -0.23100  -0.22160
 Alpha virt. eigenvalues --   -0.07519  -0.06177  -0.00184   0.00608   0.01899
 Alpha virt. eigenvalues --    0.02091   0.04167   0.04314   0.04756   0.06358
 Alpha virt. eigenvalues --    0.06757   0.07502   0.07724   0.07869   0.08536

 Mulliken charges:
               1
     1  Mg   0.971995
     2  C    0.006965
     3  C   -0.061339
     4  C   -0.063189
     5  C   -0.063017
     6  N   -0.337796
     7  C   -0.002829
     8  C   -0.035514
     9  C   -0.097943
    10  C    0.010393
    11  C    0.027378
    12  C   -0.006639
    13  C   -0.129251
    14  H    0.034632
    15  N   -0.494992
    16  C    0.189540
    17  C   -0.136966
    18  C   -0.054493
    19  C    0.137721
    20  C    0.058959
    21  C    0.036185
    22  O   -0.271861
    23  C   -0.006981
    24  N   -0.340744
    25  C    0.077672
    26  C   -0.129577
    27  C   -0.020213
    28  C    0.012668
    29  C    0.021458
    30  C   -0.019460
    31  C   -0.045887
    32  N   -0.429020
    33  C    0.150821
    34  C   -0.205109
    35  C    0.004422
    36  C    0.123010
    37  C    0.072292
    38  C    0.116875
    39  O   -0.207547
    40  C   -0.128470
    41  C    0.274764
    42  O   -0.236887
    43  O   -0.379995
    44  C    0.133428
    45  H   -0.003019
    46  H    0.022799
    47  H   -0.004452
    48  H    0.031234
    49  H    0.032896
    50  H    0.030826
    51  H    0.034690
    52  H    0.059320
    53  H    0.029571
    54  H    0.037091
    55  H    0.054281
    56  H    0.069076
    57  H    0.036962
    58  H    0.050938
    59  H    0.045735
    60  H    0.030888
    61  H    0.073347
    62  H    0.048374
    63  H    0.037067
    64  H    0.038739
    65  H    0.043304
    66  H    0.041784
    67  H    0.022134
    68  H    0.033121
    69  H    0.039393
    70  H    0.046917
    71  H    0.038604
    72  H    0.042857
    73  H    0.057566
    74  H    0.018358
    75  H    0.059578
    76  H    0.065459
    77  H    0.061058
    78  H    0.053590
    79  H    0.064453
    80  Mg   0.984880
    81  C   -0.030008
    82  C   -0.097722
    83  C   -0.087966
    84  C   -0.091605
    85  N   -0.320861
    86  C   -0.001288
    87  C   -0.052492
    88  C   -0.133697
    89  C    0.011035
    90  C    0.044556
    91  C   -0.023234
    92  C   -0.099726
    93  H    0.046698
    94  N   -0.499621
    95  C    0.214501
    96  C   -0.158876
    97  C   -0.076672
    98  C    0.175104
    99  C    0.073890
   100  C    0.037565
   101  O   -0.272607
   102  C    0.020783
   103  N   -0.348966
   104  C    0.045692
   105  C   -0.087746
   106  C   -0.049406
   107  C    0.040520
   108  C    0.013482
   109  C   -0.039885
   110  C   -0.032249
   111  N   -0.452129
   112  C    0.125040
   113  C   -0.193925
   114  C   -0.008828
   115  C    0.139143
   116  C    0.070591
   117  C    0.151292
   118  O   -0.214317
   119  C   -0.144557
   120  C    0.289479
   121  O   -0.219266
   122  O   -0.405942
   123  C    0.143436
   124  H   -0.011375
   125  H    0.021103
   126  H    0.001702
   127  H    0.028673
   128  H    0.029214
   129  H    0.028405
   130  H    0.059102
   131  H    0.036215
   132  H    0.041140
   133  H    0.036884
   134  H    0.058274
   135  H    0.059321
   136  H    0.054013
   137  H    0.057583
   138  H    0.035968
   139  H    0.065460
   140  H    0.039172
   141  H    0.055081
   142  H    0.050500
   143  H    0.044646
   144  H    0.052615
   145  H    0.038375
   146  H    0.049490
   147  H    0.035006
   148  H    0.018981
   149  H    0.041624
   150  H    0.039400
   151  H    0.037251
   152  H    0.060930
   153  H    0.027465
   154  H    0.061355
   155  H    0.091537
   156  H    0.068742
   157  H    0.050036
   158  H    0.052022
 Sum of Mulliken charges =  -0.00000

 Dipole moment (field-independent basis, Debye):
    X=              2.0987    Y=              0.0668    Z=              8.4127  Tot=              8.6708
 Quadrupole moment (field-independent basis, Debye-Ang):
   XX=           -428.0138   YY=           -508.0026   ZZ=           -486.8599
   XY=             48.7665   XZ=             -1.0670   YZ=             42.9570

 Normal termination of Gaussian 16 at Sun Sep 19 04:41:41 2021.
