 Gaussian 16, Revision A.03,
 Gaussian 16:  ES64L-G16RevA.03 25-Dec-2016

 --------------------------------
 #p wB97XD/Def2SVP td=(nstates=5)
 --------------------------------

 --------------------------------
 TDDFT excited states in gaussian
 --------------------------------
 Symbolic Z-matrix:
 Charge =  0 Multiplicity = 1

                         Standard orientation:
 ---------------------------------------------------------------------
 Center     Atomic      Atomic             Coordinates (Angstroms)
 Number     Number       Type             X           Y           Z
 ---------------------------------------------------------------------
      1         12           0      -28.040281   -0.175702   -0.511532
      2          6           0      -25.039344    0.980916    0.718467
      3          6           0      -27.198951   -3.303403    0.571956
      4          6           0      -31.264745   -0.893293   -0.536137
      5          6           0      -28.760047    3.109088   -1.521270
      6          7           0      -26.483715   -0.899377    0.943960
      7          6           0      -25.265044   -0.320095    1.096554
      8          6           0      -24.268486   -1.229023    1.753165
      9          6           0      -24.827623   -2.614484    1.293918
     10          6           0      -26.233416   -2.256533    0.834886
     11          6           0      -23.934807   -3.308493    0.225629
     12          6           0      -24.281677   -1.090100    3.357680
     13          6           0      -22.861581   -1.259204    4.072680
     14          1           0      -22.954572   -2.430929    5.018436
     15          7           0      -29.050740   -1.934622   -0.231498
     16          6           0      -28.601908   -3.098404    0.287848
     17          6           0      -29.687109   -4.064783    0.400272
     18          6           0      -30.870626   -3.383785    0.048482
     19          6           0      -30.413462   -1.998876   -0.256322
     20          6           0      -29.428388   -5.505401    0.904213
     21          6           0      -32.239258   -3.978456    0.230418
     22          8           0      -32.346121   -5.113465    0.615875
     23          6           0      -33.561031   -3.219729    0.004928
     24          7           0      -29.815362    0.899676   -1.092410
     25          6           0      -30.964578    0.396280   -0.993872
     26          6           0      -32.058631    1.363961   -1.256452
     27          6           0      -31.266916    2.686885   -1.598520
     28          6           0      -29.883487    2.240755   -1.401450
     29          6           0      -33.055473    0.832272   -2.341086
     30          6           0      -31.667542    3.894346   -0.630423
     31          6           0      -31.323827    5.350048   -1.108034
     32          7           0      -27.115132    1.669119   -0.522172
     33          6           0      -27.495045    2.884124   -1.062856
     34          6           0      -26.413182    3.827118   -0.997336
     35          6           0      -25.373035    3.090401   -0.329747
     36          6           0      -25.886826    1.856078    0.018207
     37          6           0      -26.388578    5.232155   -1.506861
     38          6           0      -24.023352    3.170713    0.111349
     39          8           0      -23.147055    4.044716    0.094746
     40          6           0      -23.812653    1.884975    0.977666
     41          6           0      -22.481593    1.327883    0.596735
     42          8           0      -21.419106    1.567007    1.187627
     43          8           0      -22.605280    0.564530   -0.531229
     44          6           0      -21.259961    0.057812   -0.922660
     45          1           0      -26.980198   -4.358462    0.751422
     46          1           0      -32.325626   -1.143218   -0.477735
     47          1           0      -29.032089    4.150320   -1.710482
     48          1           0      -23.332119   -1.000032    1.245931
     49          1           0      -24.824568   -3.297445    2.143582
     50          1           0      -23.532424   -4.232905    0.638927
     51          1           0      -23.077016   -2.657302    0.054397
     52          1           0      -24.533899   -3.421838   -0.677346
     53          1           0      -25.014309   -1.697877    3.888463
     54          1           0      -24.629145   -0.098956    3.647451
     55          1           0      -22.760416   -0.356200    4.674903
     56          1           0      -21.953176   -1.295482    3.471250
     57          1           0      -29.986805   -5.787101    1.796837
     58          1           0      -28.375391   -5.736425    1.069011
     59          1           0      -29.690954   -6.174650    0.085582
     60          1           0      -33.711328   -2.915102   -1.030275
     61          1           0      -33.688453   -2.356929    0.659201
     62          1           0      -34.328230   -3.889254    0.395018
     63          1           0      -32.541110    1.462410   -0.284111
     64          1           0      -31.276841    3.046340   -2.627217
     65          1           0      -34.039088    0.796050   -1.873312
     66          1           0      -32.762940   -0.148133   -2.717457
     67          1           0      -33.270156    1.545008   -3.137188
     68          1           0      -31.193921    3.765052    0.342980
     69          1           0      -32.743260    3.800258   -0.489222
     70          1           0      -32.105873    6.095332   -1.250539
     71          1           0      -30.856432    5.328460   -2.091552
     72          1           0      -30.612290    5.812061   -0.423647
     73          1           0      -27.231594    5.543761   -2.123255
     74          1           0      -25.448511    5.199968   -2.056149
     75          1           0      -26.234226    5.765963   -0.569049
     76          1           0      -23.859070    2.056257    2.053654
     77          1           0      -20.653052    0.887704   -1.283251
     78          1           0      -21.288687   -0.569554   -1.813579
     79          1           0      -20.845388   -0.470970   -0.064141
     80         12           0       27.787460    0.464720   -0.222997
     81          6           0       25.848211   -2.347496   -0.247781
     82          6           0       24.909373    2.253188    0.863568
     83          6           0       29.749877    3.177393    0.196818
     84          6           0       30.636256   -1.534967   -0.373818
     85          7           0       25.628425   -0.116546    0.632296
     86          6           0       25.044152   -1.291534    0.265217
     87          6           0       23.606001   -1.304528    0.703966
     88          6           0       23.300552    0.204720    1.101983
     89          6           0       24.681635    0.889959    0.854500
     90          6           0       21.988651    0.750509    0.670065
     91          6           0       23.106048   -2.394885    1.765357
     92          6           0       24.078278   -2.871207    2.803555
     93          1           0       23.594187   -2.892228    4.246644
     94          7           0       27.331225    2.471814    0.204645
     95          6           0       26.138851    3.004498    0.585761
     96          6           0       26.233499    4.411434    0.841102
     97          6           0       27.655087    4.729515    0.529304
     98          6           0       28.317451    3.429800    0.283835
     99          6           0       25.187570    5.332330    1.255785
    100          6           0       28.337890    6.088403    0.469682
    101          8           0       27.775380    7.058873    0.835020
    102          6           0       29.761778    6.356557    0.067867
    103          7           0       29.851116    0.746390    0.021718
    104          6           0       30.390888    1.974465   -0.007031
    105          6           0       31.991565    1.900644    0.215172
    106          6           0       32.238829    0.419326   -0.354051
    107          6           0       30.852249   -0.150473   -0.171549
    108          6           0       32.814717    2.975432   -0.500326
    109          6           0       33.415664   -0.295893    0.333814
    110          6           0       34.486484   -1.017403   -0.492989
    111          7           0       28.191351   -1.548694   -0.186344
    112          6           0       29.383804   -2.253382   -0.294723
    113          6           0       29.156740   -3.636270   -0.460994
    114          6           0       27.778223   -3.762665   -0.508712
    115          6           0       27.209182   -2.451381   -0.335395
    116          6           0       30.174936   -4.720020   -0.637763
    117          6           0       26.657566   -4.586751   -0.695500
    118          8           0       26.651559   -5.801582   -0.883724
    119          6           0       25.371472   -3.775265   -0.369446
    120          6           0       24.479148   -4.046112   -1.571823
    121          8           0       23.301006   -4.454178   -1.492850
    122          8           0       25.157314   -3.625787   -2.691646
    123          6           0       24.497583   -3.510805   -4.015282
    124          1           0       24.027715    2.715233    1.312481
    125          1           0       30.380037    4.004285    0.530527
    126          1           0       31.532861   -2.146419   -0.491980
    127          1           0       22.990803   -1.601537   -0.146187
    128          1           0       23.256994    0.221493    2.190600
    129          1           0       22.062006    1.724113    0.185632
    130          1           0       21.248358    0.726834    1.469771
    131          1           0       21.577742    0.116728   -0.115851
    132          1           0       22.771328   -3.333111    1.322717
    133          1           0       22.326191   -1.958799    2.390442
    134          1           0       25.083784   -2.462410    2.709566
    135          1           0       24.191399   -3.945903    2.657196
    136          1           0       24.236280    4.983848    0.854868
    137          1           0       25.348700    6.361705    0.937815
    138          1           0       25.159221    5.301307    2.345572
    139          1           0       29.814739    5.535541   -0.647534
    140          1           0       30.468386    6.210309    0.884227
    141          1           0       29.978386    7.324982   -0.383359
    142          1           0       32.136857    1.877048    1.295614
    143          1           0       32.419695    0.293196   -1.421229
    144          1           0       33.303935    2.488149   -1.344167
    145          1           0       33.420484    3.529051    0.216477
    146          1           0       32.202608    3.764496   -0.936120
    147          1           0       32.977900   -1.026768    1.014253
    148          1           0       33.882780    0.414418    1.016153
    149          1           0       35.535987   -0.813872   -0.279805
    150          1           0       34.309748   -0.952864   -1.567427
    151          1           0       34.224861   -2.062345   -0.329491
    152          1           0       29.865191   -5.534423   -1.293116
    153          1           0       30.411064   -5.133240    0.343120
    154          1           0       31.099686   -4.371464   -1.099454
    155          1           0       25.022112   -4.241506    0.550980
    156          1           0       24.829299   -2.635910   -4.574138
    157          1           0       23.421869   -3.443641   -3.851906
    158          1           0       24.583888   -4.309262   -4.751185
 ---------------------------------------------------------------------

 SCF Done:  E(RwB97XD) =  -4070.54850290     A.U. after   19 cycles

 Excitation energies and oscillator strengths:

 Excited State   1:      Singlet-A      1.5769 eV  786.23 nm  f=0.3853  <S**2>=0.000
     309 -> 315       -0.17494
     311 -> 313        0.68654
     309 <- 315       -0.11858
 This state for optimization and/or second-order correction.
 Total Energy, E(TD-HF/TD-DFT) =  -4070.49055155
 Copying the excited state density for this state as the 1-particle RhoCI density.

 Excited State   2:      Singlet-A      1.6577 eV  747.93 nm  f=0.3611  <S**2>=0.000
     310 -> 316        0.16764
     312 -> 314        0.68564
     310 <- 316        0.10880

 Excited State   3:      Singlet-A      2.0921 eV  592.63 nm  f=0.1445  <S**2>=0.000
     309 -> 313        0.64988
     311 -> 315        0.25887

 Excited State   4:      Singlet-A      2.1685 eV  571.76 nm  f=0.1042  <S**2>=0.000
     310 -> 314        0.63803
     312 -> 316       -0.28236

 Excited State   5:      Singlet-A      3.0079 eV  412.19 nm  f=0.0074  <S**2>=0.000
     306 -> 313       -0.21760
     308 -> 313        0.63595
     308 -> 318       -0.12455

 The electronic state is 1-A.
 Alpha  occ. eigenvalues --  -46.96302 -46.95565 -19.31476 -19.30730 -19.25325
 Alpha  occ. eigenvalues --  -19.24598 -19.23973 -19.23607 -19.22878 -19.22180
 Alpha  occ. eigenvalues --  -14.47173 -14.46679 -14.46647 -14.46494 -14.44958
 Alpha  occ. eigenvalues --  -14.44608 -14.44284 -14.43133 -10.44394 -10.42486
 Alpha  occ. eigenvalues --  -10.39787 -10.38351 -10.38012 -10.37463 -10.36566
 Alpha  occ. eigenvalues --  -10.36445 -10.36143 -10.35873 -10.35658 -10.35435
 Alpha  occ. eigenvalues --  -10.35154 -10.35009 -10.34921 -10.34857 -10.34693
 Alpha  occ. eigenvalues --  -10.34687 -10.34162 -10.34149 -10.33922 -10.33644
 Alpha  occ. eigenvalues --  -10.33443 -10.33041 -10.32955 -10.32724 -10.32575
 Alpha  occ. eigenvalues --  -10.32504 -10.32436 -10.32362 -10.32362 -10.32260
 Alpha  occ. eigenvalues --  -10.32246 -10.32169 -10.32106 -10.31990 -10.31915
 Alpha  occ. eigenvalues --  -10.31871 -10.31849 -10.31844 -10.31736 -10.31682
 Alpha  occ. eigenvalues --  -10.31590 -10.31556 -10.31505 -10.31381 -10.31295
 Alpha  occ. eigenvalues --  -10.31276 -10.31241 -10.30886 -10.30753 -10.30749
 Alpha  occ. eigenvalues --  -10.30706 -10.30687 -10.30663 -10.30651 -10.30592
 Alpha  occ. eigenvalues --  -10.30587 -10.30206 -10.30101 -10.30084 -10.30066
 Alpha  occ. eigenvalues --  -10.30008 -10.29905 -10.29620 -10.29000 -10.28933
 Alpha  occ. eigenvalues --  -10.28372  -3.22235  -3.21577  -1.95776  -1.95391
 Alpha  occ. eigenvalues --   -1.95175  -1.95153  -1.94715  -1.94538  -1.18075
 Alpha  occ. eigenvalues --   -1.17887  -1.14239  -1.13575  -1.11654  -1.10256
 Alpha  occ. eigenvalues --   -1.09487  -1.09052  -1.08593  -1.07209  -1.06682
 Alpha  occ. eigenvalues --   -1.06429  -1.05970  -1.04933  -1.04805  -1.04161
 Alpha  occ. eigenvalues --   -0.95744  -0.94416  -0.91719  -0.91602  -0.90626
 Alpha  occ. eigenvalues --   -0.90607  -0.90312  -0.90128  -0.89912  -0.89237
 Alpha  occ. eigenvalues --   -0.89185  -0.88931  -0.88518  -0.87787  -0.86454
 Alpha  occ. eigenvalues --   -0.86207  -0.85912  -0.85671  -0.85006  -0.84172
 Alpha  occ. eigenvalues --   -0.84097  -0.83740  -0.82939  -0.82823  -0.82553
 Alpha  occ. eigenvalues --   -0.82276  -0.80467  -0.80343  -0.79815  -0.79751
 Alpha  occ. eigenvalues --   -0.78914  -0.78711  -0.78653  -0.77865  -0.77440
 Alpha  occ. eigenvalues --   -0.77434  -0.75590  -0.74638  -0.74213  -0.73745
 Alpha  occ. eigenvalues --   -0.72379  -0.71972  -0.71383  -0.71323  -0.70352
 Alpha  occ. eigenvalues --   -0.70131  -0.69672  -0.68743  -0.68564  -0.68204
 Alpha  occ. eigenvalues --   -0.67509  -0.67299  -0.66857  -0.66694  -0.66456
 Alpha  occ. eigenvalues --   -0.66382  -0.65604  -0.64378  -0.62571  -0.62286
 Alpha  occ. eigenvalues --   -0.61563  -0.61457  -0.61181  -0.60857  -0.60765
 Alpha  occ. eigenvalues --   -0.60051  -0.59987  -0.59577  -0.59213  -0.58964
 Alpha  occ. eigenvalues --   -0.58578  -0.58504  -0.58102  -0.57801  -0.57641
 Alpha  occ. eigenvalues --   -0.57261  -0.57065  -0.56925  -0.56399  -0.56065
 Alpha  occ. eigenvalues --   -0.55958  -0.55541  -0.55283  -0.55092  -0.54925
 Alpha  occ. eigenvalues --   -0.54656  -0.54427  -0.54327  -0.54048  -0.53934
 Alpha  occ. eigenvalues --   -0.53754  -0.53731  -0.53606  -0.53327  -0.53112
 Alpha  occ. eigenvalues --   -0.53105  -0.53043  -0.52645  -0.52547  -0.52526
 Alpha  occ. eigenvalues --   -0.52409  -0.52164  -0.51912  -0.51841  -0.51654
 Alpha  occ. eigenvalues --   -0.51627  -0.51450  -0.51122  -0.51055  -0.50943
 Alpha  occ. eigenvalues --   -0.50835  -0.50596  -0.50235  -0.50138  -0.49818
 Alpha  occ. eigenvalues --   -0.49698  -0.49564  -0.49481  -0.49351  -0.49287
 Alpha  occ. eigenvalues --   -0.49152  -0.49038  -0.48880  -0.48816  -0.48734
 Alpha  occ. eigenvalues --   -0.48374  -0.48200  -0.48157  -0.48062  -0.47805
 Alpha  occ. eigenvalues --   -0.47674  -0.47576  -0.47468  -0.47322  -0.47262
 Alpha  occ. eigenvalues --   -0.47077  -0.46964  -0.46816  -0.46557  -0.46343
 Alpha  occ. eigenvalues --   -0.46243  -0.46127  -0.46122  -0.45938  -0.45932
 Alpha  occ. eigenvalues --   -0.45303  -0.45281  -0.45103  -0.44982  -0.44871
 Alpha  occ. eigenvalues --   -0.44661  -0.44551  -0.44514  -0.44372  -0.44073
 Alpha  occ. eigenvalues --   -0.44042  -0.43934  -0.43827  -0.43808  -0.43647
 Alpha  occ. eigenvalues --   -0.43415  -0.43337  -0.43203  -0.43103  -0.42658
 Alpha  occ. eigenvalues --   -0.42454  -0.42177  -0.41970  -0.41503  -0.40942
 Alpha  occ. eigenvalues --   -0.40627  -0.40571  -0.40219  -0.39945  -0.39609
 Alpha  occ. eigenvalues --   -0.39435  -0.38976  -0.38881  -0.38757  -0.38401
 Alpha  occ. eigenvalues --   -0.38151  -0.37536  -0.36967  -0.36799  -0.35852
 Alpha  occ. eigenvalues --   -0.35798  -0.35323  -0.35317  -0.33967  -0.33798
 Alpha  occ. eigenvalues --   -0.33581  -0.33066  -0.32785  -0.32579  -0.32001
 Alpha  occ. eigenvalues --   -0.31526  -0.31022  -0.30395  -0.26384  -0.26138
 Alpha  occ. eigenvalues --   -0.23519  -0.22977
 Alpha virt. eigenvalues --   -0.08037  -0.07108  -0.00020   0.00144   0.02302
 Alpha virt. eigenvalues --    0.02338   0.04079   0.04158   0.04835   0.05146
 Alpha virt. eigenvalues --    0.06655   0.06975   0.07361   0.08135   0.08504

 Mulliken charges:
               1
     1  Mg   0.966842
     2  C    0.016027
     3  C   -0.089473
     4  C   -0.073364
     5  C   -0.081632
     6  N   -0.340882
     7  C   -0.050310
     8  C   -0.024369
     9  C   -0.146522
    10  C    0.111207
    11  C    0.045251
    12  C    0.022917
    13  C   -0.129970
    14  H    0.028897
    15  N   -0.460482
    16  C    0.119226
    17  C   -0.139233
    18  C   -0.060653
    19  C    0.168435
    20  C    0.086680
    21  C    0.018659
    22  O   -0.211053
    23  C   -0.019680
    24  N   -0.295274
    25  C    0.031293
    26  C   -0.087914
    27  C   -0.051426
    28  C    0.005407
    29  C    0.018781
    30  C   -0.018507
    31  C   -0.065367
    32  N   -0.451081
    33  C    0.151285
    34  C   -0.200781
    35  C   -0.007520
    36  C    0.105974
    37  C    0.098564
    38  C    0.085766
    39  O   -0.226215
    40  C   -0.061144
    41  C    0.241392
    42  O   -0.258083
    43  O   -0.370126
    44  C    0.138467
    45  H    0.002885
    46  H   -0.045493
    47  H   -0.027251
    48  H    0.026018
    49  H    0.042455
    50  H    0.041620
    51  H    0.029830
    52  H    0.040813
    53  H    0.040686
    54  H    0.032341
    55  H    0.057558
    56  H    0.062919
    57  H    0.069808
    58  H    0.019252
    59  H    0.052854
    60  H    0.067222
    61  H    0.060706
    62  H    0.051528
    63  H    0.046684
    64  H    0.041952
    65  H    0.030582
    66  H    0.057224
    67  H    0.038724
    68  H    0.041070
    69  H    0.036551
    70  H    0.040100
    71  H    0.033032
    72  H    0.044203
    73  H    0.043260
    74  H    0.065006
    75  H    0.064732
    76  H    0.078458
    77  H    0.064889
    78  H    0.047290
    79  H    0.060484
    80  Mg   0.958765
    81  C    0.008340
    82  C   -0.083334
    83  C   -0.083982
    84  C   -0.096585
    85  N   -0.330830
    86  C   -0.005448
    87  C   -0.018848
    88  C   -0.091852
    89  C    0.035764
    90  C    0.041606
    91  C   -0.010795
    92  C   -0.168713
    93  H    0.030022
    94  N   -0.448619
    95  C    0.171484
    96  C   -0.181776
    97  C   -0.096684
    98  C    0.137567
    99  C    0.086405
   100  C    0.013511
   101  O   -0.209769
   102  C   -0.015107
   103  N   -0.361659
   104  C    0.084178
   105  C   -0.139093
   106  C   -0.084197
   107  C    0.074765
   108  C    0.050074
   109  C   -0.015376
   110  C   -0.044733
   111  N   -0.442131
   112  C    0.139214
   113  C   -0.188077
   114  C    0.058680
   115  C    0.109944
   116  C    0.078516
   117  C    0.062345
   118  O   -0.216470
   119  C   -0.121501
   120  C    0.313003
   121  O   -0.256651
   122  O   -0.379226
   123  C    0.145009
   124  H    0.008478
   125  H    0.003768
   126  H   -0.014243
   127  H    0.042117
   128  H    0.049774
   129  H    0.035494
   130  H    0.041489
   131  H    0.026945
   132  H    0.059182
   133  H    0.045150
   134  H    0.064482
   135  H    0.055834
   136  H    0.031663
   137  H    0.063209
   138  H    0.053821
   139  H    0.032429
   140  H    0.070932
   141  H    0.058003
   142  H    0.056103
   143  H    0.040603
   144  H    0.038885
   145  H    0.039570
   146  H    0.032353
   147  H    0.030273
   148  H    0.027704
   149  H    0.056394
   150  H    0.025813
   151  H    0.030880
   152  H    0.060935
   153  H    0.060869
   154  H    0.031910
   155  H    0.065645
   156  H    0.053571
   157  H    0.053933
   158  H    0.058295
 Sum of Mulliken charges =  -0.00000

 Dipole moment (field-independent basis, Debye):
    X=             -1.8250    Y=             -0.6081    Z=             -4.9142  Tot=              5.2773
 Quadrupole moment (field-independent basis, Debye-Ang):
   XX=             -8.4003   YY=           -586.7178   ZZ=           -494.5158
   XY=             16.3878   XZ=              9.7009   YZ=             -9.7871

 Normal termination of Gaussian 16 at Mon Sep 20 05:40:15 2021.
