 Gaussian 16, Revision A.03,
 Gaussian 16:  ES64L-G16RevA.03 25-Dec-2016

 --------------------------------
 #p wB97XD/Def2SVP td=(nstates=5)
 --------------------------------

 --------------------------------
 TDDFT excited states in gaussian
 --------------------------------
 Symbolic Z-matrix:
 Charge =  0 Multiplicity = 1

                         Standard orientation:
 ---------------------------------------------------------------------
 Center     Atomic      Atomic             Coordinates (Angstroms)
 Number     Number       Type             X           Y           Z
 ---------------------------------------------------------------------
      1         12           0      -25.572353    0.676280    0.403700
      2          6           0      -25.978524   -2.176197   -1.476728
      3          6           0      -25.140051   -1.362386    3.217157
      4          6           0      -25.255395    3.423995    2.338637
      5          6           0      -26.369088    2.588234   -2.284589
      6          7           0      -25.831266   -1.548155    0.838219
      7          6           0      -25.760326   -2.518519   -0.169067
      8          6           0      -25.406384   -3.910216    0.391393
      9          6           0      -25.261695   -3.578248    1.922246
     10          6           0      -25.363045   -2.073266    2.047726
     11          6           0      -26.284386   -4.300978    2.789834
     12          6           0      -24.156710   -4.676631   -0.169841
     13          6           0      -24.439218   -6.035029   -1.014014
     14          1           0      -23.760220   -7.244074   -0.363117
     15          7           0      -25.352671    1.000951    2.456811
     16          6           0      -25.061546    0.025809    3.424430
     17          6           0      -24.635428    0.637439    4.687488
     18          6           0      -24.729154    2.121816    4.507800
     19          6           0      -25.064296    2.272605    3.035596
     20          6           0      -24.241922   -0.168557    5.905718
     21          6           0      -24.513172    3.221630    5.436700
     22          8           0      -24.749184    4.384852    5.078249
     23          6           0      -24.069542    3.017015    6.874628
     24          7           0      -25.865474    2.631597    0.067695
     25          6           0      -25.547471    3.650873    0.984288
     26          6           0      -25.593313    5.118434    0.395040
     27          6           0      -25.998691    4.766796   -1.128293
     28          6           0      -26.063705    3.222777   -1.113254
     29          6           0      -26.636339    6.099772    1.126011
     30          6           0      -24.955351    5.333386   -2.151662
     31          6           0      -25.468276    5.878607   -3.447657
     32          7           0      -26.183082    0.260583   -1.504847
     33          6           0      -26.427772    1.171870   -2.536164
     34          6           0      -26.597954    0.499966   -3.778982
     35          6           0      -26.325780   -0.869964   -3.412642
     36          6           0      -26.164765   -0.924367   -2.022362
     37          6           0      -26.841949    1.013397   -5.135769
     38          6           0      -26.332975   -2.207653   -3.916457
     39          8           0      -26.463838   -2.721093   -5.033083
     40          6           0      -26.248560   -3.129689   -2.616571
     41          6           0      -27.501873   -3.922772   -2.510990
     42          8           0      -28.438281   -3.720494   -1.842912
     43          8           0      -27.395721   -5.091514   -3.261332
     44          6           0      -28.232626   -6.185401   -2.813962
     45          1           0      -24.918327   -2.005166    4.071667
     46          1           0      -25.109645    4.385246    2.835708
     47          1           0      -26.476838    3.201917   -3.181340
     48          1           0      -26.271301   -4.561764    0.271616
     49          1           0      -24.316511   -3.941614    2.326556
     50          1           0      -26.951802   -3.561872    3.232175
     51          1           0      -25.662788   -4.754276    3.561053
     52          1           0      -26.830294   -5.110807    2.306291
     53          1           0      -23.512461   -4.925165    0.673901
     54          1           0      -23.591606   -4.055847   -0.865242
     55          1           0      -23.921817   -5.830344   -1.951465
     56          1           0      -25.511025   -6.203663   -1.115981
     57          1           0      -25.164521   -0.580594    6.316413
     58          1           0      -23.786995    0.511028    6.624705
     59          1           0      -23.637139   -1.044617    5.670513
     60          1           0      -24.310289    3.948462    7.387432
     61          1           0      -23.014386    2.761851    6.978221
     62          1           0      -24.651005    2.325378    7.483929
     63          1           0      -24.585751    5.531019    0.354523
     64          1           0      -26.938565    5.203776   -1.466385
     65          1           0      -27.111952    6.721188    0.366952
     66          1           0      -26.216097    6.858878    1.784628
     67          1           0      -27.395640    5.565743    1.697649
     68          1           0      -24.146559    4.641865   -2.387224
     69          1           0      -24.437094    6.214411   -1.773591
     70          1           0      -25.099930    5.182324   -4.200888
     71          1           0      -25.062516    6.803159   -3.858354
     72          1           0      -26.558651    5.890159   -3.436778
     73          1           0      -26.429465    2.020651   -5.200213
     74          1           0      -27.928284    1.070021   -5.203771
     75          1           0      -26.519898    0.260814   -5.855743
     76          1           0      -25.406881   -3.816724   -2.700436
     77          1           0      -29.225376   -5.916367   -3.173139
     78          1           0      -28.201325   -6.150567   -1.725086
     79          1           0      -27.925063   -7.133293   -3.256486
     80         12           0       25.207275    0.610304   -0.308227
     81          6           0       26.017842   -2.232385    1.719507
     82          6           0       24.045790   -1.422790   -2.610197
     83          6           0       25.292962    3.249159   -2.311607
     84          6           0       26.910605    2.611449    2.265257
     85          7           0       25.014434   -1.578651   -0.395265
     86          6           0       25.429962   -2.573474    0.512043
     87          6           0       25.128147   -4.041956    0.027682
     88          6           0       24.402676   -3.667295   -1.405828
     89          6           0       24.456315   -2.146340   -1.509843
     90          6           0       25.133249   -4.340850   -2.645604
     91          6           0       24.282872   -4.925504    1.009929
     92          6           0       23.644310   -6.167989    0.400728
     93          1           0       24.200962   -7.502226    0.930380
     94          7           0       24.636656    0.889354   -2.180648
     95          6           0       24.134759   -0.050343   -3.050121
     96          6           0       23.769917    0.520568   -4.329494
     97          6           0       24.141740    1.917583   -4.204108
     98          6           0       24.660824    2.073036   -2.798624
     99          6           0       23.113455   -0.162190   -5.435511
    100          6           0       24.009913    3.056120   -5.200719
    101          8           0       24.244117    4.203902   -4.944864
    102          6           0       23.639266    2.630770   -6.596659
    103          7           0       26.051631    2.636549   -0.081247
    104          6           0       25.902710    3.536711   -1.085554
    105          6           0       26.433807    4.932820   -0.663738
    106          6           0       26.810666    4.707159    0.841781
    107          6           0       26.531587    3.232136    1.057210
    108          6           0       27.611026    5.556508   -1.488218
    109          6           0       26.025119    5.573131    1.888792
    110          6           0       26.524704    7.032355    1.974131
    111          7           0       26.265221    0.336621    1.564370
    112          6           0       26.803119    1.202744    2.488221
    113          6           0       27.205432    0.470592    3.622628
    114          6           0       26.993500   -0.835966    3.386976
    115          6           0       26.421793   -0.920268    2.081278
    116          6           0       27.711285    1.172416    4.876220
    117          6           0       27.127904   -2.226512    3.832615
    118          8           0       27.592455   -2.682666    4.845398
    119          6           0       26.499937   -3.186573    2.713306
    120          6           0       27.629959   -3.951308    2.101264
    121          8           0       28.380691   -3.689256    1.188704
    122          8           0       27.652689   -5.149172    2.787727
    123          6           0       28.676331   -6.140278    2.378931
    124          1           0       23.688111   -2.017952   -3.452851
    125          1           0       25.429782    4.031359   -3.062168
    126          1           0       27.285284    3.355243    2.972274
    127          1           0       26.080255   -4.506977   -0.228483
    128          1           0       23.389587   -4.069462   -1.382219
    129          1           0       24.386623   -4.758706   -3.320739
    130          1           0       25.900370   -5.093123   -2.463949
    131          1           0       25.601844   -3.577939   -3.266525
    132          1           0       23.582397   -4.174069    1.376640
    133          1           0       24.747264   -5.259151    1.938154
    134          1           0       23.791788   -6.149988   -0.678732
    135          1           0       22.602544   -6.213523    0.716934
    136          1           0       22.165327    0.375493   -5.435136
    137          1           0       23.035918   -1.233005   -5.246619
    138          1           0       23.545773   -0.058183   -6.430486
    139          1           0       22.557781    2.693257   -6.716691
    140          1           0       24.230087    1.794082   -6.970590
    141          1           0       24.199967    3.328761   -7.217731
    142          1           0       25.543033    5.554785   -0.570622
    143          1           0       27.893335    4.776898    0.949281
    144          1           0       28.519257    5.791197   -0.932361
    145          1           0       27.257330    6.543596   -1.785135
    146          1           0       27.938363    4.974354   -2.349634
    147          1           0       26.149113    5.138498    2.880036
    148          1           0       24.978506    5.485652    1.593859
    149          1           0       27.543707    7.108572    1.594260
    150          1           0       26.431016    7.316666    3.022153
    151          1           0       25.962397    7.733955    1.357233
    152          1           0       27.531017    0.568885    5.765869
    153          1           0       27.234476    2.150126    4.946513
    154          1           0       28.767093    1.422841    4.770631
    155          1           0       25.733400   -3.841916    3.127567
    156          1           0       29.038674   -6.582722    3.306776
    157          1           0       29.512893   -5.718373    1.822119
    158          1           0       28.044918   -6.812161    1.796734
 ---------------------------------------------------------------------

 SCF Done:  E(RwB97XD) =  -4070.60427833     A.U. after   19 cycles

 Excitation energies and oscillator strengths:

 Excited State   1:      Singlet-A      1.6222 eV  764.31 nm  f=0.3969  <S**2>=0.000
     309 -> 315        0.16232
     311 -> 313        0.68606
     309 <- 315        0.10567
 This state for optimization and/or second-order correction.
 Total Energy, E(TD-HF/TD-DFT) =  -4070.54466484
 Copying the excited state density for this state as the 1-particle RhoCI density.

 Excited State   2:      Singlet-A      1.6367 eV  757.51 nm  f=0.4068  <S**2>=0.000
     310 -> 316       -0.18393
     312 -> 314        0.68410
     310 <- 316       -0.11740

 Excited State   3:      Singlet-A      2.1350 eV  580.72 nm  f=0.1218  <S**2>=0.000
     309 -> 313        0.64277
     311 -> 315       -0.25995

 Excited State   4:      Singlet-A      2.1546 eV  575.45 nm  f=0.1360  <S**2>=0.000
     310 -> 314        0.64886
     312 -> 316        0.26861

 Excited State   5:      Singlet-A      3.2508 eV  381.39 nm  f=0.0040  <S**2>=0.000
     305 -> 313        0.47430
     307 -> 313        0.38290
     308 -> 313       -0.30336
     311 -> 315        0.12192

 The electronic state is 1-A.
 Alpha  occ. eigenvalues --  -46.94918 -46.94329 -19.29100 -19.27398 -19.24861
 Alpha  occ. eigenvalues --  -19.24464 -19.24183 -19.23984 -19.23971 -19.22987
 Alpha  occ. eigenvalues --  -14.47212 -14.46840 -14.46638 -14.45916 -14.44974
 Alpha  occ. eigenvalues --  -14.44231 -14.43466 -14.43166 -10.42831 -10.41914
 Alpha  occ. eigenvalues --  -10.39370 -10.39316 -10.38739 -10.38209 -10.35950
 Alpha  occ. eigenvalues --  -10.35380 -10.35195 -10.35183 -10.34981 -10.34952
 Alpha  occ. eigenvalues --  -10.34902 -10.34772 -10.34763 -10.34398 -10.34357
 Alpha  occ. eigenvalues --  -10.34255 -10.34246 -10.34155 -10.34126 -10.33544
 Alpha  occ. eigenvalues --  -10.33372 -10.33347 -10.33271 -10.33125 -10.32993
 Alpha  occ. eigenvalues --  -10.32963 -10.32922 -10.32773 -10.32531 -10.32335
 Alpha  occ. eigenvalues --  -10.32331 -10.31879 -10.31831 -10.31819 -10.31712
 Alpha  occ. eigenvalues --  -10.31676 -10.31639 -10.31452 -10.31396 -10.31197
 Alpha  occ. eigenvalues --  -10.31160 -10.31058 -10.30941 -10.30903 -10.30874
 Alpha  occ. eigenvalues --  -10.30866 -10.30862 -10.30801 -10.30668 -10.30614
 Alpha  occ. eigenvalues --  -10.30524 -10.30390 -10.30387 -10.30128 -10.30053
 Alpha  occ. eigenvalues --  -10.29901 -10.29827 -10.29767 -10.29746 -10.29612
 Alpha  occ. eigenvalues --  -10.29606 -10.29495 -10.29397 -10.29163 -10.28765
 Alpha  occ. eigenvalues --  -10.28504  -3.20907  -3.20498  -1.94494  -1.94062
 Alpha  occ. eigenvalues --   -1.94009  -1.93896  -1.93635  -1.93492  -1.18901
 Alpha  occ. eigenvalues --   -1.17871  -1.13600  -1.13063  -1.11847  -1.10322
 Alpha  occ. eigenvalues --   -1.09923  -1.09677  -1.06647  -1.05836  -1.05472
 Alpha  occ. eigenvalues --   -1.05356  -1.04514  -1.04090  -1.03630  -1.02731
 Alpha  occ. eigenvalues --   -0.95016  -0.94560  -0.91134  -0.90844  -0.90520
 Alpha  occ. eigenvalues --   -0.90412  -0.90156  -0.89986  -0.89302  -0.89157
 Alpha  occ. eigenvalues --   -0.89113  -0.88778  -0.88684  -0.87990  -0.86172
 Alpha  occ. eigenvalues --   -0.85837  -0.85379  -0.85099  -0.84363  -0.84085
 Alpha  occ. eigenvalues --   -0.83978  -0.83862  -0.82816  -0.82676  -0.82209
 Alpha  occ. eigenvalues --   -0.82055  -0.80795  -0.80095  -0.79348  -0.78899
 Alpha  occ. eigenvalues --   -0.78624  -0.78583  -0.77488  -0.77234  -0.77176
 Alpha  occ. eigenvalues --   -0.76775  -0.75083  -0.74776  -0.73699  -0.73294
 Alpha  occ. eigenvalues --   -0.71585  -0.71373  -0.70684  -0.70622  -0.69914
 Alpha  occ. eigenvalues --   -0.69742  -0.69571  -0.68982  -0.67618  -0.67267
 Alpha  occ. eigenvalues --   -0.67029  -0.67023  -0.66583  -0.66371  -0.65919
 Alpha  occ. eigenvalues --   -0.65911  -0.63482  -0.62860  -0.62242  -0.62089
 Alpha  occ. eigenvalues --   -0.61483  -0.61367  -0.61025  -0.60823  -0.60454
 Alpha  occ. eigenvalues --   -0.60277  -0.60272  -0.59844  -0.59675  -0.58917
 Alpha  occ. eigenvalues --   -0.58536  -0.58111  -0.57684  -0.57517  -0.57270
 Alpha  occ. eigenvalues --   -0.57003  -0.56390  -0.56214  -0.56074  -0.55874
 Alpha  occ. eigenvalues --   -0.55626  -0.55594  -0.55271  -0.54949  -0.54635
 Alpha  occ. eigenvalues --   -0.54614  -0.54323  -0.54274  -0.54104  -0.53912
 Alpha  occ. eigenvalues --   -0.53575  -0.53533  -0.53302  -0.53290  -0.53113
 Alpha  occ. eigenvalues --   -0.52953  -0.52692  -0.52521  -0.52467  -0.52154
 Alpha  occ. eigenvalues --   -0.52115  -0.51979  -0.51743  -0.51707  -0.51631
 Alpha  occ. eigenvalues --   -0.51596  -0.51434  -0.51080  -0.50953  -0.50782
 Alpha  occ. eigenvalues --   -0.50587  -0.50482  -0.50360  -0.50024  -0.49958
 Alpha  occ. eigenvalues --   -0.49932  -0.49757  -0.49677  -0.49246  -0.48982
 Alpha  occ. eigenvalues --   -0.48974  -0.48786  -0.48692  -0.48421  -0.48302
 Alpha  occ. eigenvalues --   -0.48081  -0.47935  -0.47844  -0.47684  -0.47375
 Alpha  occ. eigenvalues --   -0.47353  -0.47234  -0.47232  -0.47133  -0.46980
 Alpha  occ. eigenvalues --   -0.46907  -0.46799  -0.46670  -0.46643  -0.46102
 Alpha  occ. eigenvalues --   -0.45977  -0.45796  -0.45640  -0.45495  -0.45476
 Alpha  occ. eigenvalues --   -0.45304  -0.45118  -0.45021  -0.44879  -0.44694
 Alpha  occ. eigenvalues --   -0.44565  -0.44495  -0.44011  -0.43998  -0.43813
 Alpha  occ. eigenvalues --   -0.43642  -0.43599  -0.43334  -0.43090  -0.43066
 Alpha  occ. eigenvalues --   -0.42932  -0.42827  -0.42712  -0.42606  -0.42411
 Alpha  occ. eigenvalues --   -0.42071  -0.41848  -0.41239  -0.41034  -0.40723
 Alpha  occ. eigenvalues --   -0.40643  -0.40006  -0.39814  -0.39692  -0.39633
 Alpha  occ. eigenvalues --   -0.39265  -0.39012  -0.38528  -0.38475  -0.38049
 Alpha  occ. eigenvalues --   -0.37752  -0.36891  -0.36584  -0.36459  -0.36075
 Alpha  occ. eigenvalues --   -0.35946  -0.35417  -0.34888  -0.33692  -0.33532
 Alpha  occ. eigenvalues --   -0.33493  -0.32851  -0.32591  -0.32309  -0.32225
 Alpha  occ. eigenvalues --   -0.31941  -0.31858  -0.31397  -0.26332  -0.25519
 Alpha  occ. eigenvalues --   -0.23295  -0.22781
 Alpha virt. eigenvalues --   -0.07663  -0.06910  -0.00256   0.00782   0.01768
 Alpha virt. eigenvalues --    0.02921   0.04286   0.04708   0.05226   0.05636
 Alpha virt. eigenvalues --    0.07476   0.07525   0.07884   0.08123   0.08544

 Mulliken charges:
               1
     1  Mg   0.967138
     2  C    0.011906
     3  C   -0.103194
     4  C   -0.069895
     5  C   -0.098415
     6  N   -0.364060
     7  C   -0.034175
     8  C   -0.002679
     9  C   -0.138128
    10  C    0.093163
    11  C    0.019362
    12  C   -0.009176
    13  C   -0.148446
    14  H    0.036387
    15  N   -0.481802
    16  C    0.200774
    17  C   -0.180058
    18  C   -0.027808
    19  C    0.193747
    20  C    0.079802
    21  C    0.021636
    22  O   -0.252869
    23  C   -0.034204
    24  N   -0.410965
    25  C    0.038821
    26  C   -0.045323
    27  C   -0.088362
    28  C    0.134118
    29  C   -0.000910
    30  C   -0.040910
    31  C   -0.058040
    32  N   -0.418787
    33  C    0.119488
    34  C   -0.179168
    35  C   -0.042514
    36  C    0.138679
    37  C    0.103199
    38  C    0.093039
    39  O   -0.217685
    40  C   -0.114551
    41  C    0.257152
    42  O   -0.187468
    43  O   -0.389629
    44  C    0.148291
    45  H   -0.010841
    46  H    0.025977
    47  H   -0.021868
    48  H    0.032317
    49  H    0.032471
    50  H    0.050131
    51  H    0.027201
    52  H    0.046210
    53  H    0.042843
    54  H    0.040642
    55  H    0.074223
    56  H    0.060385
    57  H    0.058529
    58  H    0.036761
    59  H    0.054107
    60  H    0.050789
    61  H    0.073241
    62  H    0.053556
    63  H    0.052007
    64  H    0.039623
    65  H    0.033986
    66  H    0.046065
    67  H    0.057357
    68  H    0.033681
    69  H    0.029694
    70  H    0.026186
    71  H    0.038824
    72  H    0.035118
    73  H    0.041488
    74  H    0.054389
    75  H    0.067136
    76  H    0.052252
    77  H    0.050858
    78  H    0.037021
    79  H    0.060159
    80  Mg   0.977172
    81  C   -0.038779
    82  C   -0.072051
    83  C   -0.068352
    84  C   -0.096234
    85  N   -0.383309
    86  C   -0.009553
    87  C   -0.027156
    88  C   -0.121338
    89  C    0.109376
    90  C   -0.013738
    91  C   -0.019321
    92  C   -0.123102
    93  H    0.029481
    94  N   -0.491563
    95  C    0.111829
    96  C   -0.136166
    97  C   -0.128136
    98  C    0.164410
    99  C    0.081693
   100  C    0.041273
   101  O   -0.208223
   102  C   -0.027634
   103  N   -0.338776
   104  C    0.031236
   105  C   -0.031778
   106  C   -0.109675
   107  C    0.026633
   108  C    0.019869
   109  C   -0.035786
   110  C   -0.029321
   111  N   -0.401492
   112  C    0.165523
   113  C   -0.242047
   114  C    0.013984
   115  C    0.138370
   116  C    0.096243
   117  C    0.119953
   118  O   -0.173072
   119  C   -0.118347
   120  C    0.285165
   121  O   -0.233251
   122  O   -0.386742
   123  C    0.128194
   124  H   -0.028678
   125  H    0.025136
   126  H    0.001803
   127  H    0.050963
   128  H    0.047794
   129  H    0.031109
   130  H    0.050485
   131  H    0.042810
   132  H    0.033664
   133  H    0.059756
   134  H    0.061113
   135  H    0.063921
   136  H    0.057799
   137  H    0.039858
   138  H    0.047083
   139  H    0.079760
   140  H    0.047420
   141  H    0.039963
   142  H    0.038797
   143  H    0.032549
   144  H    0.032692
   145  H    0.039120
   146  H    0.051696
   147  H    0.028459
   148  H    0.032722
   149  H    0.031916
   150  H    0.042764
   151  H    0.037474
   152  H    0.058694
   153  H    0.027623
   154  H    0.045789
   155  H    0.081030
   156  H    0.063689
   157  H    0.072783
   158  H    0.054982
 Sum of Mulliken charges =  -0.00000

 Dipole moment (field-independent basis, Debye):
    X=              0.8659    Y=              0.0963    Z=              2.0051  Tot=              2.1862
 Quadrupole moment (field-independent basis, Debye-Ang):
   XX=           -819.5741   YY=           -472.1607   ZZ=           -513.7452
   XY=            -27.5104   XZ=           -176.2954   YZ=            -10.3239

 Normal termination of Gaussian 16 at Mon Sep 20 13:29:45 2021.
