 Gaussian 16, Revision A.03,
 Gaussian 16:  ES64L-G16RevA.03 25-Dec-2016

 --------------------------------
 #p wB97XD/Def2SVP td=(nstates=5)
 --------------------------------

 --------------------------------
 TDDFT excited states in gaussian
 --------------------------------
 Symbolic Z-matrix:
 Charge =  0 Multiplicity = 1

                         Standard orientation:
 ---------------------------------------------------------------------
 Center     Atomic      Atomic             Coordinates (Angstroms)
 Number     Number       Type             X           Y           Z
 ---------------------------------------------------------------------
      1         12           0      -16.344332   -0.636701   -0.258014
      2          6           0      -16.119619    1.883693    2.015358
      3          6           0      -13.585470   -2.186895    1.091974
      4          6           0      -16.584316   -2.977269   -2.692129
      5          6           0      -18.862452    1.221575   -1.900463
      6          7           0      -14.866767   -0.074560    1.243646
      7          6           0      -15.189250    0.811692    2.223243
      8          6           0      -14.343210    0.680867    3.444152
      9          6           0      -13.360969   -0.508283    2.962335
     10          6           0      -13.959018   -0.975207    1.675921
     11          6           0      -11.852765   -0.023344    2.772106
     12          6           0      -15.270584    0.237438    4.669791
     13          6           0      -14.763810    0.545729    6.080375
     14          1           0      -13.310205    0.962724    6.416005
     15          7           0      -15.330987   -2.408018   -0.716232
     16          6           0      -14.188626   -2.857842   -0.034206
     17          6           0      -13.764312   -4.077940   -0.680747
     18          6           0      -14.639392   -4.333881   -1.755963
     19          6           0      -15.592289   -3.233555   -1.706075
     20          6           0      -12.572762   -4.899234   -0.135311
     21          6           0      -14.537661   -5.519903   -2.851237
     22          8           0      -15.432710   -5.747059   -3.675101
     23          6           0      -13.370259   -6.487110   -2.958094
     24          7           0      -17.641625   -0.858819   -2.037812
     25          6           0      -17.478780   -1.911582   -2.874326
     26          6           0      -18.260322   -1.718835   -4.172854
     27          6           0      -19.272433   -0.499116   -3.767393
     28          6           0      -18.660414   -0.039435   -2.434823
     29          6           0      -17.388605   -1.536581   -5.498565
     30          6           0      -20.793828   -0.910847   -3.427683
     31          6           0      -21.941836   -0.157525   -4.074005
     32          7           0      -17.385769    1.159598   -0.030938
     33          6           0      -18.338795    1.787403   -0.741865
     34          6           0      -18.764279    3.033015   -0.029805
     35          6           0      -17.914969    3.040547    1.102044
     36          6           0      -17.031199    1.943427    0.956328
     37          6           0      -19.829336    4.023030   -0.344571
     38          6           0      -17.651008    3.816842    2.255100
     39          8           0      -18.187446    4.868667    2.659911
     40          6           0      -16.466770    3.105266    2.904525
     41          6           0      -15.349835    4.020061    2.966052
     42          8           0      -14.806440    4.644378    2.109272
     43          8           0      -14.887989    3.978882    4.278245
     44          6           0      -13.676112    4.762657    4.732586
     45          1           0      -12.871621   -2.843101    1.593451
     46          1           0      -16.592175   -3.683136   -3.525696
     47          1           0      -19.484120    1.933300   -2.446564
     48          1           0      -13.749177    1.513830    3.819660
     49          1           0      -13.352723   -1.329979    3.678444
     50          1           0      -11.082967   -0.744740    3.045168
     51          1           0      -11.727849    0.947455    3.251494
     52          1           0      -11.720940    0.148358    1.703320
     53          1           0      -15.488199   -0.830393    4.640445
     54          1           0      -16.213591    0.762097    4.514174
     55          1           0      -15.008261   -0.334702    6.676018
     56          1           0      -15.392565    1.324435    6.510419
     57          1           0      -12.139879   -4.505456    0.784187
     58          1           0      -11.832816   -4.939158   -0.933991
     59          1           0      -12.932207   -5.916774    0.019751
     60          1           0      -13.446470   -7.103062   -2.062813
     61          1           0      -12.411149   -6.008092   -2.760232
     62          1           0      -13.327850   -6.924379   -3.955431
     63          1           0      -18.879518   -2.604763   -4.318643
     64          1           0      -19.299017    0.261280   -4.548147
     65          1           0      -17.611598   -0.590475   -5.992342
     66          1           0      -17.563360   -2.369594   -6.178530
     67          1           0      -16.327499   -1.477180   -5.255266
     68          1           0      -20.973361   -0.948018   -2.353312
     69          1           0      -20.891019   -1.957807   -3.713378
     70          1           0      -22.554332    0.227763   -3.259579
     71          1           0      -22.522822   -0.773200   -4.760102
     72          1           0      -21.557278    0.721737   -4.592730
     73          1           0      -20.448539    3.773027   -1.205917
     74          1           0      -19.399491    5.002627   -0.555276
     75          1           0      -20.480092    4.112891    0.524992
     76          1           0      -16.695647    2.761155    3.913560
     77          1           0      -13.224279    5.285512    3.889354
     78          1           0      -12.917044    4.075679    5.109105
     79          1           0      -14.047402    5.456142    5.487073
     80         12           0       16.332716   -0.435169    0.416684
     81          6           0       15.552832    2.473484   -1.338616
     82          6           0       12.979463   -1.230121    0.507918
     83          6           0       17.300542   -3.161218    1.965964
     84          6           0       19.786466   -0.029365   -0.673946
     85          7           0       14.432923    0.629562   -0.327468
     86          6           0       14.351107    1.789843   -1.044879
     87          6           0       12.933006    2.152981   -1.309187
     88          6           0       12.108403    0.927374   -0.746460
     89          6           0       13.224091    0.002266   -0.120971
     90          6           0       10.913403    1.312372    0.161613
     91          6           0       12.640377    2.402263   -2.808741
     92          6           0       11.946539    3.748554   -3.008606
     93          1           0       10.613913    3.757893   -3.816706
     94          7           0       15.270484   -1.975883    1.169214
     95          6           0       13.885010   -2.130653    1.163557
     96          6           0       13.627774   -3.347768    1.922434
     97          6           0       14.893052   -3.927396    2.401210
     98          6           0       15.931503   -2.969587    1.905735
     99          6           0       12.317862   -3.955386    2.004735
    100          6           0       14.959204   -5.247047    3.051126
    101          8           0       13.990555   -5.930606    3.308801
    102          6           0       16.231205   -5.946939    3.381321
    103          7           0       18.199128   -1.415287    0.557516
    104          6           0       18.364755   -2.388156    1.510486
    105          6           0       19.805203   -2.854145    1.534652
    106          6           0       20.422781   -2.189658    0.361504
    107          6           0       19.429316   -1.202478   -0.004668
    108          6           0       20.549060   -2.667200    2.920129
    109          6           0       20.585015   -3.141679   -0.872896
    110          6           0       21.698035   -2.862565   -1.773495
    111          7           0       17.501593    0.943560   -0.744089
    112          6           0       18.868379    1.023101   -1.041529
    113          6           0       19.152903    2.315165   -1.582351
    114          6           0       17.908029    2.906779   -1.761259
    115          6           0       16.902048    2.003579   -1.263880
    116          6           0       20.519094    2.794581   -1.908664
    117          6           0       17.248572    4.039377   -2.277916
    118          8           0       17.700245    5.033276   -2.801545
    119          6           0       15.744133    3.843694   -1.985723
    120          6           0       15.257020    4.982974   -1.191857
    121          8           0       15.309214    5.077990    0.045983
    122          8           0       14.877673    6.002288   -2.034809
    123          6           0       14.264236    7.206875   -1.499614
    124          1           0       11.900073   -1.385765    0.553149
    125          1           0       17.760223   -4.051204    2.402977
    126          1           0       20.837434    0.063994   -0.955461
    127          1           0       12.714378    2.925173   -0.571072
    128          1           0       11.615725    0.341333   -1.521689
    129          1           0       10.751829    2.358660   -0.100569
    130          1           0       11.026841    1.117131    1.228021
    131          1           0       10.027539    0.751659   -0.135627
    132          1           0       11.926406    1.703432   -3.244220
    133          1           0       13.602394    2.348867   -3.318096
    134          1           0       12.677144    4.224448   -3.662534
    135          1           0       11.896156    4.233243   -2.034715
    136          1           0       11.613980   -3.309267    1.479723
    137          1           0       11.889921   -4.035662    3.004446
    138          1           0       12.334710   -4.918775    1.493915
    139          1           0       16.759920   -5.123543    3.861543
    140          1           0       16.718264   -6.240972    2.451206
    141          1           0       16.060798   -6.773605    4.071362
    142          1           0       19.714433   -3.931207    1.398845
    143          1           0       21.322996   -1.597397    0.525956
    144          1           0       19.838847   -2.395221    3.701201
    145          1           0       21.435301   -2.032665    2.884595
    146          1           0       20.897009   -3.606256    3.349592
    147          1           0       19.652853   -3.156044   -1.437802
    148          1           0       20.730264   -4.171476   -0.546897
    149          1           0       22.585964   -3.371622   -1.397033
    150          1           0       21.866931   -1.793183   -1.904219
    151          1           0       21.558404   -3.407272   -2.707808
    152          1           0       21.241408    2.463845   -1.162477
    153          1           0       20.588017    3.873394   -2.049269
    154          1           0       20.776613    2.234883   -2.807893
    155          1           0       15.123217    3.940009   -2.876489
    156          1           0       14.882318    7.918378   -0.951943
    157          1           0       13.398089    6.935994   -0.896204
    158          1           0       13.967691    7.765077   -2.386856
 ---------------------------------------------------------------------

 SCF Done:  E(RwB97XD) =  -4070.57868578     A.U. after   19 cycles

 Excitation energies and oscillator strengths:

 Excited State   1:      Singlet-A      1.6143 eV  768.06 nm  f=0.3629  <S**2>=0.000
     309 -> 315       -0.19427
     311 -> 313        0.68126
     309 <- 315       -0.12116
 This state for optimization and/or second-order correction.
 Total Energy, E(TD-HF/TD-DFT) =  -4070.51936289
 Copying the excited state density for this state as the 1-particle RhoCI density.

 Excited State   2:      Singlet-A      1.6817 eV  737.26 nm  f=0.3971  <S**2>=0.000
     310 -> 316        0.19774
     312 -> 314        0.68056
     310 <- 316        0.11934

 Excited State   3:      Singlet-A      2.1298 eV  582.15 nm  f=0.0999  <S**2>=0.000
     309 -> 313        0.63360
     311 -> 315        0.30001

 Excited State   4:      Singlet-A      2.1739 eV  570.32 nm  f=0.0987  <S**2>=0.000
     310 -> 314        0.63669
     312 -> 316       -0.29861

 Excited State   5:      Singlet-A      3.2697 eV  379.19 nm  f=0.0025  <S**2>=0.000
     306 -> 313       -0.24918
     307 -> 313        0.51969
     308 -> 313       -0.35605

 The electronic state is 1-A.
 Alpha  occ. eigenvalues --  -46.95738 -46.95318 -19.30124 -19.28941 -19.24533
 Alpha  occ. eigenvalues --  -19.24346 -19.24215 -19.23907 -19.23428 -19.22440
 Alpha  occ. eigenvalues --  -14.47048 -14.46958 -14.46580 -14.46287 -14.44942
 Alpha  occ. eigenvalues --  -14.44136 -14.43988 -14.43796 -10.42970 -10.42493
 Alpha  occ. eigenvalues --  -10.40225 -10.38538 -10.38230 -10.37685 -10.35802
 Alpha  occ. eigenvalues --  -10.35712 -10.35682 -10.35669 -10.35621 -10.35432
 Alpha  occ. eigenvalues --  -10.35180 -10.35114 -10.34678 -10.34668 -10.34490
 Alpha  occ. eigenvalues --  -10.34216 -10.34047 -10.33923 -10.33897 -10.33731
 Alpha  occ. eigenvalues --  -10.33129 -10.33067 -10.32996 -10.32993 -10.32803
 Alpha  occ. eigenvalues --  -10.32742 -10.32735 -10.32463 -10.32409 -10.32390
 Alpha  occ. eigenvalues --  -10.32348 -10.32336 -10.32301 -10.32294 -10.32237
 Alpha  occ. eigenvalues --  -10.32101 -10.32029 -10.32022 -10.31887 -10.31869
 Alpha  occ. eigenvalues --  -10.31604 -10.31442 -10.31434 -10.31409 -10.31376
 Alpha  occ. eigenvalues --  -10.31352 -10.31318 -10.31236 -10.31158 -10.30700
 Alpha  occ. eigenvalues --  -10.30524 -10.30476 -10.30387 -10.30370 -10.30124
 Alpha  occ. eigenvalues --  -10.30121 -10.30052 -10.30031 -10.29963 -10.29922
 Alpha  occ. eigenvalues --  -10.29388 -10.29170 -10.29097 -10.28841 -10.28826
 Alpha  occ. eigenvalues --  -10.28784  -3.21594  -3.21255  -1.95204  -1.94846
 Alpha  occ. eigenvalues --   -1.94697  -1.94574  -1.94388  -1.94211  -1.17794
 Alpha  occ. eigenvalues --   -1.17656  -1.12317  -1.12095  -1.11723  -1.10601
 Alpha  occ. eigenvalues --   -1.09424  -1.08926  -1.07627  -1.07018  -1.06476
 Alpha  occ. eigenvalues --   -1.05849  -1.05593  -1.05040  -1.04655  -1.03661
 Alpha  occ. eigenvalues --   -0.95519  -0.94666  -0.92680  -0.91490  -0.91023
 Alpha  occ. eigenvalues --   -0.90547  -0.90135  -0.89678  -0.89439  -0.89220
 Alpha  occ. eigenvalues --   -0.88996  -0.88798  -0.88307  -0.88165  -0.87198
 Alpha  occ. eigenvalues --   -0.86482  -0.86281  -0.85407  -0.85359  -0.84533
 Alpha  occ. eigenvalues --   -0.84255  -0.83525  -0.83409  -0.83134  -0.82822
 Alpha  occ. eigenvalues --   -0.82274  -0.80620  -0.80376  -0.79947  -0.79409
 Alpha  occ. eigenvalues --   -0.79101  -0.79065  -0.78272  -0.78132  -0.77375
 Alpha  occ. eigenvalues --   -0.77111  -0.75433  -0.74611  -0.74058  -0.73964
 Alpha  occ. eigenvalues --   -0.71350  -0.71284  -0.71059  -0.70569  -0.70165
 Alpha  occ. eigenvalues --   -0.69977  -0.69506  -0.68439  -0.67968  -0.67926
 Alpha  occ. eigenvalues --   -0.67323  -0.67256  -0.67169  -0.66726  -0.66519
 Alpha  occ. eigenvalues --   -0.66253  -0.64049  -0.63843  -0.62748  -0.62471
 Alpha  occ. eigenvalues --   -0.61894  -0.61507  -0.61486  -0.61181  -0.61007
 Alpha  occ. eigenvalues --   -0.60807  -0.60443  -0.59963  -0.59745  -0.59412
 Alpha  occ. eigenvalues --   -0.58433  -0.58023  -0.57852  -0.57517  -0.57446
 Alpha  occ. eigenvalues --   -0.57242  -0.57169  -0.56399  -0.56203  -0.56149
 Alpha  occ. eigenvalues --   -0.55709  -0.55175  -0.54963  -0.54904  -0.54776
 Alpha  occ. eigenvalues --   -0.54709  -0.54524  -0.54268  -0.54117  -0.54084
 Alpha  occ. eigenvalues --   -0.54064  -0.53713  -0.53617  -0.53599  -0.53557
 Alpha  occ. eigenvalues --   -0.53354  -0.53246  -0.53219  -0.52766  -0.52487
 Alpha  occ. eigenvalues --   -0.52393  -0.51995  -0.51732  -0.51654  -0.51613
 Alpha  occ. eigenvalues --   -0.51382  -0.51372  -0.51092  -0.51072  -0.50822
 Alpha  occ. eigenvalues --   -0.50809  -0.50515  -0.50441  -0.50248  -0.50097
 Alpha  occ. eigenvalues --   -0.49889  -0.49556  -0.49544  -0.49247  -0.49114
 Alpha  occ. eigenvalues --   -0.48976  -0.48877  -0.48755  -0.48602  -0.48505
 Alpha  occ. eigenvalues --   -0.48400  -0.48277  -0.48204  -0.48152  -0.48092
 Alpha  occ. eigenvalues --   -0.47703  -0.47520  -0.47272  -0.47138  -0.46917
 Alpha  occ. eigenvalues --   -0.46642  -0.46551  -0.46494  -0.46275  -0.46237
 Alpha  occ. eigenvalues --   -0.46006  -0.45911  -0.45833  -0.45656  -0.45621
 Alpha  occ. eigenvalues --   -0.45448  -0.45198  -0.45076  -0.45018  -0.44893
 Alpha  occ. eigenvalues --   -0.44594  -0.44499  -0.44325  -0.44020  -0.43682
 Alpha  occ. eigenvalues --   -0.43681  -0.43571  -0.43568  -0.43403  -0.43304
 Alpha  occ. eigenvalues --   -0.43119  -0.43071  -0.42928  -0.42758  -0.42622
 Alpha  occ. eigenvalues --   -0.42198  -0.42112  -0.41657  -0.41344  -0.41141
 Alpha  occ. eigenvalues --   -0.40482  -0.40328  -0.39750  -0.39683  -0.39532
 Alpha  occ. eigenvalues --   -0.39334  -0.39102  -0.38769  -0.38575  -0.38402
 Alpha  occ. eigenvalues --   -0.38331  -0.38125  -0.36471  -0.36381  -0.36232
 Alpha  occ. eigenvalues --   -0.35768  -0.35412  -0.35231  -0.33632  -0.33392
 Alpha  occ. eigenvalues --   -0.33140  -0.33024  -0.32693  -0.32367  -0.32233
 Alpha  occ. eigenvalues --   -0.32075  -0.31725  -0.31575  -0.26262  -0.25757
 Alpha  occ. eigenvalues --   -0.23410  -0.22943
 Alpha virt. eigenvalues --   -0.07553  -0.06868  -0.00630   0.00186   0.02035
 Alpha virt. eigenvalues --    0.02281   0.04429   0.04436   0.05801   0.05821
 Alpha virt. eigenvalues --    0.06461   0.07315   0.07421   0.07903   0.08007

 Mulliken charges:
               1
     1  Mg   0.951341
     2  C   -0.080381
     3  C   -0.065255
     4  C   -0.054740
     5  C   -0.099714
     6  N   -0.357759
     7  C    0.029395
     8  C   -0.079504
     9  C   -0.109856
    10  C    0.090245
    11  C    0.022812
    12  C   -0.013527
    13  C   -0.098895
    14  H    0.035608
    15  N   -0.438994
    16  C    0.108830
    17  C   -0.179335
    18  C   -0.083540
    19  C    0.122437
    20  C    0.062427
    21  C    0.076024
    22  O   -0.249636
    23  C    0.010304
    24  N   -0.332483
    25  C    0.030879
    26  C   -0.062583
    27  C   -0.122893
    28  C    0.111066
    29  C    0.017309
    30  C   -0.023503
    31  C   -0.037697
    32  N   -0.390684
    33  C    0.092351
    34  C   -0.157260
    35  C   -0.058410
    36  C    0.195375
    37  C    0.082437
    38  C    0.129051
    39  O   -0.229533
    40  C   -0.055215
    41  C    0.260390
    42  O   -0.202737
    43  O   -0.416594
    44  C    0.130292
    45  H   -0.007774
    46  H    0.015264
    47  H    0.000058
    48  H    0.042268
    49  H    0.032293
    50  H    0.044449
    51  H    0.032976
    52  H    0.038486
    53  H    0.033247
    54  H    0.032485
    55  H    0.043026
    56  H    0.053462
    57  H    0.042716
    58  H    0.051379
    59  H    0.048480
    60  H    0.054930
    61  H    0.026354
    62  H    0.075598
    63  H    0.037512
    64  H    0.035307
    65  H    0.033682
    66  H    0.050458
    67  H    0.045454
    68  H    0.038408
    69  H    0.020859
    70  H    0.037111
    71  H    0.048344
    72  H    0.024423
    73  H    0.023633
    74  H    0.065344
    75  H    0.063752
    76  H    0.069643
    77  H    0.065940
    78  H    0.053352
    79  H    0.069241
    80  Mg   0.953351
    81  C    0.048283
    82  C   -0.057532
    83  C   -0.121891
    84  C   -0.096240
    85  N   -0.342759
    86  C   -0.024056
    87  C   -0.029586
    88  C   -0.145861
    89  C    0.045709
    90  C    0.012187
    91  C    0.023793
    92  C   -0.137482
    93  H    0.039268
    94  N   -0.537318
    95  C    0.202069
    96  C   -0.171385
    97  C   -0.063982
    98  C    0.269668
    99  C    0.097176
   100  C   -0.011492
   101  O   -0.239103
   102  C    0.006736
   103  N   -0.368849
   104  C    0.069679
   105  C   -0.083412
   106  C   -0.081706
   107  C    0.063054
   108  C    0.032042
   109  C    0.003075
   110  C   -0.018659
   111  N   -0.407053
   112  C    0.111912
   113  C   -0.185304
   114  C   -0.015255
   115  C    0.112743
   116  C    0.089640
   117  C    0.108565
   118  O   -0.187533
   119  C   -0.127762
   120  C    0.253725
   121  O   -0.269055
   122  O   -0.361202
   123  C    0.148986
   124  H    0.001395
   125  H   -0.005746
   126  H   -0.002720
   127  H    0.049545
   128  H    0.042547
   129  H    0.038460
   130  H    0.051660
   131  H    0.032292
   132  H    0.051864
   133  H    0.051981
   134  H    0.064330
   135  H    0.053313
   136  H    0.000998
   137  H    0.057437
   138  H    0.064892
   139  H    0.039588
   140  H    0.062521
   141  H    0.058174
   142  H    0.032788
   143  H    0.027124
   144  H    0.034016
   145  H    0.045484
   146  H    0.027824
   147  H    0.039404
   148  H    0.020001
   149  H    0.027151
   150  H    0.029254
   151  H    0.034582
   152  H    0.036212
   153  H    0.067992
   154  H    0.051161
   155  H    0.050965
   156  H    0.058178
   157  H    0.047262
   158  H    0.050887
 Sum of Mulliken charges =  -0.00000

 Dipole moment (field-independent basis, Debye):
    X=              3.0438    Y=             -4.8217    Z=              0.6163  Tot=              5.7353
 Quadrupole moment (field-independent basis, Debye-Ang):
   XX=           -477.2021   YY=           -558.4675   ZZ=           -504.8994
   XY=            -11.2561   XZ=              5.7308   YZ=             -2.9396

 Normal termination of Gaussian 16 at Sun Sep 19 13:19:03 2021.
