 Gaussian 16, Revision A.03,
 Gaussian 16:  ES64L-G16RevA.03 25-Dec-2016

 --------------------------------
 #p wB97XD/Def2SVP td=(nstates=5)
 --------------------------------

 --------------------------------
 TDDFT excited states in gaussian
 --------------------------------
 Symbolic Z-matrix:
 Charge =  0 Multiplicity = 1

                         Standard orientation:
 ---------------------------------------------------------------------
 Center     Atomic      Atomic             Coordinates (Angstroms)
 Number     Number       Type             X           Y           Z
 ---------------------------------------------------------------------
      1         12           0        0.773841    0.080512   -0.281148
      2          6           0       -2.780040   -0.044711    0.137937
      3          6           0        0.905001   -3.314248    0.221150
      4          6           0        4.149347    0.163144   -0.197759
      5          6           0        0.545375    3.567538    0.198242
      6          7           0       -0.773603   -1.466728    0.116647
      7          6           0       -2.169832   -1.336686    0.181496
      8          6           0       -2.785947   -2.704105    0.330685
      9          6           0       -1.566103   -3.569458    0.860985
     10          6           0       -0.358632   -2.691273    0.419345
     11          6           0       -1.696998   -3.682464    2.421740
     12          6           0       -3.524508   -3.220281   -0.954394
     13          6           0       -4.791090   -3.821319   -0.602525
     14          1           0       -5.795125   -4.064846   -1.838378
     15          7           0        2.247233   -1.461113   -0.190959
     16          6           0        2.092328   -2.779949   -0.023712
     17          6           0        3.365297   -3.423418   -0.134649
     18          6           0        4.335393   -2.448689   -0.238039
     19          6           0        3.584487   -1.109659   -0.270838
     20          6           0        3.541298   -4.960527    0.078477
     21          6           0        5.859272   -2.609286   -0.415268
     22          8           0        6.551074   -1.623408   -0.452867
     23          6           0        6.473053   -3.972404   -0.631783
     24          7           0        2.134534    1.648342    0.243726
     25          6           0        3.493252    1.416894    0.059551
     26          6           0        4.251834    2.703878    0.034036
     27          6           0        3.093372    3.811514    0.139344
     28          6           0        1.831854    2.980669    0.131575
     29          6           0        5.319074    2.776409    1.073269
     30          6           0        3.072163    4.984241   -0.987288
     31          6           0        3.230342    6.383316   -0.539058
     32          7           0       -0.761864    1.531376    0.044476
     33          6           0       -0.659037    2.893050    0.219127
     34          6           0       -2.074401    3.456189    0.330731
     35          6           0       -2.942831    2.355210    0.189630
     36          6           0       -2.093173    1.199986    0.070865
     37          6           0       -2.405509    4.934483    0.576796
     38          6           0       -4.325338    1.995143    0.281794
     39          8           0       -5.341798    2.711086    0.426854
     40          6           0       -4.282190    0.418365    0.423881
     41          6           0       -5.397952   -0.111482   -0.526195
     42          8           0       -5.113288   -0.574302   -1.646020
     43          8           0       -6.599262   -0.057241    0.099648
     44          6           0       -7.677060   -0.376645   -0.898568
     45          1           0        0.940305   -4.404042    0.155629
     46          1           0        5.240635    0.216255   -0.189851
     47          1           0        0.366095    4.643218    0.252692
     48          1           0       -3.478702   -2.624868    1.168181
     49          1           0       -1.566581   -4.572074    0.434837
     50          1           0       -1.442052   -2.763267    2.948586
     51          1           0       -1.091343   -4.520562    2.763892
     52          1           0       -2.727710   -3.938242    2.668423
     53          1           0       -2.942863   -4.067325   -1.318913
     54          1           0       -3.588108   -2.452420   -1.725762
     55          1           0       -5.395252   -3.141734   -0.001243
     56          1           0       -4.575971   -4.768344   -0.106967
     57          1           0        4.041547   -5.275354   -0.837304
     58          1           0        2.611060   -5.522565    0.159998
     59          1           0        4.105897   -5.145064    0.992315
     60          1           0        7.560729   -3.903417   -0.652422
     61          1           0        6.018948   -4.156353   -1.605414
     62          1           0        6.120921   -4.631637    0.161584
     63          1           0        4.681887    2.703394   -0.967714
     64          1           0        3.222384    4.302552    1.103562
     65          1           0        6.248940    2.725219    0.508268
     66          1           0        5.346196    1.898395    1.718425
     67          1           0        5.287936    3.654047    1.719340
     68          1           0        2.053903    4.909064   -1.368759
     69          1           0        3.760032    4.692146   -1.779651
     70          1           0        2.338418    6.970230   -0.756845
     71          1           0        3.992725    6.658654   -1.266996
     72          1           0        3.644464    6.469911    0.466411
     73          1           0       -2.517441    5.033477    1.655925
     74          1           0       -3.327772    5.243729    0.085056
     75          1           0       -1.609718    5.549690    0.156803
     76          1           0       -4.522351    0.261233    1.474532
     77          1           0       -7.887823    0.416354   -1.615899
     78          1           0       -8.629689   -0.674560   -0.461775
     79          1           0       -7.341127   -1.279799   -1.408438
 ---------------------------------------------------------------------

 SCF Done:  E(RwB97XD) =  -2035.27257714     A.U. after   17 cycles

 Excitation energies and oscillator strengths:

 Excited State   1:      Singlet-A      1.6768 eV  739.39 nm  f=0.3529  <S**2>=0.000
     155 ->158        -0.19196
     156 ->157         0.68017
     155 <-158        -0.11549
 This state for optimization and/or second-order correction.
 Total Energy, E(TD-HF/TD-DFT) =  -2035.21095466
 Copying the excited state density for this state as the 1-particle RhoCI density.

 Excited State   2:      Singlet-A      2.2164 eV  559.39 nm  f=0.0063  <S**2>=0.000
     155 ->157         0.55061
     156 ->158         0.43354

 Excited State   3:      Singlet-A      3.3186 eV  373.61 nm  f=0.7758  <S**2>=0.000
     153 ->157         0.10116
     155 ->157        -0.41470
     156 ->158         0.54682
     155 <-157         0.10808

 Excited State   4:      Singlet-A      3.6200 eV  342.49 nm  f=0.0221  <S**2>=0.000
     152 ->157         0.32890
     152 ->159         0.30631
     152 ->160        -0.15966
     153 ->157         0.22263
     153 ->159         0.25584
     153 ->160        -0.12205
     154 ->157        -0.25017
     154 ->159        -0.11229
     156 ->159        -0.16045

 Excited State   5:      Singlet-A      3.6961 eV  335.44 nm  f=0.1328  <S**2>=0.000
     153 ->157         0.13791
     155 ->158         0.20208
     156 ->159         0.60166
     156 ->160        -0.13106

 The electronic state is 1-A.
 Alpha  occ. eigenvalues --  -46.95765 -19.31358 -19.24696 -19.24532 -19.23770
 Alpha  occ. eigenvalues --  -14.46870 -14.46479 -14.43975 -14.43719 -10.43562
 Alpha  occ. eigenvalues --  -10.39663 -10.38890 -10.35439 -10.35395 -10.35348
 Alpha  occ. eigenvalues --  -10.35271 -10.34936 -10.34434 -10.33116 -10.33048
 Alpha  occ. eigenvalues --  -10.33001 -10.32967 -10.32769 -10.32595 -10.32221
 Alpha  occ. eigenvalues --  -10.32171 -10.32042 -10.32040 -10.31963 -10.31427
 Alpha  occ. eigenvalues --  -10.31389 -10.31034 -10.30832 -10.30497 -10.30376
 Alpha  occ. eigenvalues --  -10.30346 -10.30115 -10.29782 -10.29774 -10.29212
 Alpha  occ. eigenvalues --  -10.29005 -10.28915 -10.28805  -3.21567  -1.95146
 Alpha  occ. eigenvalues --   -1.94672  -1.94532  -1.18203  -1.13981  -1.10040
 Alpha  occ. eigenvalues --   -1.09294  -1.06123  -1.05059  -1.04678  -1.03418
 Alpha  occ. eigenvalues --   -0.93157  -0.90848  -0.90591  -0.90034  -0.89489
 Alpha  occ. eigenvalues --   -0.89152  -0.87370  -0.86275  -0.85658  -0.84547
 Alpha  occ. eigenvalues --   -0.84457  -0.82622  -0.82370  -0.80203  -0.79457
 Alpha  occ. eigenvalues --   -0.78434  -0.77375  -0.76869  -0.74143  -0.73404
 Alpha  occ. eigenvalues --   -0.70793  -0.69773  -0.69403  -0.68308  -0.67005
 Alpha  occ. eigenvalues --   -0.66882  -0.66420  -0.66277  -0.64029  -0.61948
 Alpha  occ. eigenvalues --   -0.61061  -0.60425  -0.60204  -0.59375  -0.59021
 Alpha  occ. eigenvalues --   -0.57987  -0.57440  -0.57027  -0.56245  -0.55950
 Alpha  occ. eigenvalues --   -0.55897  -0.55467  -0.54863  -0.54607  -0.54540
 Alpha  occ. eigenvalues --   -0.54384  -0.53843  -0.53240  -0.52476  -0.52295
 Alpha  occ. eigenvalues --   -0.52161  -0.52069  -0.51461  -0.51035  -0.50865
 Alpha  occ. eigenvalues --   -0.50547  -0.50147  -0.49943  -0.49769  -0.49347
 Alpha  occ. eigenvalues --   -0.48519  -0.48454  -0.48135  -0.47989  -0.47748
 Alpha  occ. eigenvalues --   -0.47280  -0.46514  -0.46440  -0.46279  -0.46010
 Alpha  occ. eigenvalues --   -0.45730  -0.45382  -0.45188  -0.44985  -0.44763
 Alpha  occ. eigenvalues --   -0.44264  -0.43947  -0.43823  -0.43384  -0.43016
 Alpha  occ. eigenvalues --   -0.42680  -0.42106  -0.41696  -0.40752  -0.40439
 Alpha  occ. eigenvalues --   -0.39766  -0.39216  -0.39161  -0.38970  -0.38067
 Alpha  occ. eigenvalues --   -0.36768  -0.36034  -0.35817  -0.35187  -0.33932
 Alpha  occ. eigenvalues --   -0.33377  -0.32627  -0.32229  -0.31456  -0.26197
 Alpha  occ. eigenvalues --   -0.22008
 Alpha virt. eigenvalues --   -0.05887  -0.00601   0.02086   0.04473   0.05075
 Alpha virt. eigenvalues --    0.07274   0.07779   0.08444   0.09874   0.10807
 Alpha virt. eigenvalues --    0.11668   0.12347   0.12855   0.13604   0.13835

 Mulliken charges:
               1
     1  Mg   0.943119
     2  C    0.041656
     3  C   -0.129190
     4  C   -0.076197
     5  C   -0.077210
     6  N   -0.336072
     7  C   -0.017844
     8  C   -0.079491
     9  C   -0.155267
    10  C    0.135904
    11  C    0.022061
    12  C    0.093499
    13  C   -0.136539
    14  H    0.009053
    15  N   -0.446441
    16  C    0.165816
    17  C   -0.153263
    18  C   -0.107835
    19  C    0.165063
    20  C    0.056614
    21  C    0.032435
    22  O   -0.217404
    23  C    0.006298
    24  N   -0.392503
    25  C    0.060453
    26  C   -0.103400
    27  C   -0.058547
    28  C    0.088889
    29  C    0.029707
    30  C   -0.034551
    31  C   -0.028616
    32  N   -0.416742
    33  C    0.095600
    34  C   -0.195790
    35  C   -0.011693
    36  C    0.105257
    37  C    0.075059
    38  C    0.122574
    39  O   -0.234899
    40  C   -0.139073
    41  C    0.281261
    42  O   -0.275129
    43  O   -0.340462
    44  C    0.131710
    45  H   -0.010075
    46  H    0.029198
    47  H   -0.008258
    48  H    0.017193
    49  H    0.025384
    50  H    0.050738
    51  H    0.035126
    52  H    0.035636
    53  H    0.016168
    54  H    0.073597
    55  H    0.051831
    56  H    0.043261
    57  H    0.051717
    58  H    0.037598
    59  H    0.072662
    60  H    0.062077
    61  H    0.066217
    62  H    0.055574
    63  H    0.043045
    64  H    0.031494
    65  H    0.039712
    66  H    0.045855
    67  H    0.038563
    68  H    0.026802
    69  H    0.028190
    70  H    0.044936
    71  H    0.030314
    72  H    0.041845
    73  H    0.063110
    74  H    0.057603
    75  H    0.033415
    76  H    0.090022
    77  H    0.070062
    78  H    0.052428
    79  H    0.059088
 Sum of Mulliken charges =  -0.00000

 Dipole moment (field-independent basis, Debye):
    X=              3.2102    Y=             -3.4153    Z=              0.4260  Tot=              4.7065
 Quadrupole moment (field-independent basis, Debye-Ang):
   XX=           -265.4746   YY=           -225.5965   ZZ=           -257.1917
   XY=              9.4756   XZ=             -2.2711   YZ=             -5.8053

 Normal termination of Gaussian 16 at Sun Sep 19 14:34:12 2021.
