 Gaussian 16, Revision A.03,
 Gaussian 16:  ES64L-G16RevA.03 25-Dec-2016

 --------------------------------
 #p wB97XD/Def2SVP td=(nstates=5)
 --------------------------------

 --------------------------------
 TDDFT excited states in gaussian
 --------------------------------
 Symbolic Z-matrix:
 Charge =  0 Multiplicity = 1

                         Standard orientation:
 ---------------------------------------------------------------------
 Center     Atomic      Atomic             Coordinates (Angstroms)
 Number     Number       Type             X           Y           Z
 ---------------------------------------------------------------------
      1         12           0       20.109035    0.437768    0.389192
      2          6           0       17.751443   -1.556555   -1.215065
      3          6           0       21.212534    1.559039   -2.590148
      4          6           0       22.641974    1.978123    2.013078
      5          6           0       19.253407   -1.119565    3.344256
      6          7           0       19.517525   -0.001632   -1.700880
      7          6           0       18.394642   -0.684895   -2.093104
      8          6           0       18.210886   -0.577293   -3.559176
      9          6           0       19.314453    0.356952   -4.068777
     10          6           0       20.096264    0.713732   -2.731832
     11          6           0       20.208359   -0.110848   -5.206760
     12          6           0       16.698801   -0.090558   -3.937048
     13          6           0       15.820464   -1.054201   -4.769020
     14          1           0       14.918633   -0.532149   -5.860379
     15          7           0       21.627914    1.698704   -0.184641
     16          6           0       21.945869    2.044222   -1.489542
     17          6           0       23.097937    2.870386   -1.495187
     18          6           0       23.546675    3.009672   -0.153831
     19          6           0       22.582403    2.228349    0.627414
     20          6           0       23.543398    3.524708   -2.861155
     21          6           0       24.809172    3.751737    0.281266
     22          8           0       25.244740    3.808797    1.441196
     23          6           0       25.559639    4.540700   -0.699481
     24          7           0       21.046414    0.281380    2.353020
     25          6           0       21.982482    1.083535    2.816453
     26          6           0       22.356151    0.716690    4.270386
     27          6           0       20.954408    0.131603    4.703534
     28          6           0       20.336426   -0.253881    3.363253
     29          6           0       23.503731   -0.317808    4.568954
     30          6           0       19.991073    1.098084    5.545750
     31          6           0       19.576600    2.372942    4.933362
     32          7           0       18.783199   -1.117125    1.052500
     33          6           0       18.527840   -1.648899    2.331720
     34          6           0       17.516958   -2.652989    2.233263
     35          6           0       17.220740   -2.714124    0.886137
     36          6           0       17.949620   -1.674858    0.220355
     37          6           0       17.130993   -3.591532    3.269052
     38          6           0       16.317821   -3.238065   -0.026903
     39          8           0       15.422865   -4.081090    0.093100
     40          6           0       16.652056   -2.612858   -1.457417
     41          6           0       17.223543   -3.736712   -2.257049
     42          8           0       18.193586   -4.443442   -2.080163
     43          8           0       16.394368   -3.878644   -3.292612
     44          6           0       16.760160   -4.939657   -4.287268
     45          1           0       21.325619    2.013166   -3.576750
     46          1           0       23.375001    2.614935    2.511267
     47          1           0       18.948317   -1.555579    4.297590
     48          1           0       18.362138   -1.589648   -3.931762
     49          1           0       18.860969    1.292893   -4.394320
     50          1           0       21.010003   -0.493520   -4.576172
     51          1           0       20.486776    0.651428   -5.934659
     52          1           0       19.883761   -0.930075   -5.847747
     53          1           0       16.759528    0.872257   -4.443533
     54          1           0       16.050042    0.034331   -3.069725
     55          1           0       15.113818   -1.495700   -4.065694
     56          1           0       16.388109   -1.904843   -5.143882
     57          1           0       24.598901    3.304340   -3.019562
     58          1           0       23.439417    4.562718   -2.544972
     59          1           0       23.071009    3.178706   -3.780574
     60          1           0       25.879076    3.922576   -1.537373
     61          1           0       26.526111    4.736884   -0.235817
     62          1           0       25.092871    5.479907   -0.997439
     63          1           0       22.418808    1.639292    4.847602
     64          1           0       21.218282   -0.708147    5.345970
     65          1           0       23.547980   -1.180418    3.905175
     66          1           0       23.297045   -0.598700    5.602287
     67          1           0       24.480873    0.161998    4.507450
     68          1           0       20.419536    1.410174    6.498493
     69          1           0       18.992071    0.672611    5.640542
     70          1           0       18.755438    2.076468    4.282260
     71          1           0       20.284390    2.921142    4.310836
     72          1           0       19.165744    3.149659    5.577513
     73          1           0       17.891825   -4.370184    3.203035
     74          1           0       16.147567   -4.045036    3.148735
     75          1           0       17.040166   -3.135725    4.255607
     76          1           0       15.801794   -2.111914   -1.920372
     77          1           0       17.132653   -4.383327   -5.147703
     78          1           0       15.886131   -5.551455   -4.509453
     79          1           0       17.565942   -5.623192   -4.018217
     80         12           0      -20.003888   -0.517891   -0.395071
     81          6           0      -19.706097    2.917526    0.019988
     82          6           0      -16.553954   -0.833007    0.351399
     83          6           0      -20.452652   -3.745228    0.344561
     84          6           0      -23.502028   -0.081874   -0.434724
     85          7           0      -18.357841    0.917118    0.490012
     86          6           0      -18.472308    2.272228    0.292760
     87          6           0      -17.184814    2.979299    0.579087
     88          6           0      -16.127819    1.790664    0.429788
     89          6           0      -17.030899    0.507008    0.451138
     90          6           0      -15.182426    1.847188   -0.873943
     91          6           0      -17.265414    3.759669    1.990458
     92          6           0      -16.384441    4.898657    2.103630
     93          1           0      -15.444284    4.834346    3.325954
     94          7           0      -18.695942   -2.112683    0.075902
     95          6           0      -17.299047   -2.038055    0.336931
     96          6           0      -16.825414   -3.391652    0.571745
     97          6           0      -17.931388   -4.275937    0.556076
     98          6           0      -19.101243   -3.393046    0.229488
     99          6           0      -15.418109   -3.679433    0.941588
    100          6           0      -17.841434   -5.825817    0.880296
    101          8           0      -16.726749   -6.275243    1.141987
    102          6           0      -18.988863   -6.783317    0.577519
    103          7           0      -21.739296   -1.660101   -0.002209
    104          6           0      -21.616772   -3.002544    0.154934
    105          6           0      -23.064762   -3.747926    0.436294
    106          6           0      -24.062552   -2.585132   -0.036909
    107          6           0      -23.106974   -1.361476   -0.203370
    108          6           0      -23.326257   -5.070874   -0.378601
    109          6           0      -25.172213   -2.296051    0.975767
    110          6           0      -26.662287   -2.423895    0.578064
    111          7           0      -21.312287    1.073926   -0.529412
    112          6           0      -22.676143    1.089955   -0.574488
    113          6           0      -23.123615    2.438993   -0.785939
    114          6           0      -21.931441    3.201676   -0.491122
    115          6           0      -20.881758    2.286404   -0.303041
    116          6           0      -24.545916    2.895145   -0.938373
    117          6           0      -21.447296    4.547148   -0.262793
    118          8           0      -21.973944    5.597733   -0.470885
    119          6           0      -19.900273    4.465925    0.039531
    120          6           0      -18.997552    5.113703   -1.033461
    121          8           0      -19.078692    4.898215   -2.223649
    122          8           0      -18.145281    6.058804   -0.426028
    123          6           0      -17.361894    6.877271   -1.301461
    124          1           0      -15.475415   -0.858477    0.515701
    125          1           0      -20.674916   -4.710768    0.803304
    126          1           0      -24.589694    0.004226   -0.466747
    127          1           0      -16.867403    3.615539   -0.247728
    128          1           0      -15.493384    1.792071    1.316858
    129          1           0      -14.165522    1.897238   -0.484921
    130          1           0      -15.401019    2.696851   -1.520035
    131          1           0      -15.332901    0.903560   -1.399169
    132          1           0      -16.956872    3.002954    2.711571
    133          1           0      -18.340063    3.924007    2.073844
    134          1           0      -17.031117    5.772153    2.177650
    135          1           0      -15.731320    4.954205    1.232784
    136          1           0      -14.771501   -2.820537    0.762754
    137          1           0      -15.014123   -4.455489    0.291006
    138          1           0      -15.330324   -3.934472    1.997950
    139          1           0      -19.876648   -6.612221    1.187157
    140          1           0      -18.613668   -7.797080    0.721368
    141          1           0      -19.226136   -6.677416   -0.481120
    142          1           0      -23.083825   -3.848694    1.521113
    143          1           0      -24.466549   -2.707236   -1.042121
    144          1           0      -23.354869   -5.921593    0.301629
    145          1           0      -22.518646   -5.220608   -1.096154
    146          1           0      -24.286532   -4.942620   -0.879279
    147          1           0      -25.030357   -1.331451    1.462602
    148          1           0      -25.114419   -2.880655    1.893776
    149          1           0      -27.245297   -1.505265    0.506941
    150          1           0      -27.119414   -2.990292    1.389799
    151          1           0      -26.773852   -2.935447   -0.378710
    152          1           0      -24.514069    3.890705   -1.381725
    153          1           0      -25.031835    3.209983   -0.015405
    154          1           0      -25.205623    2.189117   -1.442074
    155          1           0      -19.804720    5.038795    0.962340
    156          1           0      -16.516026    7.098623   -0.649798
    157          1           0      -17.823520    7.849251   -1.474518
    158          1           0      -17.164401    6.363921   -2.241656
 ---------------------------------------------------------------------

 SCF Done:  E(RwB97XD) =  -4070.55982050     A.U. after   19 cycles

 Excitation energies and oscillator strengths:

 Excited State   1:      Singlet-A      1.6353 eV  758.19 nm  f=0.3778  <S**2>=0.000
     309 -> 315       -0.17809
     312 -> 314        0.68453
     309 <- 315       -0.11630
 This state for optimization and/or second-order correction.
 Total Energy, E(TD-HF/TD-DFT) =  -4070.49972578
 Copying the excited state density for this state as the 1-particle RhoCI density.

 Excited State   2:      Singlet-A      1.6464 eV  753.04 nm  f=0.3836  <S**2>=0.000
     310 -> 316       -0.18089
     311 -> 313        0.68210
     310 <- 316       -0.11527

 Excited State   3:      Singlet-A      2.1205 eV  584.68 nm  f=0.1350  <S**2>=0.000
     310 -> 313        0.64944
     311 -> 316        0.26629

 Excited State   4:      Singlet-A      2.1961 eV  564.55 nm  f=0.1042  <S**2>=0.000
     309 -> 314        0.63438
     312 -> 315        0.29403

 Excited State   5:      Singlet-A      3.3900 eV  365.73 nm  f=0.0213  <S**2>=0.000
     305 -> 314        0.56310
     307 -> 314       -0.12625
     308 -> 314       -0.34716
     312 -> 315       -0.15805

 The electronic state is 1-A.
 Alpha  occ. eigenvalues --  -46.96143 -46.95694 -19.30342 -19.30293 -19.25651
 Alpha  occ. eigenvalues --  -19.24752 -19.24046 -19.23716 -19.23331 -19.23239
 Alpha  occ. eigenvalues --  -14.46920 -14.46607 -14.46600 -14.46439 -14.44824
 Alpha  occ. eigenvalues --  -14.44332 -14.43615 -14.43595 -10.43937 -10.42471
 Alpha  occ. eigenvalues --  -10.40407 -10.39055 -10.38216 -10.37968 -10.35899
 Alpha  occ. eigenvalues --  -10.35699 -10.35490 -10.35487 -10.35290 -10.35254
 Alpha  occ. eigenvalues --  -10.35173 -10.35109 -10.34648 -10.34519 -10.34446
 Alpha  occ. eigenvalues --  -10.34319 -10.34120 -10.33836 -10.33591 -10.33347
 Alpha  occ. eigenvalues --  -10.33141 -10.33019 -10.32825 -10.32703 -10.32688
 Alpha  occ. eigenvalues --  -10.32628 -10.32593 -10.32554 -10.32542 -10.32337
 Alpha  occ. eigenvalues --  -10.32311 -10.32305 -10.32247 -10.32093 -10.32024
 Alpha  occ. eigenvalues --  -10.32016 -10.31987 -10.31971 -10.31864 -10.31699
 Alpha  occ. eigenvalues --  -10.31675 -10.31619 -10.31562 -10.31493 -10.31481
 Alpha  occ. eigenvalues --  -10.31212 -10.30939 -10.30734 -10.30577 -10.30549
 Alpha  occ. eigenvalues --  -10.30486 -10.30356 -10.30353 -10.30341 -10.30334
 Alpha  occ. eigenvalues --  -10.30201 -10.30133 -10.29946 -10.29870 -10.29660
 Alpha  occ. eigenvalues --  -10.29521 -10.29467 -10.29415 -10.28722 -10.28624
 Alpha  occ. eigenvalues --  -10.28562  -3.22027  -3.21559  -1.95558  -1.95200
 Alpha  occ. eigenvalues --   -1.95149  -1.94958  -1.94656  -1.94543  -1.19210
 Alpha  occ. eigenvalues --   -1.18223  -1.12982  -1.12545  -1.11352  -1.10917
 Alpha  occ. eigenvalues --   -1.10842  -1.09578  -1.07450  -1.06888  -1.06324
 Alpha  occ. eigenvalues --   -1.05420  -1.04961  -1.04676  -1.04377  -1.03626
 Alpha  occ. eigenvalues --   -0.94217  -0.94184  -0.91142  -0.91095  -0.90637
 Alpha  occ. eigenvalues --   -0.90335  -0.90260  -0.90062  -0.89905  -0.89546
 Alpha  occ. eigenvalues --   -0.88827  -0.88797  -0.88378  -0.87757  -0.86586
 Alpha  occ. eigenvalues --   -0.86170  -0.85989  -0.85234  -0.85009  -0.84610
 Alpha  occ. eigenvalues --   -0.84153  -0.83955  -0.83533  -0.83093  -0.82720
 Alpha  occ. eigenvalues --   -0.82217  -0.80733  -0.79746  -0.79618  -0.79328
 Alpha  occ. eigenvalues --   -0.79292  -0.78683  -0.78045  -0.77914  -0.77313
 Alpha  occ. eigenvalues --   -0.76885  -0.75499  -0.74645  -0.73682  -0.73324
 Alpha  occ. eigenvalues --   -0.71360  -0.71135  -0.71060  -0.70405  -0.69751
 Alpha  occ. eigenvalues --   -0.69399  -0.69188  -0.68470  -0.67842  -0.67749
 Alpha  occ. eigenvalues --   -0.67398  -0.66827  -0.66796  -0.66447  -0.66092
 Alpha  occ. eigenvalues --   -0.65976  -0.64790  -0.64069  -0.62446  -0.61933
 Alpha  occ. eigenvalues --   -0.61690  -0.61429  -0.61329  -0.60976  -0.60617
 Alpha  occ. eigenvalues --   -0.60519  -0.60269  -0.59972  -0.59911  -0.59448
 Alpha  occ. eigenvalues --   -0.58441  -0.58324  -0.57714  -0.57498  -0.57278
 Alpha  occ. eigenvalues --   -0.57013  -0.56936  -0.56790  -0.56683  -0.56663
 Alpha  occ. eigenvalues --   -0.55920  -0.55313  -0.55184  -0.55174  -0.54966
 Alpha  occ. eigenvalues --   -0.54670  -0.54664  -0.54493  -0.54404  -0.54158
 Alpha  occ. eigenvalues --   -0.54031  -0.53866  -0.53686  -0.53582  -0.53142
 Alpha  occ. eigenvalues --   -0.53038  -0.52948  -0.52700  -0.52348  -0.52149
 Alpha  occ. eigenvalues --   -0.52006  -0.51747  -0.51680  -0.51671  -0.51572
 Alpha  occ. eigenvalues --   -0.51405  -0.51150  -0.51141  -0.51039  -0.50979
 Alpha  occ. eigenvalues --   -0.50704  -0.50460  -0.50358  -0.50297  -0.50047
 Alpha  occ. eigenvalues --   -0.49917  -0.49791  -0.49330  -0.49215  -0.49119
 Alpha  occ. eigenvalues --   -0.48984  -0.48913  -0.48782  -0.48630  -0.48345
 Alpha  occ. eigenvalues --   -0.48195  -0.48070  -0.47934  -0.47874  -0.47776
 Alpha  occ. eigenvalues --   -0.47567  -0.47195  -0.47163  -0.46874  -0.46729
 Alpha  occ. eigenvalues --   -0.46581  -0.46422  -0.46411  -0.46100  -0.46051
 Alpha  occ. eigenvalues --   -0.46013  -0.45888  -0.45640  -0.45442  -0.45345
 Alpha  occ. eigenvalues --   -0.45313  -0.45166  -0.45065  -0.44947  -0.44712
 Alpha  occ. eigenvalues --   -0.44611  -0.44485  -0.44418  -0.44165  -0.44163
 Alpha  occ. eigenvalues --   -0.44080  -0.43765  -0.43634  -0.43377  -0.43030
 Alpha  occ. eigenvalues --   -0.42941  -0.42874  -0.42857  -0.42661  -0.42350
 Alpha  occ. eigenvalues --   -0.42104  -0.41701  -0.41422  -0.40869  -0.40603
 Alpha  occ. eigenvalues --   -0.40167  -0.40056  -0.39994  -0.39684  -0.39657
 Alpha  occ. eigenvalues --   -0.39102  -0.39030  -0.38668  -0.38449  -0.38228
 Alpha  occ. eigenvalues --   -0.38068  -0.37559  -0.36740  -0.36492  -0.36270
 Alpha  occ. eigenvalues --   -0.36234  -0.35764  -0.35526  -0.33705  -0.33571
 Alpha  occ. eigenvalues --   -0.33440  -0.32989  -0.32728  -0.32528  -0.32420
 Alpha  occ. eigenvalues --   -0.32169  -0.31930  -0.31285  -0.26248  -0.25950
 Alpha  occ. eigenvalues --   -0.23276  -0.22972
 Alpha virt. eigenvalues --   -0.07361  -0.07110   0.00264   0.00269   0.02314
 Alpha virt. eigenvalues --    0.02526   0.04267   0.04332   0.04505   0.05281
 Alpha virt. eigenvalues --    0.06737   0.07098   0.07727   0.08440   0.08602

 Mulliken charges:
               1
     1  Mg   0.939072
     2  C   -0.014750
     3  C   -0.073804
     4  C   -0.062157
     5  C   -0.108166
     6  N   -0.378635
     7  C    0.014478
     8  C   -0.066633
     9  C   -0.052592
    10  C   -0.019251
    11  C    0.003395
    12  C    0.003878
    13  C   -0.135752
    14  H    0.038422
    15  N   -0.463665
    16  C    0.198419
    17  C   -0.182584
    18  C   -0.073597
    19  C    0.131240
    20  C    0.082978
    21  C    0.052739
    22  O   -0.248047
    23  C   -0.010077
    24  N   -0.296343
    25  C    0.020150
    26  C   -0.042659
    27  C   -0.112649
    28  C    0.095874
    29  C    0.041917
    30  C    0.013766
    31  C   -0.088514
    32  N   -0.408904
    33  C    0.115001
    34  C   -0.133413
    35  C    0.022757
    36  C    0.108292
    37  C    0.062417
    38  C    0.079728
    39  O   -0.226677
    40  C   -0.091546
    41  C    0.269309
    42  O   -0.244534
    43  O   -0.346915
    44  C    0.120626
    45  H   -0.007290
    46  H    0.014675
    47  H   -0.002416
    48  H    0.047163
    49  H    0.033944
    50  H    0.048104
    51  H    0.042017
    52  H    0.040865
    53  H    0.041743
    54  H    0.042529
    55  H    0.057940
    56  H    0.038104
    57  H    0.037974
    58  H    0.060539
    59  H    0.052897
    60  H    0.039075
    61  H    0.045936
    62  H    0.075430
    63  H    0.019753
    64  H    0.023017
    65  H    0.050110
    66  H    0.040569
    67  H    0.051590
    68  H    0.036085
    69  H    0.028684
    70  H    0.022176
    71  H    0.034914
    72  H    0.039561
    73  H    0.074342
    74  H    0.055799
    75  H    0.035987
    76  H    0.056712
    77  H    0.046828
    78  H    0.068348
    79  H    0.073704
    80  Mg   0.961028
    81  C   -0.078217
    82  C   -0.075628
    83  C   -0.094026
    84  C   -0.091081
    85  N   -0.325452
    86  C   -0.039489
    87  C   -0.084424
    88  C   -0.134177
    89  C    0.034854
    90  C    0.014951
    91  C    0.053030
    92  C   -0.094515
    93  H    0.019886
    94  N   -0.466566
    95  C    0.174640
    96  C   -0.161850
    97  C   -0.102717
    98  C    0.203902
    99  C    0.095350
   100  C    0.075957
   101  O   -0.234399
   102  C   -0.028059
   103  N   -0.403828
   104  C    0.073657
   105  C   -0.123951
   106  C   -0.024147
   107  C    0.034523
   108  C    0.024336
   109  C   -0.029723
   110  C   -0.054240
   111  N   -0.416369
   112  C    0.139637
   113  C   -0.161001
   114  C   -0.085622
   115  C    0.221712
   116  C    0.066579
   117  C    0.108997
   118  O   -0.181784
   119  C   -0.079611
   120  C    0.276042
   121  O   -0.220972
   122  O   -0.387129
   123  C    0.130555
   124  H    0.011439
   125  H   -0.019692
   126  H   -0.007347
   127  H    0.027492
   128  H    0.037144
   129  H    0.043879
   130  H    0.052400
   131  H    0.042183
   132  H    0.036913
   133  H    0.036973
   134  H    0.063480
   135  H    0.049717
   136  H    0.010728
   137  H    0.056838
   138  H    0.066423
   139  H    0.071078
   140  H    0.057656
   141  H    0.067739
   142  H    0.055950
   143  H    0.043562
   144  H    0.039941
   145  H    0.046122
   146  H    0.045220
   147  H    0.031542
   148  H    0.018914
   149  H    0.040045
   150  H    0.034073
   151  H    0.032252
   152  H    0.049844
   153  H    0.043555
   154  H    0.043537
   155  H    0.072475
   156  H    0.046046
   157  H    0.054181
   158  H    0.067039
 Sum of Mulliken charges =  -0.00000

 Dipole moment (field-independent basis, Debye):
    X=              0.1156    Y=              0.1174    Z=             -1.9157  Tot=              1.9228
 Quadrupole moment (field-independent basis, Debye-Ang):
   XX=           -470.6630   YY=           -536.4321   ZZ=           -476.3317
   XY=            147.5946   XZ=            -63.4704   YZ=              2.0418

 Normal termination of Gaussian 16 at Sat Sep 18 19:34:50 2021.
