 Gaussian 16, Revision A.03,
 Gaussian 16:  ES64L-G16RevA.03 25-Dec-2016

 --------------------------------
 #p wB97XD/Def2SVP td=(nstates=5)
 --------------------------------

 --------------------------------
 TDDFT excited states in gaussian
 --------------------------------
 Symbolic Z-matrix:
 Charge =  0 Multiplicity = 1

                         Standard orientation:
 ---------------------------------------------------------------------
 Center     Atomic      Atomic             Coordinates (Angstroms)
 Number     Number       Type             X           Y           Z
 ---------------------------------------------------------------------
      1         12           0       26.114426    0.805430    0.282516
      2          6           0       26.778186   -2.636234   -0.102895
      3          6           0       23.784369    0.554826   -2.231335
      4          6           0       25.479398    4.094007    0.532561
      5          6           0       28.874868    1.124291    2.408890
      6          7           0       25.347813   -0.898302   -0.853657
      7          6           0       25.678631   -2.185172   -0.911223
      8          6           0       24.872186   -3.061312   -1.892342
      9          6           0       24.174307   -1.859197   -2.694899
     10          6           0       24.496795   -0.624505   -1.889176
     11          6           0       24.638988   -1.733563   -4.125501
     12          6           0       23.795593   -4.051261   -1.177838
     13          6           0       23.484829   -5.300189   -2.007931
     14          1           0       23.851287   -6.634244   -1.308020
     15          7           0       24.681145    2.155037   -0.599639
     16          6           0       23.830789    1.822181   -1.683009
     17          6           0       22.901607    2.919284   -1.833732
     18          6           0       23.352285    3.959417   -1.025891
     19          6           0       24.546129    3.440508   -0.287471
     20          6           0       21.805182    2.961001   -2.881373
     21          6           0       22.807480    5.347933   -0.780995
     22          8           0       23.326458    6.054514    0.033088
     23          6           0       21.581470    5.854429   -1.473021
     24          7           0       27.140746    2.424005    1.149674
     25          6           0       26.638789    3.692354    1.182093
     26          6           0       27.587782    4.514159    2.097956
     27          6           0       28.220693    3.517383    3.052307
     28          6           0       28.121202    2.246772    2.175710
     29          6           0       28.678864    5.160300    1.245382
     30          6           0       27.550813    3.409187    4.371990
     31          6           0       26.047863    3.288780    4.424225
     32          7           0       27.544280   -0.455696    1.062136
     33          6           0       28.615324   -0.213619    1.901626
     34          6           0       29.312373   -1.483370    2.158471
     35          6           0       28.602543   -2.440059    1.412169
     36          6           0       27.574684   -1.787362    0.788093
     37          6           0       30.517673   -1.666513    2.975572
     38          6           0       28.434229   -3.844858    1.153115
     39          8           0       29.067794   -4.849750    1.591014
     40          6           0       27.187795   -3.998140    0.159155
     41          6           0       27.721784   -4.638730   -1.095765
     42          8           0       28.712423   -4.260179   -1.647160
     43          8           0       26.934671   -5.696222   -1.626886
     44          6           0       27.280305   -6.105966   -3.022045
     45          1           0       23.078054    0.507280   -3.062089
     46          1           0       25.371994    5.180519    0.566271
     47          1           0       29.634035    1.117173    3.194130
     48          1           0       25.545838   -3.709735   -2.453943
     49          1           0       23.113196   -2.109849   -2.665873
     50          1           0       23.887842   -2.239008   -4.732251
     51          1           0       25.660744   -2.084565   -4.271658
     52          1           0       24.492538   -0.677911   -4.353856
     53          1           0       22.855179   -3.522359   -1.019899
     54          1           0       24.135331   -4.331770   -0.180641
     55          1           0       24.050694   -5.099795   -2.917967
     56          1           0       22.447106   -5.324974   -2.339975
     57          1           0       21.665963    1.917908   -3.162874
     58          1           0       22.289670    3.468982   -3.714749
     59          1           0       20.873774    3.374276   -2.493820
     60          1           0       20.829378    5.252652   -0.962515
     61          1           0       21.540327    5.639194   -2.540425
     62          1           0       21.457942    6.922750   -1.292165
     63          1           0       27.119689    5.342337    2.628911
     64          1           0       29.253278    3.727583    3.329046
     65          1           0       29.677061    4.723007    1.221229
     66          1           0       28.777457    6.194248    1.575873
     67          1           0       28.316910    5.206593    0.217645
     68          1           0       27.842479    4.216974    5.043609
     69          1           0       27.964989    2.495950    4.798851
     70          1           0       25.847004    2.277721    4.779673
     71          1           0       25.399486    3.425016    3.558183
     72          1           0       25.683229    3.959484    5.202073
     73          1           0       31.356382   -1.212979    2.447497
     74          1           0       30.583755   -2.747498    3.098361
     75          1           0       30.440854   -1.135930    3.925566
     76          1           0       26.459750   -4.580093    0.724595
     77          1           0       28.175419   -6.727878   -3.022538
     78          1           0       27.439611   -5.259490   -3.691581
     79          1           0       26.562494   -6.757373   -3.519738
     80         12           0      -26.787796   -0.171562   -0.089155
     81          6           0      -23.357383   -0.700417   -0.303600
     82          6           0      -26.682434   -1.505927    3.109603
     83          6           0      -29.908358    0.767377    0.463742
     84          6           0      -26.676662    1.585107   -3.069137
     85          7           0      -25.197053   -0.852381    1.305952
     86          6           0      -23.889031   -1.111512    0.951234
     87          6           0      -23.132563   -1.850490    2.015175
     88          6           0      -24.317675   -2.419599    2.913460
     89          6           0      -25.473167   -1.532331    2.469783
     90          6           0      -24.606324   -3.990086    3.045170
     91          6           0      -22.018482   -0.997502    2.781495
     92          6           0      -22.278019    0.526254    2.974495
     93          1           0      -21.887309    1.055390    4.333524
     94          7           0      -28.093327   -0.235241    1.602903
     95          6           0      -27.855503   -0.851654    2.837688
     96          6           0      -28.960305   -0.670818    3.738993
     97          6           0      -29.936812    0.026472    2.988459
     98          6           0      -29.353952    0.255011    1.632731
     99          6           0      -29.000422   -1.422968    5.070194
    100          6           0      -31.318613    0.382746    3.582452
    101          8           0      -31.600257    0.163134    4.764911
    102          6           0      -32.297644    0.947236    2.641186
    103          7           0      -28.018928    1.116561   -1.137240
    104          6           0      -29.366983    1.104632   -0.820874
    105          6           0      -30.240892    1.811025   -1.880591
    106          6           0      -29.086299    2.251441   -2.871112
    107          6           0      -27.856206    1.675595   -2.324959
    108          6           0      -31.335424    1.048596   -2.558192
    109          6           0      -28.924085    3.851884   -2.974542
    110          6           0      -28.804054    4.293369   -4.409870
    111          7           0      -25.369938    0.207198   -1.568507
    112          6           0      -25.475654    0.943620   -2.733842
    113          6           0      -24.170054    0.972399   -3.431977
    114          6           0      -23.292648    0.321994   -2.496063
    115          6           0      -24.076651   -0.098723   -1.415491
    116          6           0      -23.736405    1.730667   -4.620181
    117          6           0      -21.903380   -0.049515   -2.153016
    118          8           0      -20.876612    0.195599   -2.742976
    119          6           0      -21.899942   -0.752804   -0.757592
    120          6           0      -21.292560   -2.080309   -0.859230
    121          8           0      -20.283570   -2.533104   -0.318001
    122          8           0      -21.915600   -2.732869   -1.955224
    123          6           0      -21.480231   -4.125375   -2.195411
    124          1           0      -26.655673   -2.152360    3.989882
    125          1           0      -30.983954    0.954769    0.449818
    126          1           0      -26.766696    2.092883   -4.031074
    127          1           0      -22.563448   -2.668641    1.573908
    128          1           0      -23.999817   -2.071708    3.896655
    129          1           0      -23.885643   -4.647466    2.559108
    130          1           0      -25.547301   -4.303260    2.593048
    131          1           0      -24.481628   -4.290784    4.085790
    132          1           0      -21.038262   -1.158099    2.333836
    133          1           0      -21.911023   -1.458978    3.763093
    134          1           0      -23.322170    0.767641    2.773208
    135          1           0      -21.687663    1.094271    2.256040
    136          1           0      -29.534791   -0.893075    5.859348
    137          1           0      -27.987635   -1.505968    5.463626
    138          1           0      -29.508732   -2.364612    4.861425
    139          1           0      -32.607016    0.161907    1.952156
    140          1           0      -31.862800    1.805844    2.128558
    141          1           0      -33.140925    1.249773    3.261966
    142          1           0      -30.578734    2.752520   -1.446889
    143          1           0      -29.307998    1.663445   -3.761714
    144          1           0      -31.658671    1.673029   -3.391238
    145          1           0      -32.181496    1.028882   -1.871235
    146          1           0      -30.990738    0.052543   -2.838510
    147          1           0      -28.053812    4.110642   -2.371549
    148          1           0      -29.679252    4.460865   -2.475978
    149          1           0      -27.784688    4.645772   -4.565525
    150          1           0      -29.343327    5.220790   -4.605526
    151          1           0      -28.933935    3.437212   -5.071542
    152          1           0      -24.502558    2.341086   -5.100505
    153          1           0      -23.444846    0.984278   -5.358280
    154          1           0      -23.048405    2.438017   -4.157568
    155          1           0      -21.309194   -0.092869   -0.122727
    156          1           0      -22.432173   -4.632982   -2.355272
    157          1           0      -20.923161   -4.679189   -1.439670
    158          1           0      -21.046410   -4.102367   -3.195268
 ---------------------------------------------------------------------

 SCF Done:  E(RwB97XD) =  -4070.60614625     A.U. after   20 cycles

 Excitation energies and oscillator strengths:

 Excited State   1:      Singlet-A      1.6528 eV  750.14 nm  f=0.3699  <S**2>=0.000
     309 -> 316        0.17769
     311 -> 313        0.68501
     309 <- 316        0.11371
 This state for optimization and/or second-order correction.
 Total Energy, E(TD-HF/TD-DFT) =  -4070.54540612
 Copying the excited state density for this state as the 1-particle RhoCI density.

 Excited State   2:      Singlet-A      1.6615 eV  746.20 nm  f=0.3704  <S**2>=0.000
     310 -> 315        0.18766
     312 -> 314        0.68108
     310 <- 315        0.11470

 Excited State   3:      Singlet-A      2.1347 eV  580.81 nm  f=0.1154  <S**2>=0.000
     309 -> 313        0.64472
     311 -> 316       -0.27145

 Excited State   4:      Singlet-A      2.1479 eV  577.24 nm  f=0.0864  <S**2>=0.000
     310 -> 314        0.62839
     312 -> 315       -0.30685

 Excited State   5:      Singlet-A      3.3779 eV  367.04 nm  f=0.0301  <S**2>=0.000
     299 -> 313        0.15989
     304 -> 313        0.38353
     306 -> 313       -0.36760
     308 -> 313       -0.34611
     311 -> 316        0.19169

 The electronic state is 1-A.
 Alpha  occ. eigenvalues --  -46.95477 -46.94934 -19.29692 -19.29608 -19.25518
 Alpha  occ. eigenvalues --  -19.24915 -19.24125 -19.24085 -19.23904 -19.23253
 Alpha  occ. eigenvalues --  -14.48009 -14.46870 -14.46813 -14.45907 -14.44320
 Alpha  occ. eigenvalues --  -14.44289 -14.43800 -14.43602 -10.43629 -10.43216
 Alpha  occ. eigenvalues --  -10.39171 -10.39160 -10.39101 -10.38732 -10.35923
 Alpha  occ. eigenvalues --  -10.35715 -10.35429 -10.35344 -10.35238 -10.35076
 Alpha  occ. eigenvalues --  -10.35053 -10.35041 -10.34759 -10.34732 -10.34693
 Alpha  occ. eigenvalues --  -10.34494 -10.34165 -10.34111 -10.33639 -10.33423
 Alpha  occ. eigenvalues --  -10.33322 -10.32973 -10.32932 -10.32824 -10.32757
 Alpha  occ. eigenvalues --  -10.32643 -10.32597 -10.32496 -10.32407 -10.32403
 Alpha  occ. eigenvalues --  -10.32343 -10.32303 -10.32299 -10.32297 -10.32288
 Alpha  occ. eigenvalues --  -10.32224 -10.32165 -10.32138 -10.31746 -10.31680
 Alpha  occ. eigenvalues --  -10.31451 -10.31233 -10.31153 -10.31127 -10.31118
 Alpha  occ. eigenvalues --  -10.31118 -10.31039 -10.30897 -10.30851 -10.30768
 Alpha  occ. eigenvalues --  -10.30682 -10.30594 -10.30473 -10.30279 -10.30105
 Alpha  occ. eigenvalues --  -10.30094 -10.29930 -10.29921 -10.29642 -10.29592
 Alpha  occ. eigenvalues --  -10.29471 -10.29271 -10.28939 -10.28898 -10.28367
 Alpha  occ. eigenvalues --  -10.28251  -3.21446  -3.20866  -1.95018  -1.94585
 Alpha  occ. eigenvalues --   -1.94479  -1.94408  -1.93966  -1.93854  -1.17711
 Alpha  occ. eigenvalues --   -1.17000  -1.14357  -1.12637  -1.11618  -1.09547
 Alpha  occ. eigenvalues --   -1.09140  -1.08824  -1.07297  -1.07087  -1.05750
 Alpha  occ. eigenvalues --   -1.05612  -1.05245  -1.04898  -1.04418  -1.03739
 Alpha  occ. eigenvalues --   -0.94895  -0.94459  -0.91972  -0.91533  -0.91299
 Alpha  occ. eigenvalues --   -0.91193  -0.90748  -0.89911  -0.89788  -0.89587
 Alpha  occ. eigenvalues --   -0.88842  -0.88828  -0.88184  -0.88087  -0.86756
 Alpha  occ. eigenvalues --   -0.86591  -0.86389  -0.85401  -0.84686  -0.84563
 Alpha  occ. eigenvalues --   -0.84405  -0.84302  -0.83023  -0.82823  -0.82133
 Alpha  occ. eigenvalues --   -0.81847  -0.80906  -0.80262  -0.79483  -0.79235
 Alpha  occ. eigenvalues --   -0.78982  -0.78787  -0.78189  -0.78169  -0.77730
 Alpha  occ. eigenvalues --   -0.76918  -0.74657  -0.74408  -0.74151  -0.73288
 Alpha  occ. eigenvalues --   -0.71586  -0.71384  -0.71267  -0.70825  -0.70109
 Alpha  occ. eigenvalues --   -0.69798  -0.69074  -0.68851  -0.68370  -0.67760
 Alpha  occ. eigenvalues --   -0.66940  -0.66927  -0.66540  -0.66183  -0.66016
 Alpha  occ. eigenvalues --   -0.65314  -0.64557  -0.63734  -0.62397  -0.62278
 Alpha  occ. eigenvalues --   -0.61887  -0.61427  -0.61131  -0.60964  -0.60935
 Alpha  occ. eigenvalues --   -0.60519  -0.60301  -0.59574  -0.59537  -0.59224
 Alpha  occ. eigenvalues --   -0.58400  -0.58322  -0.57793  -0.57736  -0.57370
 Alpha  occ. eigenvalues --   -0.57073  -0.56684  -0.56574  -0.56424  -0.55984
 Alpha  occ. eigenvalues --   -0.55921  -0.55822  -0.55655  -0.55578  -0.54967
 Alpha  occ. eigenvalues --   -0.54888  -0.54676  -0.54586  -0.54337  -0.54136
 Alpha  occ. eigenvalues --   -0.53940  -0.53790  -0.53603  -0.53568  -0.53427
 Alpha  occ. eigenvalues --   -0.53071  -0.52774  -0.52726  -0.52603  -0.52396
 Alpha  occ. eigenvalues --   -0.52257  -0.52176  -0.51892  -0.51604  -0.51577
 Alpha  occ. eigenvalues --   -0.51522  -0.51521  -0.51280  -0.51062  -0.51009
 Alpha  occ. eigenvalues --   -0.50784  -0.50526  -0.50250  -0.50213  -0.50134
 Alpha  occ. eigenvalues --   -0.50124  -0.49707  -0.49662  -0.49566  -0.49229
 Alpha  occ. eigenvalues --   -0.49069  -0.48899  -0.48649  -0.48489  -0.48252
 Alpha  occ. eigenvalues --   -0.48240  -0.48169  -0.47779  -0.47685  -0.47440
 Alpha  occ. eigenvalues --   -0.47345  -0.47311  -0.47092  -0.47083  -0.46934
 Alpha  occ. eigenvalues --   -0.46894  -0.46884  -0.46658  -0.46600  -0.46215
 Alpha  occ. eigenvalues --   -0.46066  -0.45888  -0.45627  -0.45419  -0.45383
 Alpha  occ. eigenvalues --   -0.45192  -0.45112  -0.45071  -0.45018  -0.44774
 Alpha  occ. eigenvalues --   -0.44755  -0.44475  -0.44444  -0.44379  -0.44089
 Alpha  occ. eigenvalues --   -0.43983  -0.43726  -0.43699  -0.43606  -0.43472
 Alpha  occ. eigenvalues --   -0.43149  -0.42935  -0.42875  -0.42398  -0.42265
 Alpha  occ. eigenvalues --   -0.42140  -0.41903  -0.41632  -0.41402  -0.41039
 Alpha  occ. eigenvalues --   -0.40459  -0.40289  -0.39988  -0.39663  -0.39427
 Alpha  occ. eigenvalues --   -0.39265  -0.39069  -0.38931  -0.38575  -0.38360
 Alpha  occ. eigenvalues --   -0.38205  -0.37686  -0.37173  -0.36799  -0.36606
 Alpha  occ. eigenvalues --   -0.36485  -0.35597  -0.35387  -0.33890  -0.33525
 Alpha  occ. eigenvalues --   -0.33355  -0.33166  -0.32824  -0.32317  -0.32196
 Alpha  occ. eigenvalues --   -0.32128  -0.31858  -0.31432  -0.26059  -0.26044
 Alpha  occ. eigenvalues --   -0.23189  -0.23048
 Alpha virt. eigenvalues --   -0.07279  -0.07034  -0.00341   0.00203   0.02498
 Alpha virt. eigenvalues --    0.02696   0.04314   0.04535   0.04832   0.06181
 Alpha virt. eigenvalues --    0.06281   0.07165   0.07436   0.07733   0.08111

 Mulliken charges:
               1
     1  Mg   0.953792
     2  C   -0.042715
     3  C   -0.110280
     4  C   -0.074566
     5  C   -0.071342
     6  N   -0.320993
     7  C   -0.004264
     8  C   -0.076291
     9  C   -0.141318
    10  C    0.116585
    11  C    0.056662
    12  C    0.009033
    13  C   -0.101829
    14  H    0.060732
    15  N   -0.444497
    16  C    0.147176
    17  C   -0.177030
    18  C   -0.058312
    19  C    0.148370
    20  C    0.068161
    21  C    0.023137
    22  O   -0.209949
    23  C   -0.009815
    24  N   -0.406399
    25  C    0.080457
    26  C   -0.094272
    27  C   -0.043911
    28  C    0.108068
    29  C    0.034243
    30  C    0.007481
    31  C   -0.069507
    32  N   -0.442722
    33  C    0.083684
    34  C   -0.209118
    35  C    0.007011
    36  C    0.127416
    37  C    0.079120
    38  C    0.099147
    39  O   -0.251519
    40  C   -0.045832
    41  C    0.263248
    42  O   -0.210411
    43  O   -0.401458
    44  C    0.135704
    45  H    0.006508
    46  H    0.021267
    47  H   -0.000390
    48  H    0.038130
    49  H    0.035973
    50  H    0.032119
    51  H    0.057737
    52  H    0.022860
    53  H    0.027442
    54  H    0.042877
    55  H    0.027485
    56  H    0.044631
    57  H    0.032603
    58  H    0.076094
    59  H    0.059671
    60  H    0.059901
    61  H    0.052713
    62  H    0.061973
    63  H    0.025027
    64  H    0.018228
    65  H    0.044985
    66  H    0.032941
    67  H    0.031278
    68  H    0.032122
    69  H    0.016178
    70  H    0.030690
    71  H    0.056715
    72  H    0.029946
    73  H    0.053913
    74  H    0.066194
    75  H    0.035056
    76  H    0.077696
    77  H    0.056901
    78  H    0.049872
    79  H    0.051786
    80  Mg   0.956377
    81  C   -0.040684
    82  C   -0.109667
    83  C   -0.099680
    84  C   -0.098495
    85  N   -0.351081
    86  C    0.005491
    87  C   -0.079406
    88  C   -0.049960
    89  C    0.025455
    90  C    0.014873
    91  C   -0.014066
    92  C   -0.131219
    93  H    0.040646
    94  N   -0.438329
    95  C    0.180542
    96  C   -0.147194
    97  C   -0.106949
    98  C    0.207071
    99  C    0.079787
   100  C    0.051199
   101  O   -0.236289
   102  C   -0.010224
   103  N   -0.369016
   104  C    0.022464
   105  C   -0.081709
   106  C   -0.120627
   107  C    0.043195
   108  C    0.052820
   109  C   -0.004600
   110  C   -0.029169
   111  N   -0.431059
   112  C    0.160423
   113  C   -0.200502
   114  C   -0.051309
   115  C    0.127707
   116  C    0.085783
   117  C    0.113362
   118  O   -0.186453
   119  C   -0.040879
   120  C    0.283543
   121  O   -0.239933
   122  O   -0.406679
   123  C    0.140502
   124  H   -0.005352
   125  H   -0.020502
   126  H   -0.017682
   127  H    0.039136
   128  H    0.033397
   129  H    0.033381
   130  H    0.047835
   131  H    0.043651
   132  H    0.053272
   133  H    0.034499
   134  H    0.067878
   135  H    0.053305
   136  H    0.060310
   137  H    0.036827
   138  H    0.064888
   139  H    0.070829
   140  H    0.065150
   141  H    0.051352
   142  H    0.031723
   143  H    0.032437
   144  H    0.042853
   145  H    0.037362
   146  H    0.047646
   147  H    0.039924
   148  H    0.030721
   149  H    0.027352
   150  H    0.038730
   151  H    0.043351
   152  H    0.019170
   153  H    0.066767
   154  H    0.074727
   155  H    0.069281
   156  H    0.037411
   157  H    0.075528
   158  H    0.056776
 Sum of Mulliken charges =  -0.00000

 Dipole moment (field-independent basis, Debye):
    X=            -10.6375    Y=              2.0300    Z=             -5.8515  Tot=             12.3093
 Quadrupole moment (field-independent basis, Debye-Ang):
   XX=           -576.6397   YY=           -506.9965   ZZ=           -494.6448
   XY=            123.0224   XZ=             37.5221   YZ=              4.0389

 Normal termination of Gaussian 16 at Sat Sep 18 13:34:40 2021.
