 Gaussian 16, Revision A.03,
 Gaussian 16:  ES64L-G16RevA.03 25-Dec-2016

 --------------------------------
 #p wB97XD/Def2SVP td=(nstates=5)
 --------------------------------

 --------------------------------
 TDDFT excited states in gaussian
 --------------------------------
 Symbolic Z-matrix:
 Charge =  0 Multiplicity = 1

                         Standard orientation:
 ---------------------------------------------------------------------
 Center     Atomic      Atomic             Coordinates (Angstroms)
 Number     Number       Type             X           Y           Z
 ---------------------------------------------------------------------
      1         12           0       16.736695    0.500401   -0.254372
      2          6           0       16.122040   -2.076214    1.852752
      3          6           0       13.924887    2.150799    0.943404
      4          6           0       17.348266    3.074604   -2.366463
      5          6           0       19.234792   -1.344360   -1.783886
      6          7           0       15.342341    0.086894    1.268238
      7          6           0       15.222138   -1.041050    2.013006
      8          6           0       14.199673   -0.899912    3.110297
      9          6           0       13.330232    0.325519    2.635004
     10          6           0       14.286820    0.918408    1.549103
     11          6           0       11.830694    0.110527    2.166045
     12          6           0       14.880686   -0.574438    4.515304
     13          6           0       13.993086   -1.001418    5.721409
     14          1           0       12.460409   -1.072969    5.616879
     15          7           0       15.740336    2.358385   -0.747870
     16          6           0       14.575377    2.833310   -0.090212
     17          6           0       14.218507    4.114877   -0.619858
     18          6           0       15.208853    4.414375   -1.622090
     19          6           0       16.158910    3.245832   -1.579599
     20          6           0       13.097779    4.957272   -0.119789
     21          6           0       15.334046    5.639404   -2.520984
     22          8           0       16.168467    5.782316   -3.462313
     23          6           0       14.384328    6.808577   -2.322808
     24          7           0       18.037673    0.802392   -1.883898
     25          6           0       18.245971    2.038435   -2.497887
     26          6           0       19.550883    2.132360   -3.340297
     27          6           0       20.141826    0.640499   -3.052346
     28          6           0       19.130910   -0.012411   -2.182602
     29          6           0       19.182902    2.398299   -4.805667
     30          6           0       21.538084    0.623441   -2.503620
     31          6           0       22.494526   -0.193715   -3.324250
     32          7           0       17.492147   -1.303371   -0.176380
     33          6           0       18.531975   -1.963887   -0.818833
     34          6           0       18.674598   -3.272935   -0.298259
     35          6           0       17.721862   -3.424371    0.744818
     36          6           0       17.089114   -2.169099    0.865063
     37          6           0       19.641173   -4.328395   -0.677275
     38          6           0       17.116948   -4.362457    1.664877
     39          8           0       17.258923   -5.545553    1.904848
     40          6           0       16.084294   -3.438458    2.468855
     41          6           0       14.800369   -4.133801    2.746757
     42          8           0       14.171441   -4.816931    1.979556
     43          8           0       14.370789   -3.971985    4.007901
     44          6           0       13.076516   -4.647224    4.309441
     45          1           0       12.938997    2.497191    1.260800
     46          1           0       17.453120    3.848846   -3.129248
     47          1           0       20.074899   -1.948241   -2.132963
     48          1           0       13.496390   -1.732177    3.133687
     49          1           0       13.324967    1.068586    3.431806
     50          1           0       11.581216   -0.934064    2.352665
     51          1           0       11.583523    0.354975    1.134181
     52          1           0       11.221688    0.794344    2.757625
     53          1           0       15.071933    0.498095    4.476486
     54          1           0       15.825163   -1.117714    4.547927
     55          1           0       14.277421   -0.275178    6.483094
     56          1           0       14.407312   -1.942339    6.082640
     57          1           0       13.309638    5.549457    0.770510
     58          1           0       12.271074    4.266742    0.042252
     59          1           0       12.647215    5.576146   -0.895165
     60          1           0       13.476600    6.549628   -2.867642
     61          1           0       14.872751    7.650045   -2.813596
     62          1           0       14.129400    7.002767   -1.280832
     63          1           0       20.090033    3.000591   -2.961173
     64          1           0       20.181919    0.098606   -3.997854
     65          1           0       18.122197    2.335408   -5.049566
     66          1           0       19.821475    1.789264   -5.445073
     67          1           0       19.420855    3.447466   -4.983329
     68          1           0       21.605558    0.174098   -1.512756
     69          1           0       21.988678    1.607612   -2.374655
     70          1           0       23.424032    0.329881   -3.545949
     71          1           0       22.056579   -0.474806   -4.281635
     72          1           0       22.595954   -1.123705   -2.764076
     73          1           0       19.962775   -4.331880   -1.719171
     74          1           0       19.030034   -5.231394   -0.683181
     75          1           0       20.493783   -4.314284    0.001748
     76          1           0       16.646028   -3.407692    3.402908
     77          1           0       13.198834   -5.721068    4.457828
     78          1           0       12.296789   -4.369891    3.599868
     79          1           0       12.708261   -4.262509    5.260799
     80         12           0      -16.483156    0.384643    0.480162
     81          6           0      -16.362743   -2.564469   -1.322000
     82          6           0      -12.934772    0.422324    0.499337
     83          6           0      -16.501438    3.569306    1.744977
     84          6           0      -19.903249    0.583405    0.041448
     85          7           0      -14.884016   -1.011375   -0.219986
     86          6           0      -15.090796   -2.110133   -1.027289
     87          6           0      -13.768506   -2.720326   -1.626335
     88          6           0      -12.668332   -1.999522   -0.712979
     89          6           0      -13.504413   -0.780029   -0.029980
     90          6           0      -11.882694   -2.845529    0.360076
     91          6           0      -13.552795   -2.468491   -3.077182
     92          6           0      -13.454663   -3.620412   -4.058830
     93          1           0      -12.597666   -3.369273   -5.309926
     94          7           0      -14.916674    1.772923    1.135838
     95          6           0      -13.533037    1.519451    1.084057
     96          6           0      -12.824640    2.601501    1.690343
     97          6           0      -13.864877    3.635900    1.930438
     98          6           0      -15.192030    3.034286    1.592943
     99          6           0      -11.296938    2.701210    1.752881
    100          6           0      -13.496861    5.030542    2.466179
    101          8           0      -12.374089    5.456620    2.721060
    102          6           0      -14.542786    6.084854    2.378021
    103          7           0      -18.029560    2.012976    0.696940
    104          6           0      -17.770484    3.119642    1.406737
    105          6           0      -18.984141    4.033598    1.244045
    106          6           0      -20.177324    3.080415    0.767420
    107          6           0      -19.339125    1.753086    0.492617
    108          6           0      -19.365224    4.656114    2.633871
    109          6           0      -21.064484    3.491289   -0.478640
    110          6           0      -22.540527    3.815824   -0.303745
    111          7           0      -17.920160   -0.808367   -0.397022
    112          6           0      -19.304320   -0.625201   -0.474651
    113          6           0      -19.895491   -1.689392   -1.226806
    114          6           0      -18.786906   -2.507241   -1.607242
    115          6           0      -17.612779   -1.906940   -1.005807
    116          6           0      -21.336124   -1.899189   -1.572188
    117          6           0      -18.368981   -3.682940   -2.252433
    118          8           0      -19.053486   -4.500367   -2.834556
    119          6           0      -16.794041   -3.735895   -2.173270
    120          6           0      -16.389154   -5.099527   -1.797457
    121          8           0      -15.915858   -5.904045   -2.592044
    122          8           0      -16.648236   -5.321802   -0.453222
    123          6           0      -16.304802   -6.693837   -0.016657
    124          1           0      -11.852918    0.521659    0.605709
    125          1           0      -16.421172    4.543425    2.232736
    126          1           0      -20.977751    0.685629   -0.123480
    127          1           0      -13.748818   -3.793460   -1.439546
    128          1           0      -11.973760   -1.510494   -1.396946
    129          1           0      -12.072592   -3.895849    0.139243
    130          1           0      -12.146952   -2.625531    1.394506
    131          1           0      -10.830129   -2.583187    0.260118
    132          1           0      -12.583987   -1.973713   -3.160711
    133          1           0      -14.360388   -1.852508   -3.471273
    134          1           0      -14.453918   -3.804396   -4.452389
    135          1           0      -13.021921   -4.521708   -3.625259
    136          1           0      -10.659551    1.954617    1.279659
    137          1           0      -11.122316    2.793359    2.824565
    138          1           0      -11.104079    3.723804    1.430097
    139          1           0      -15.234730    6.228885    3.206713
    140          1           0      -15.093403    6.041845    1.438180
    141          1           0      -14.006914    7.034692    2.366434
    142          1           0      -18.818321    4.833690    0.522258
    143          1           0      -20.810407    2.819651    1.614818
    144          1           0      -19.467530    5.730075    2.478238
    145          1           0      -18.661609    4.462709    3.444559
    146          1           0      -20.303716    4.271947    3.034220
    147          1           0      -20.952909    2.651865   -1.164594
    148          1           0      -20.618666    4.415716   -0.848380
    149          1           0      -22.986410    3.634261   -1.281989
    150          1           0      -22.644199    4.879152   -0.086559
    151          1           0      -23.143558    3.249821    0.405466
    152          1           0      -21.372101   -2.823765   -2.148946
    153          1           0      -21.668404   -1.016180   -2.117226
    154          1           0      -22.002847   -2.037878   -0.720911
    155          1           0      -16.482483   -3.578037   -3.206349
    156          1           0      -17.164465   -7.352362   -0.140406
    157          1           0      -15.926213   -6.595562    1.000724
    158          1           0      -15.462880   -7.098899   -0.577358
 ---------------------------------------------------------------------

 SCF Done:  E(RwB97XD) =  -4070.59529698     A.U. after   20 cycles

 Excitation energies and oscillator strengths:

 Excited State   1:      Singlet-A      1.5874 eV  781.05 nm  f=0.3892  <S**2>=0.000
     310 -> 316        0.17573
     312 -> 314        0.68645
     310 <- 316        0.11661
 This state for optimization and/or second-order correction.
 Total Energy, E(TD-HF/TD-DFT) =  -4070.53696112
 Copying the excited state density for this state as the 1-particle RhoCI density.

 Excited State   2:      Singlet-A      1.6650 eV  744.67 nm  f=0.3814  <S**2>=0.000
     309 -> 315        0.17865
     311 -> 313        0.68421
     309 <- 315        0.11350

 Excited State   3:      Singlet-A      2.1182 eV  585.32 nm  f=0.1554  <S**2>=0.000
     309 -> 313        0.64908
     311 -> 315       -0.25653

 Excited State   4:      Singlet-A      2.1691 eV  571.58 nm  f=0.1094  <S**2>=0.000
     310 -> 314        0.63608
     312 -> 316       -0.29407

 Excited State   5:      Singlet-A      3.0640 eV  404.65 nm  f=0.0076  <S**2>=0.000
     307 -> 313        0.68060

 The electronic state is 1-A.
 Alpha  occ. eigenvalues --  -46.96862 -46.93519 -19.30386 -19.30368 -19.24798
 Alpha  occ. eigenvalues --  -19.24293 -19.24241 -19.23708 -19.23561 -19.23326
 Alpha  occ. eigenvalues --  -14.48193 -14.47470 -14.46593 -14.46307 -14.44743
 Alpha  occ. eigenvalues --  -14.44455 -14.44121 -14.43415 -10.43002 -10.42431
 Alpha  occ. eigenvalues --  -10.39349 -10.39229 -10.39185 -10.38182 -10.37311
 Alpha  occ. eigenvalues --  -10.36265 -10.35831 -10.35791 -10.35722 -10.35392
 Alpha  occ. eigenvalues --  -10.35260 -10.34961 -10.34825 -10.34726 -10.34590
 Alpha  occ. eigenvalues --  -10.34527 -10.34139 -10.34131 -10.34125 -10.33907
 Alpha  occ. eigenvalues --  -10.33564 -10.33345 -10.33065 -10.32974 -10.32901
 Alpha  occ. eigenvalues --  -10.32845 -10.32809 -10.32786 -10.32769 -10.32612
 Alpha  occ. eigenvalues --  -10.32378 -10.32362 -10.32343 -10.32317 -10.32249
 Alpha  occ. eigenvalues --  -10.32196 -10.32111 -10.31949 -10.31926 -10.31918
 Alpha  occ. eigenvalues --  -10.31822 -10.31770 -10.31609 -10.31600 -10.31578
 Alpha  occ. eigenvalues --  -10.31550 -10.31363 -10.31151 -10.30994 -10.30905
 Alpha  occ. eigenvalues --  -10.30890 -10.30693 -10.30198 -10.30103 -10.29980
 Alpha  occ. eigenvalues --  -10.29915 -10.29739 -10.29719 -10.29639 -10.29506
 Alpha  occ. eigenvalues --  -10.29453 -10.29379 -10.29334 -10.29291 -10.28933
 Alpha  occ. eigenvalues --  -10.28923  -3.22556  -3.19769  -1.96166  -1.95649
 Alpha  occ. eigenvalues --   -1.95517  -1.93358  -1.92884  -1.92790  -1.19491
 Alpha  occ. eigenvalues --   -1.17718  -1.12397  -1.12380  -1.11987  -1.09706
 Alpha  occ. eigenvalues --   -1.09633  -1.09465  -1.06837  -1.06530  -1.06098
 Alpha  occ. eigenvalues --   -1.05612  -1.04737  -1.04677  -1.03849  -1.03433
 Alpha  occ. eigenvalues --   -0.95369  -0.94577  -0.91591  -0.91510  -0.91290
 Alpha  occ. eigenvalues --   -0.90737  -0.90458  -0.90082  -0.89690  -0.89605
 Alpha  occ. eigenvalues --   -0.89180  -0.89120  -0.88370  -0.87880  -0.86482
 Alpha  occ. eigenvalues --   -0.86246  -0.85761  -0.85733  -0.84860  -0.84391
 Alpha  occ. eigenvalues --   -0.84221  -0.83600  -0.83015  -0.82867  -0.82764
 Alpha  occ. eigenvalues --   -0.82475  -0.80318  -0.79824  -0.79718  -0.79284
 Alpha  occ. eigenvalues --   -0.79178  -0.78978  -0.78475  -0.78183  -0.77498
 Alpha  occ. eigenvalues --   -0.77167  -0.75536  -0.74888  -0.74326  -0.73826
 Alpha  occ. eigenvalues --   -0.71377  -0.71086  -0.71008  -0.70599  -0.70156
 Alpha  occ. eigenvalues --   -0.70028  -0.69134  -0.68690  -0.67798  -0.67579
 Alpha  occ. eigenvalues --   -0.67493  -0.67324  -0.67314  -0.66819  -0.66785
 Alpha  occ. eigenvalues --   -0.66094  -0.65013  -0.64341  -0.62343  -0.62342
 Alpha  occ. eigenvalues --   -0.61899  -0.61767  -0.61493  -0.61108  -0.60948
 Alpha  occ. eigenvalues --   -0.60375  -0.59977  -0.59836  -0.59730  -0.58939
 Alpha  occ. eigenvalues --   -0.58593  -0.58088  -0.57967  -0.57441  -0.57370
 Alpha  occ. eigenvalues --   -0.57168  -0.56997  -0.56726  -0.55868  -0.55805
 Alpha  occ. eigenvalues --   -0.55531  -0.55294  -0.55210  -0.54968  -0.54841
 Alpha  occ. eigenvalues --   -0.54819  -0.54730  -0.54468  -0.54432  -0.54373
 Alpha  occ. eigenvalues --   -0.54117  -0.54080  -0.53916  -0.53887  -0.53299
 Alpha  occ. eigenvalues --   -0.53256  -0.53095  -0.52873  -0.52392  -0.52247
 Alpha  occ. eigenvalues --   -0.52192  -0.52027  -0.51936  -0.51750  -0.51610
 Alpha  occ. eigenvalues --   -0.51481  -0.51221  -0.50955  -0.50878  -0.50809
 Alpha  occ. eigenvalues --   -0.50591  -0.50320  -0.50257  -0.50146  -0.49912
 Alpha  occ. eigenvalues --   -0.49866  -0.49829  -0.49763  -0.49266  -0.49182
 Alpha  occ. eigenvalues --   -0.49138  -0.49000  -0.48646  -0.48644  -0.48552
 Alpha  occ. eigenvalues --   -0.48551  -0.48310  -0.48125  -0.47960  -0.47852
 Alpha  occ. eigenvalues --   -0.47832  -0.47688  -0.47242  -0.47157  -0.47129
 Alpha  occ. eigenvalues --   -0.46861  -0.46720  -0.46687  -0.46535  -0.46486
 Alpha  occ. eigenvalues --   -0.46105  -0.46006  -0.45837  -0.45695  -0.45602
 Alpha  occ. eigenvalues --   -0.45475  -0.45217  -0.45132  -0.45013  -0.44780
 Alpha  occ. eigenvalues --   -0.44376  -0.44373  -0.44264  -0.44187  -0.43995
 Alpha  occ. eigenvalues --   -0.43847  -0.43630  -0.43465  -0.43343  -0.43277
 Alpha  occ. eigenvalues --   -0.42962  -0.42846  -0.42511  -0.42371  -0.42336
 Alpha  occ. eigenvalues --   -0.42290  -0.41933  -0.41924  -0.41661  -0.41406
 Alpha  occ. eigenvalues --   -0.40295  -0.40218  -0.39975  -0.39895  -0.39644
 Alpha  occ. eigenvalues --   -0.39446  -0.39233  -0.39181  -0.38997  -0.38819
 Alpha  occ. eigenvalues --   -0.38656  -0.37870  -0.36631  -0.36554  -0.36362
 Alpha  occ. eigenvalues --   -0.36218  -0.35510  -0.35443  -0.34037  -0.33694
 Alpha  occ. eigenvalues --   -0.33253  -0.32827  -0.32651  -0.32508  -0.32332
 Alpha  occ. eigenvalues --   -0.32145  -0.31881  -0.31766  -0.26581  -0.26243
 Alpha  occ. eigenvalues --   -0.24012  -0.22847
 Alpha virt. eigenvalues --   -0.08129  -0.07334  -0.00456   0.00286   0.02023
 Alpha virt. eigenvalues --    0.02158   0.04290   0.04327   0.05435   0.06114
 Alpha virt. eigenvalues --    0.07022   0.07396   0.07423   0.07838   0.08016

 Mulliken charges:
               1
     1  Mg   0.985572
     2  C    0.012811
     3  C   -0.095412
     4  C   -0.062323
     5  C   -0.128225
     6  N   -0.378268
     7  C   -0.008613
     8  C   -0.043234
     9  C   -0.122060
    10  C    0.058004
    11  C    0.021184
    12  C    0.005316
    13  C   -0.092467
    14  H    0.043399
    15  N   -0.389479
    16  C    0.164049
    17  C   -0.155451
    18  C   -0.073728
    19  C    0.099901
    20  C    0.064895
    21  C    0.052933
    22  O   -0.274703
    23  C   -0.022216
    24  N   -0.392076
    25  C    0.057838
    26  C   -0.092126
    27  C   -0.027207
    28  C    0.108976
    29  C    0.008984
    30  C   -0.008513
    31  C   -0.062961
    32  N   -0.527649
    33  C    0.189932
    34  C   -0.191353
    35  C   -0.055047
    36  C    0.141657
    37  C    0.072760
    38  C    0.153129
    39  O   -0.183124
    40  C   -0.107203
    41  C    0.224398
    42  O   -0.229912
    43  O   -0.358791
    44  C    0.140909
    45  H   -0.003578
    46  H    0.017271
    47  H   -0.016875
    48  H    0.024501
    49  H    0.035447
    50  H    0.042286
    51  H    0.048428
    52  H    0.037228
    53  H    0.035736
    54  H    0.041481
    55  H    0.044255
    56  H    0.060640
    57  H    0.073840
    58  H    0.034822
    59  H    0.031902
    60  H    0.066676
    61  H    0.059222
    62  H    0.050461
    63  H    0.056057
    64  H    0.035281
    65  H    0.060723
    66  H    0.037248
    67  H    0.041392
    68  H    0.033217
    69  H    0.028300
    70  H    0.043826
    71  H    0.022330
    72  H    0.037625
    73  H    0.026960
    74  H    0.061482
    75  H    0.068394
    76  H    0.069225
    77  H    0.070806
    78  H    0.058532
    79  H    0.040354
    80  Mg   0.930269
    81  C    0.060849
    82  C   -0.053575
    83  C   -0.067722
    84  C   -0.064515
    85  N   -0.367762
    86  C   -0.017625
    87  C   -0.066795
    88  C   -0.122719
    89  C    0.087846
    90  C    0.030151
    91  C    0.037065
    92  C   -0.149300
    93  H    0.025353
    94  N   -0.454625
    95  C    0.135263
    96  C   -0.149633
    97  C   -0.136720
    98  C    0.177386
    99  C    0.084169
   100  C    0.092179
   101  O   -0.239938
   102  C   -0.062537
   103  N   -0.335428
   104  C    0.120482
   105  C   -0.138902
   106  C   -0.048756
   107  C    0.022528
   108  C    0.006367
   109  C   -0.011664
   110  C   -0.052427
   111  N   -0.425396
   112  C    0.118198
   113  C   -0.169415
   114  C   -0.018195
   115  C    0.076792
   116  C    0.078417
   117  C    0.069305
   118  O   -0.202273
   119  C   -0.060327
   120  C    0.246556
   121  O   -0.245711
   122  O   -0.384186
   123  C    0.134978
   124  H   -0.012831
   125  H   -0.019769
   126  H   -0.002552
   127  H    0.034918
   128  H    0.040582
   129  H    0.043341
   130  H    0.048343
   131  H    0.042948
   132  H    0.039666
   133  H    0.043325
   134  H    0.068888
   135  H    0.059010
   136  H    0.056878
   137  H    0.057731
   138  H    0.063698
   139  H    0.068463
   140  H    0.055865
   141  H    0.048560
   142  H    0.055220
   143  H    0.030165
   144  H    0.036208
   145  H    0.039763
   146  H    0.031097
   147  H    0.041434
   148  H    0.028835
   149  H    0.037030
   150  H    0.037561
   151  H    0.038404
   152  H    0.063059
   153  H    0.045562
   154  H    0.046976
   155  H    0.066630
   156  H    0.069755
   157  H    0.052451
   158  H    0.054776
 Sum of Mulliken charges =  -0.00000

 Dipole moment (field-independent basis, Debye):
    X=             -1.2962    Y=              6.6325    Z=              6.2518  Tot=              9.2062
 Quadrupole moment (field-independent basis, Debye-Ang):
   XX=           -476.3915   YY=           -561.1824   ZZ=           -517.3764
   XY=            -30.7390   XZ=            -35.3653   YZ=            -15.0890

 Normal termination of Gaussian 16 at Mon Sep 20 00:30:34 2021.
