 Gaussian 16, Revision A.03,
 Gaussian 16:  ES64L-G16RevA.03 25-Dec-2016

 --------------------------------
 #p wB97XD/Def2SVP td=(nstates=5)
 --------------------------------

 --------------------------------
 TDDFT excited states in gaussian
 --------------------------------
 Symbolic Z-matrix:
 Charge =  0 Multiplicity = 1

                         Standard orientation:
 ---------------------------------------------------------------------
 Center     Atomic      Atomic             Coordinates (Angstroms)
 Number     Number       Type             X           Y           Z
 ---------------------------------------------------------------------
      1         12           0      -28.618158    0.362522   -0.656882
      2          6           0      -28.134165   -1.947102    1.897489
      3          6           0      -27.453160    2.829554    1.416617
      4          6           0      -29.414147    2.620101   -3.082570
      5          6           0      -30.023255   -2.311121   -2.530558
      6          7           0      -27.915086    0.440369    1.418687
      7          6           0      -27.698746   -0.661243    2.203817
      8          6           0      -27.043273   -0.154012    3.490698
      9          6           0      -27.123546    1.360764    3.425266
     10          6           0      -27.492759    1.558528    1.959475
     11          6           0      -28.020596    2.106038    4.376766
     12          6           0      -25.578421   -0.729604    3.792604
     13          6           0      -24.812811   -0.058202    4.977809
     14          1           0      -24.958882   -0.668984    6.396144
     15          7           0      -28.310755    2.406561   -0.841902
     16          6           0      -27.852837    3.246853    0.119225
     17          6           0      -27.904333    4.574547   -0.435431
     18          6           0      -28.480222    4.503299   -1.737923
     19          6           0      -28.787991    3.159231   -1.940679
     20          6           0      -27.412401    5.746454    0.356664
     21          6           0      -28.844789    5.709072   -2.652179
     22          8           0      -29.631581    5.599466   -3.575496
     23          6           0      -28.383592    7.067233   -2.414334
     24          7           0      -29.522633    0.167293   -2.424689
     25          6           0      -29.719477    1.225704   -3.311114
     26          6           0      -30.364604    0.774999   -4.633192
     27          6           0      -30.268933   -0.784189   -4.514916
     28          6           0      -29.864823   -0.984212   -3.063520
     29          6           0      -31.638914    1.416069   -4.999346
     30          6           0      -29.344692   -1.609869   -5.570452
     31          6           0      -29.959114   -2.689117   -6.466867
     32          7           0      -29.077576   -1.766507   -0.377217
     33          6           0      -29.653086   -2.667330   -1.228768
     34          6           0      -29.735718   -3.958802   -0.634255
     35          6           0      -29.057731   -3.751106    0.627354
     36          6           0      -28.761517   -2.364911    0.753391
     37          6           0      -30.291466   -5.154934   -1.308403
     38          6           0      -28.543584   -4.437819    1.789977
     39          8           0      -28.484708   -5.604370    2.125839
     40          6           0      -27.908503   -3.224611    2.692528
     41          6           0      -28.409774   -3.265693    4.089968
     42          8           0      -29.561920   -3.052478    4.397912
     43          8           0      -27.440496   -3.551669    4.976849
     44          6           0      -27.768480   -3.370424    6.443046
     45          1           0      -27.033015    3.610944    2.053730
     46          1           0      -29.665031    3.364954   -3.840435
     47          1           0      -30.458564   -2.990642   -3.266478
     48          1           0      -27.738075   -0.561415    4.224988
     49          1           0      -26.142671    1.782460    3.643295
     50          1           0      -28.811344    2.387525    3.682043
     51          1           0      -27.513873    2.936000    4.869416
     52          1           0      -28.501169    1.445705    5.098967
     53          1           0      -25.067454   -0.525274    2.851481
     54          1           0      -25.634293   -1.801123    3.980851
     55          1           0      -25.119085    0.977502    5.119381
     56          1           0      -23.753501   -0.040250    4.721640
     57          1           0      -26.939942    5.556834    1.320977
     58          1           0      -28.302157    6.324922    0.603066
     59          1           0      -26.779384    6.418865   -0.222683
     60          1           0      -28.467631    7.506216   -1.420716
     61          1           0      -28.760686    7.818714   -3.107880
     62          1           0      -27.332883    6.997898   -2.695162
     63          1           0      -29.575107    1.123009   -5.299848
     64          1           0      -31.331967   -1.020363   -4.559900
     65          1           0      -31.643626    2.028765   -5.901240
     66          1           0      -31.937865    2.048304   -4.162870
     67          1           0      -32.449444    0.714567   -5.196516
     68          1           0      -28.559705   -2.102528   -4.997023
     69          1           0      -28.777279   -1.031540   -6.300603
     70          1           0      -29.755182   -3.714389   -6.157013
     71          1           0      -29.797785   -2.544105   -7.534688
     72          1           0      -31.039807   -2.643815   -6.331440
     73          1           0      -31.228690   -4.875457   -1.789076
     74          1           0      -30.406515   -6.002802   -0.633670
     75          1           0      -29.677130   -5.342609   -2.189599
     76          1           0      -26.840090   -3.432476    2.740896
     77          1           0      -27.009732   -3.989580    6.921102
     78          1           0      -28.782763   -3.727847    6.619609
     79          1           0      -27.598478   -2.318300    6.672066
     80         12           0       29.114783   -0.401778    0.202456
     81          6           0       26.308193    1.446296    0.727321
     82          6           0       27.060637   -3.245618   -0.246484
     83          6           0       31.679463   -1.895735   -1.328784
     84          6           0       31.072545    2.632262    0.136207
     85          7           0       26.976638   -0.795662    0.271459
     86          6           0       26.003511    0.028445    0.477836
     87          6           0       24.624282   -0.684606    0.711111
     88          6           0       24.961752   -2.223849    0.679235
     89          6           0       26.462370   -2.143752    0.233153
     90          6           0       24.583776   -3.028896    1.923369
     91          6           0       23.479345   -0.184267   -0.354577
     92          6           0       23.926486    0.414559   -1.678297
     93          1           0       22.963910    0.486586   -2.863678
     94          7           0       29.322406   -2.309439   -0.672776
     95          6           0       28.418467   -3.344083   -0.700994
     96          6           0       28.970829   -4.433227   -1.382207
     97          6           0       30.321898   -4.075235   -1.761552
     98          6           0       30.495930   -2.676949   -1.287464
     99          6           0       28.238306   -5.760583   -1.452536
    100          6           0       31.285482   -5.010798   -2.513912
    101          8           0       30.871008   -6.151963   -2.817808
    102          6           0       32.627864   -4.690893   -2.905212
    103          7           0       31.107042    0.334642   -0.664724
    104          6           0       31.966145   -0.571802   -1.035601
    105          6           0       33.396003   -0.000998   -1.255744
    106          6           0       33.224665    1.443430   -0.736852
    107          6           0       31.693360    1.547109   -0.352665
    108          6           0       34.468548   -0.721007   -0.520935
    109          6           0       33.698569    2.545258   -1.797443
    110          6           0       35.003429    3.360498   -1.420839
    111          7           0       28.860929    1.623114    0.494204
    112          6           0       29.706177    2.739713    0.481632
    113          6           0       28.903645    3.949309    0.843846
    114          6           0       27.589612    3.462998    0.896002
    115          6           0       27.594635    2.058420    0.646958
    116          6           0       29.341851    5.319740    1.028270
    117          6           0       26.285979    3.916149    1.067632
    118          8           0       25.787944    5.024788    1.312415
    119          6           0       25.404457    2.634986    1.062209
    120          6           0       24.623250    2.583062    2.396713
    121          8           0       23.418338    2.474165    2.547954
    122          8           0       25.456252    2.670994    3.491097
    123          6           0       24.834489    2.672380    4.820630
    124          1           0       26.341805   -4.050513   -0.412503
    125          1           0       32.598064   -2.374903   -1.673192
    126          1           0       31.704452    3.510904    0.280837
    127          1           0       24.361067   -0.499741    1.752916
    128          1           0       24.487541   -2.731195   -0.161474
    129          1           0       25.487041   -3.395214    2.410858
    130          1           0       23.979635   -3.903839    1.680614
    131          1           0       23.963518   -2.508581    2.653255
    132          1           0       22.897832    0.496754    0.267284
    133          1           0       22.821521   -0.967415   -0.732080
    134          1           0       24.783840   -0.202449   -1.946000
    135          1           0       24.318345    1.399948   -1.425551
    136          1           0       28.717626   -6.665656   -1.078540
    137          1           0       27.890492   -5.910773   -2.474846
    138          1           0       27.314946   -5.683998   -0.878715
    139          1           0       33.346453   -4.460949   -2.118738
    140          1           0       32.648028   -3.750186   -3.454534
    141          1           0       33.060931   -5.403278   -3.606703
    142          1           0       33.803067    0.013172   -2.266698
    143          1           0       33.713535    1.617294    0.221804
    144          1           0       35.093997   -1.368674   -1.135100
    145          1           0       34.040710   -1.468416    0.148181
    146          1           0       35.102977   -0.010898    0.009233
    147          1           0       32.923250    3.310482   -1.854522
    148          1           0       33.962907    2.144952   -2.775273
    149          1           0       35.666311    3.407540   -2.283914
    150          1           0       35.559931    2.778036   -0.686462
    151          1           0       34.648374    4.367420   -1.200640
    152          1           0       30.360590    5.227405    1.405487
    153          1           0       28.723587    5.824629    1.771387
    154          1           0       29.192397    5.817874    0.070799
    155          1           0       24.527368    2.719886    0.421057
    156          1           0       25.514837    3.164734    5.515738
    157          1           0       24.635251    1.712498    5.296831
    158          1           0       23.842764    3.125113    4.842488
 ---------------------------------------------------------------------

 SCF Done:  E(RwB97XD) =  -4070.57915832     A.U. after   19 cycles

 Excitation energies and oscillator strengths:

 Excited State   1:      Singlet-A      1.6387 eV  756.61 nm  f=0.3886  <S**2>=0.000
     310 -> 316       -0.18463
     312 -> 314        0.68350
     310 <- 316       -0.11771
 This state for optimization and/or second-order correction.
 Total Energy, E(TD-HF/TD-DFT) =  -4070.51893795
 Copying the excited state density for this state as the 1-particle RhoCI density.

 Excited State   2:      Singlet-A      1.6548 eV  749.26 nm  f=0.4402  <S**2>=0.000
     309 -> 315       -0.16631
     311 -> 313        0.68660
     309 <- 315       -0.11152

 Excited State   3:      Singlet-A      2.1629 eV  573.23 nm  f=0.0919  <S**2>=0.000
     310 -> 314        0.63067
     312 -> 316        0.30289

 Excited State   4:      Singlet-A      2.1981 eV  564.06 nm  f=0.1160  <S**2>=0.000
     309 -> 313        0.64044
     311 -> 315        0.27517

 Excited State   5:      Singlet-A      3.2247 eV  384.48 nm  f=0.0080  <S**2>=0.000
     303 -> 313       -0.15823
     308 -> 313        0.66818
     308 -> 317        0.10505

 The electronic state is 1-A.
 Alpha  occ. eigenvalues --  -46.96689 -46.94214 -19.30192 -19.29624 -19.25120
 Alpha  occ. eigenvalues --  -19.24143 -19.24094 -19.23708 -19.23188 -19.22411
 Alpha  occ. eigenvalues --  -14.47832 -14.47322 -14.46602 -14.46520 -14.45205
 Alpha  occ. eigenvalues --  -14.44398 -14.43678 -14.43020 -10.43656 -10.41786
 Alpha  occ. eigenvalues --  -10.39540 -10.38825 -10.38665 -10.38181 -10.37098
 Alpha  occ. eigenvalues --  -10.35937 -10.35848 -10.35653 -10.35352 -10.35303
 Alpha  occ. eigenvalues --  -10.35126 -10.35111 -10.34771 -10.34717 -10.34637
 Alpha  occ. eigenvalues --  -10.34503 -10.34437 -10.33887 -10.33852 -10.33735
 Alpha  occ. eigenvalues --  -10.33587 -10.33544 -10.33388 -10.32977 -10.32968
 Alpha  occ. eigenvalues --  -10.32945 -10.32574 -10.32445 -10.32418 -10.32365
 Alpha  occ. eigenvalues --  -10.32195 -10.32167 -10.32098 -10.31755 -10.31620
 Alpha  occ. eigenvalues --  -10.31617 -10.31566 -10.31477 -10.31306 -10.31223
 Alpha  occ. eigenvalues --  -10.31185 -10.31165 -10.31147 -10.31123 -10.31093
 Alpha  occ. eigenvalues --  -10.31081 -10.30994 -10.30956 -10.30943 -10.30903
 Alpha  occ. eigenvalues --  -10.30884 -10.30864 -10.30819 -10.30761 -10.30279
 Alpha  occ. eigenvalues --  -10.30117 -10.30015 -10.30005 -10.29877 -10.29756
 Alpha  occ. eigenvalues --  -10.29582 -10.29481 -10.29389 -10.29317 -10.29298
 Alpha  occ. eigenvalues --  -10.28790  -3.22562  -3.20291  -1.96123  -1.95712
 Alpha  occ. eigenvalues --   -1.95492  -1.93903  -1.93417  -1.93268  -1.18376
 Alpha  occ. eigenvalues --   -1.18003  -1.13186  -1.11727  -1.11389  -1.09781
 Alpha  occ. eigenvalues --   -1.09629  -1.08912  -1.07225  -1.07081  -1.06537
 Alpha  occ. eigenvalues --   -1.06121  -1.05746  -1.05328  -1.04405  -1.04255
 Alpha  occ. eigenvalues --   -0.95076  -0.94389  -0.91635  -0.91308  -0.91060
 Alpha  occ. eigenvalues --   -0.90934  -0.90568  -0.90353  -0.90268  -0.89710
 Alpha  occ. eigenvalues --   -0.89487  -0.88908  -0.88640  -0.87214  -0.86583
 Alpha  occ. eigenvalues --   -0.86526  -0.86087  -0.85593  -0.84850  -0.84552
 Alpha  occ. eigenvalues --   -0.84429  -0.84364  -0.83470  -0.83334  -0.82700
 Alpha  occ. eigenvalues --   -0.82289  -0.80754  -0.80468  -0.79707  -0.79364
 Alpha  occ. eigenvalues --   -0.79188  -0.78895  -0.78320  -0.77826  -0.77240
 Alpha  occ. eigenvalues --   -0.77088  -0.75430  -0.74762  -0.73966  -0.73788
 Alpha  occ. eigenvalues --   -0.71641  -0.71293  -0.70863  -0.70829  -0.70368
 Alpha  occ. eigenvalues --   -0.70221  -0.68925  -0.68845  -0.67967  -0.67656
 Alpha  occ. eigenvalues --   -0.67531  -0.67361  -0.66851  -0.66605  -0.66565
 Alpha  occ. eigenvalues --   -0.66197  -0.65379  -0.63414  -0.62913  -0.62522
 Alpha  occ. eigenvalues --   -0.62011  -0.61694  -0.60954  -0.60945  -0.60807
 Alpha  occ. eigenvalues --   -0.60548  -0.60034  -0.59957  -0.59253  -0.59222
 Alpha  occ. eigenvalues --   -0.58325  -0.58315  -0.57742  -0.57629  -0.57617
 Alpha  occ. eigenvalues --   -0.57281  -0.56765  -0.56708  -0.56508  -0.56479
 Alpha  occ. eigenvalues --   -0.55865  -0.55755  -0.55453  -0.55223  -0.55094
 Alpha  occ. eigenvalues --   -0.54897  -0.54810  -0.54617  -0.54532  -0.54221
 Alpha  occ. eigenvalues --   -0.54186  -0.54021  -0.53432  -0.53276  -0.53240
 Alpha  occ. eigenvalues --   -0.52906  -0.52861  -0.52760  -0.52625  -0.52444
 Alpha  occ. eigenvalues --   -0.52275  -0.52254  -0.51919  -0.51832  -0.51497
 Alpha  occ. eigenvalues --   -0.51373  -0.51247  -0.51182  -0.51039  -0.50944
 Alpha  occ. eigenvalues --   -0.50898  -0.50771  -0.50542  -0.50494  -0.50271
 Alpha  occ. eigenvalues --   -0.50168  -0.49638  -0.49583  -0.49365  -0.49359
 Alpha  occ. eigenvalues --   -0.49144  -0.49038  -0.48824  -0.48769  -0.48758
 Alpha  occ. eigenvalues --   -0.48499  -0.48493  -0.48165  -0.48125  -0.48011
 Alpha  occ. eigenvalues --   -0.47871  -0.47679  -0.47205  -0.47066  -0.47016
 Alpha  occ. eigenvalues --   -0.46988  -0.46849  -0.46729  -0.46557  -0.46406
 Alpha  occ. eigenvalues --   -0.46317  -0.46178  -0.45915  -0.45766  -0.45641
 Alpha  occ. eigenvalues --   -0.45593  -0.45272  -0.44783  -0.44724  -0.44640
 Alpha  occ. eigenvalues --   -0.44567  -0.44194  -0.44084  -0.43971  -0.43910
 Alpha  occ. eigenvalues --   -0.43719  -0.43456  -0.43436  -0.43209  -0.42891
 Alpha  occ. eigenvalues --   -0.42816  -0.42773  -0.42632  -0.42280  -0.42094
 Alpha  occ. eigenvalues --   -0.41993  -0.41778  -0.41433  -0.41178  -0.40996
 Alpha  occ. eigenvalues --   -0.40691  -0.40690  -0.40125  -0.39819  -0.39746
 Alpha  occ. eigenvalues --   -0.39202  -0.38885  -0.38834  -0.38530  -0.38422
 Alpha  occ. eigenvalues --   -0.38275  -0.38058  -0.36832  -0.36336  -0.36264
 Alpha  occ. eigenvalues --   -0.36210  -0.36033  -0.34962  -0.33812  -0.33249
 Alpha  occ. eigenvalues --   -0.33213  -0.33170  -0.33157  -0.32215  -0.32036
 Alpha  occ. eigenvalues --   -0.31894  -0.31209  -0.31151  -0.26886  -0.26115
 Alpha  occ. eigenvalues --   -0.23494  -0.22920
 Alpha virt. eigenvalues --   -0.07900  -0.07150   0.00013   0.00046   0.01978
 Alpha virt. eigenvalues --    0.02687   0.03793   0.04341   0.04839   0.06488
 Alpha virt. eigenvalues --    0.07175   0.07350   0.07591   0.07938   0.08009

 Mulliken charges:
               1
     1  Mg   0.970233
     2  C    0.027057
     3  C   -0.088576
     4  C   -0.071805
     5  C   -0.105543
     6  N   -0.331599
     7  C   -0.006811
     8  C   -0.044326
     9  C   -0.151523
    10  C    0.059767
    11  C    0.050727
    12  C    0.000320
    13  C   -0.115613
    14  H    0.029161
    15  N   -0.488266
    16  C    0.172472
    17  C   -0.166720
    18  C   -0.057460
    19  C    0.125894
    20  C    0.053338
    21  C    0.071664
    22  O   -0.233739
    23  C   -0.004609
    24  N   -0.422849
    25  C    0.060777
    26  C   -0.086752
    27  C   -0.053546
    28  C    0.048378
    29  C    0.042988
    30  C   -0.002786
    31  C   -0.069038
    32  N   -0.374134
    33  C    0.160121
    34  C   -0.166736
    35  C   -0.076216
    36  C    0.113010
    37  C    0.102509
    38  C    0.145408
    39  O   -0.193130
    40  C   -0.138404
    41  C    0.241167
    42  O   -0.254354
    43  O   -0.372487
    44  C    0.133532
    45  H   -0.016238
    46  H    0.028727
    47  H    0.001713
    48  H    0.035336
    49  H    0.021824
    50  H    0.039173
    51  H    0.043586
    52  H    0.038580
    53  H    0.034496
    54  H    0.060929
    55  H    0.043717
    56  H    0.059128
    57  H    0.039671
    58  H    0.049862
    59  H    0.047168
    60  H    0.056628
    61  H    0.050146
    62  H    0.049768
    63  H    0.038404
    64  H    0.031797
    65  H    0.040569
    66  H    0.046726
    67  H    0.027934
    68  H    0.036113
    69  H    0.035538
    70  H    0.039396
    71  H    0.045773
    72  H    0.018526
    73  H    0.034828
    74  H    0.072752
    75  H    0.044373
    76  H    0.067397
    77  H    0.062667
    78  H    0.082016
    79  H    0.059475
    80  Mg   0.957091
    81  C    0.004144
    82  C   -0.071975
    83  C   -0.044082
    84  C   -0.099267
    85  N   -0.349382
    86  C    0.010816
    87  C   -0.050857
    88  C   -0.100564
    89  C    0.039616
    90  C    0.023929
    91  C   -0.030590
    92  C   -0.101504
    93  H    0.062334
    94  N   -0.458981
    95  C    0.154426
    96  C   -0.150877
    97  C   -0.094623
    98  C    0.205672
    99  C    0.091956
   100  C    0.063101
   101  O   -0.267826
   102  C    0.000183
   103  N   -0.297862
   104  C    0.010953
   105  C   -0.080693
   106  C   -0.046004
   107  C    0.048387
   108  C    0.002555
   109  C   -0.042815
   110  C   -0.065001
   111  N   -0.464780
   112  C    0.133766
   113  C   -0.171375
   114  C   -0.013141
   115  C    0.155632
   116  C    0.081422
   117  C    0.117919
   118  O   -0.220298
   119  C   -0.108077
   120  C    0.242733
   121  O   -0.244097
   122  O   -0.368856
   123  C    0.139767
   124  H    0.011736
   125  H   -0.042734
   126  H    0.000706
   127  H    0.052488
   128  H    0.038590
   129  H    0.039486
   130  H    0.034758
   131  H    0.041345
   132  H    0.057295
   133  H    0.041158
   134  H    0.052194
   135  H    0.036534
   136  H    0.060587
   137  H    0.046836
   138  H    0.000102
   139  H    0.063426
   140  H    0.040844
   141  H    0.054667
   142  H    0.045310
   143  H    0.032496
   144  H    0.028517
   145  H    0.031380
   146  H    0.039492
   147  H    0.036132
   148  H    0.041015
   149  H    0.033307
   150  H    0.036190
   151  H    0.047804
   152  H    0.043730
   153  H    0.066859
   154  H    0.074593
   155  H    0.058562
   156  H    0.052712
   157  H    0.037447
   158  H    0.061558
 Sum of Mulliken charges =  -0.00000

 Dipole moment (field-independent basis, Debye):
    X=              7.5146    Y=              4.9870    Z=              1.4266  Tot=              9.1310
 Quadrupole moment (field-independent basis, Debye-Ang):
   XX=           -397.3754   YY=           -560.1409   ZZ=           -478.2349
   XY=            -66.7532   XZ=            111.5793   YZ=             10.3599

 Normal termination of Gaussian 16 at Mon Sep 20 02:14:57 2021.
