 Gaussian 16, Revision A.03,
 Gaussian 16:  ES64L-G16RevA.03 25-Dec-2016

 --------------------------------
 #p wB97XD/Def2SVP td=(nstates=5)
 --------------------------------

 --------------------------------
 TDDFT excited states in gaussian
 --------------------------------
 Symbolic Z-matrix:
 Charge =  0 Multiplicity = 1

                         Standard orientation:
 ---------------------------------------------------------------------
 Center     Atomic      Atomic             Coordinates (Angstroms)
 Number     Number       Type             X           Y           Z
 ---------------------------------------------------------------------
      1         12           0      -11.678473    0.117768   -0.676773
      2          6           0       -8.687717   -1.428544    0.176070
      3          6           0      -13.392063   -2.832170    0.282414
      4          6           0      -14.515009    1.857250   -0.372765
      5          6           0       -9.893872    3.147966   -0.925294
      6          7           0      -11.089594   -1.838033    0.498028
      7          6           0       -9.788275   -2.277853    0.459784
      8          6           0       -9.673973   -3.695243    0.926170
      9          6           0      -11.166715   -4.222933    0.712523
     10          6           0      -11.985947   -2.899590    0.509042
     11          6           0      -11.380445   -5.262687   -0.499875
     12          6           0       -9.045302   -3.756746    2.412249
     13          6           0       -8.360844   -4.988438    2.729527
     14          1           0       -8.892632   -5.681483    4.001926
     15          7           0      -13.693422   -0.410817   -0.307344
     16          6           0      -14.198843   -1.687912    0.064947
     17          6           0      -15.643832   -1.573107    0.167506
     18          6           0      -16.014448   -0.222047   -0.039045
     19          6           0      -14.717330    0.470992   -0.342193
     20          6           0      -16.493943   -2.707524    0.603992
     21          6           0      -17.494797    0.330028    0.099219
     22          8           0      -18.368176   -0.486921    0.386958
     23          6           0      -17.892191    1.713644   -0.403530
     24          7           0      -12.070202    2.192138   -0.557769
     25          6           0      -13.359788    2.615018   -0.557067
     26          6           0      -13.492813    4.260478   -0.478358
     27          6           0      -11.995460    4.671112   -0.879495
     28          6           0      -11.239826    3.305829   -0.823016
     29          6           0      -14.532156    4.913760   -1.466090
     30          6           0      -11.376491    5.694205    0.074751
     31          6           0      -10.871592    7.061106   -0.446297
     32          7           0       -9.693997    0.687280   -0.713446
     33          6           0       -9.136613    1.924489   -0.858460
     34          6           0       -7.708073    1.790220   -0.936492
     35          6           0       -7.505928    0.439688   -0.462063
     36          6           0       -8.773688   -0.147064   -0.308967
     37          6           0       -6.716040    2.898989   -1.138369
     38          6           0       -6.485302   -0.494701   -0.035374
     39          8           0       -5.298788   -0.441221   -0.152487
     40          6           0       -7.196056   -1.844429    0.370012
     41          6           0       -6.871161   -3.045692   -0.544998
     42          8           0       -6.937485   -3.027655   -1.755304
     43          8           0       -6.393743   -4.118683    0.235593
     44          6           0       -5.881925   -5.253282   -0.472002
     45          1           0      -13.855222   -3.790587    0.522855
     46          1           0      -15.348553    2.486001   -0.053409
     47          1           0       -9.382614    4.106873   -1.028101
     48          1           0       -9.148750   -4.327408    0.209454
     49          1           0      -11.489748   -4.700580    1.638215
     50          1           0      -11.768802   -6.167462   -0.032436
     51          1           0      -10.463144   -5.465132   -1.051890
     52          1           0      -12.140676   -4.823164   -1.146255
     53          1           0       -9.919342   -3.663652    3.056616
     54          1           0       -8.477188   -2.826373    2.434195
     55          1           0       -7.312313   -4.723921    2.860966
     56          1           0       -8.495879   -5.709609    1.923485
     57          1           0      -15.948879   -3.650995    0.580471
     58          1           0      -17.309587   -2.854780   -0.104362
     59          1           0      -16.849600   -2.566199    1.624868
     60          1           0      -17.435404    2.531880    0.154080
     61          1           0      -18.979836    1.777139   -0.356865
     62          1           0      -17.613708    1.766313   -1.456100
     63          1           0      -13.667472    4.443578    0.581509
     64          1           0      -11.864111    4.970424   -1.919560
     65          1           0      -15.355563    5.346927   -0.898973
     66          1           0      -14.928764    4.148084   -2.133908
     67          1           0      -13.993793    5.685006   -2.017997
     68          1           0      -10.590482    5.250012    0.685052
     69          1           0      -12.010319    5.973650    0.916187
     70          1           0       -9.794888    7.232991   -0.448208
     71          1           0      -11.276455    7.792541    0.253541
     72          1           0      -11.216111    7.248242   -1.464056
     73          1           0       -5.781058    2.434816   -1.453118
     74          1           0       -6.312559    3.330624   -0.222943
     75          1           0       -7.059447    3.715799   -1.772638
     76          1           0       -6.786294   -2.044477    1.360447
     77          1           0       -6.067766   -6.036685    0.263456
     78          1           0       -4.795925   -5.224982   -0.559166
     79          1           0       -6.351601   -5.346467   -1.450378
     80         12           0       10.692773    0.924951   -0.277948
     81          6           0       12.129165   -2.195573   -1.070209
     82          6           0        7.961131   -0.764276    0.858629
     83          6           0        9.642931    3.838053    1.168814
     84          6           0       13.870101    2.340171   -1.053676
     85          7           0       10.167883   -1.285315    0.006715
     86          6           0       10.795237   -2.383931   -0.507017
     87          6           0       10.090927   -3.694246   -0.114711
     88          6           0        8.632704   -3.068408    0.139131
     89          6           0        8.932634   -1.604777    0.347505
     90          6           0        7.601901   -3.277101   -1.002543
     91          6           0       10.661329   -4.385276    1.204568
     92          6           0       10.460523   -5.880468    1.397393
     93          1           0        9.514782   -6.450672    2.475803
     94          7           0        8.987231    1.560948    0.866703
     95          6           0        7.939094    0.714441    1.083626
     96          6           0        6.837965    1.399915    1.599531
     97          6           0        7.266360    2.777806    1.689388
     98          6           0        8.695816    2.806297    1.268919
     99          6           0        5.493517    0.768469    1.940325
    100          6           0        6.352704    3.884009    2.166481
    101          8           0        5.168372    3.613305    2.493270
    102          6           0        6.755039    5.400808    2.179491
    103          7           0       11.649997    2.754716   -0.022509
    104          6           0       10.974519    3.843978    0.591535
    105          6           0       11.720633    5.122770    0.330190
    106          6           0       13.148856    4.665102   -0.037204
    107          6           0       12.898228    3.193167   -0.477026
    108          6           0       11.244922    6.076036   -0.789351
    109          6           0       14.152288    4.700881    1.232414
    110          6           0       14.829795    6.016279    1.585908
    111          7           0       12.549780    0.218407   -1.106732
    112          6           0       13.726586    0.903513   -1.369368
    113          6           0       14.724262    0.054893   -1.810792
    114          6           0       14.128223   -1.217194   -1.769042
    115          6           0       12.810198   -1.058528   -1.308704
    116          6           0       16.100390    0.478251   -2.217650
    117          6           0       14.310859   -2.531706   -2.096341
    118          8           0       15.228664   -3.073736   -2.679981
    119          6           0       13.123083   -3.246306   -1.418139
    120          6           0       13.724574   -3.968858   -0.249846
    121          8           0       14.337529   -3.435373    0.621793
    122          8           0       13.527353   -5.344716   -0.380066
    123          6           0       14.223026   -6.085901    0.613744
    124          1           0        6.993654   -1.237663    1.039814
    125          1           0        9.282664    4.836102    1.428567
    126          1           0       14.762474    2.864235   -1.401574
    127          1           0        9.969959   -4.371569   -0.959451
    128          1           0        8.227176   -3.582271    1.010235
    129          1           0        7.028130   -4.133006   -0.646026
    130          1           0        8.077369   -3.550744   -1.944354
    131          1           0        6.936657   -2.419544   -1.104604
    132          1           0       10.194749   -3.954519    2.090537
    133          1           0       11.711735   -4.100766    1.269955
    134          1           0       11.467619   -6.256626    1.583051
    135          1           0       10.149239   -6.288522    0.435916
    136          1           0        4.573999    1.328663    1.767419
    137          1           0        5.699481    0.531097    2.983776
    138          1           0        5.319500   -0.099496    1.304321
    139          1           0        6.953431    5.731552    1.160364
    140          1           0        7.628373    5.400981    2.831415
    141          1           0        6.071325    6.075255    2.694836
    142          1           0       11.771282    5.646016    1.284495
    143          1           0       13.581479    5.262666   -0.839693
    144          1           0       11.919721    6.164457   -1.640598
    145          1           0       10.728646    6.943974   -0.378650
    146          1           0       10.400989    5.548886   -1.234028
    147          1           0       14.879552    3.954787    0.912844
    148          1           0       13.648392    4.352994    2.134368
    149          1           0       14.655582    6.235539    2.638973
    150          1           0       14.404657    6.814095    0.976303
    151          1           0       15.911269    5.951872    1.463275
    152          1           0       16.784694   -0.182341   -1.686041
    153          1           0       16.344813    1.488504   -1.887081
    154          1           0       16.279865    0.366738   -3.287113
    155          1           0       12.706788   -3.956800   -2.131448
    156          1           0       15.203772   -6.373150    0.235617
    157          1           0       13.785118   -7.064981    0.811707
    158          1           0       14.354068   -5.523211    1.536455
 ---------------------------------------------------------------------

 SCF Done:  E(RwB97XD) =  -4070.55769094     A.U. after   20 cycles

 Excitation energies and oscillator strengths:

 Excited State   1:      Singlet-A      1.6321 eV  759.66 nm  f=0.6149  <S**2>=0.000
     309 -> 316        0.16418
     311 -> 313       -0.26286
     312 -> 314        0.63311
     309 <- 316        0.10748
 This state for optimization and/or second-order correction.
 Total Energy, E(TD-HF/TD-DFT) =  -4070.49771236
 Copying the excited state density for this state as the 1-particle RhoCI density.

 Excited State   2:      Singlet-A      1.6492 eV  751.80 nm  f=0.1937  <S**2>=0.000
     310 -> 315       -0.17705
     311 -> 313        0.62776
     312 -> 314        0.26435
     310 <- 315       -0.10895

 Excited State   3:      Singlet-A      2.0920 eV  592.67 nm  f=0.1222  <S**2>=0.000
     310 -> 313        0.64843
     311 -> 315        0.26327

 Excited State   4:      Singlet-A      2.1961 eV  564.58 nm  f=0.1042  <S**2>=0.000
     309 -> 314        0.63434
     312 -> 316       -0.29422

 Excited State   5:      Singlet-A      3.4421 eV  360.20 nm  f=0.0000  <S**2>=0.000
     312 -> 313        0.70686

 The electronic state is 1-A.
 Alpha  occ. eigenvalues --  -46.96532 -46.96130 -19.30538 -19.30348 -19.25746
 Alpha  occ. eigenvalues --  -19.25654 -19.24745 -19.23220 -19.23054 -19.22781
 Alpha  occ. eigenvalues --  -14.47657 -14.47159 -14.46908 -14.46595 -14.44812
 Alpha  occ. eigenvalues --  -14.44282 -14.43701 -14.43599 -10.43938 -10.43461
 Alpha  occ. eigenvalues --  -10.40400 -10.38879 -10.37950 -10.37243 -10.36364
 Alpha  occ. eigenvalues --  -10.36240 -10.35885 -10.35683 -10.35572 -10.35275
 Alpha  occ. eigenvalues --  -10.35193 -10.35093 -10.34877 -10.34660 -10.34608
 Alpha  occ. eigenvalues --  -10.34510 -10.34433 -10.34167 -10.33854 -10.33578
 Alpha  occ. eigenvalues --  -10.33332 -10.33200 -10.32980 -10.32690 -10.32672
 Alpha  occ. eigenvalues --  -10.32543 -10.32537 -10.32355 -10.32327 -10.32276
 Alpha  occ. eigenvalues --  -10.32236 -10.32235 -10.32091 -10.32004 -10.31979
 Alpha  occ. eigenvalues --  -10.31974 -10.31965 -10.31914 -10.31786 -10.31767
 Alpha  occ. eigenvalues --  -10.31683 -10.31672 -10.31596 -10.31528 -10.31401
 Alpha  occ. eigenvalues --  -10.31388 -10.31194 -10.30934 -10.30724 -10.30577
 Alpha  occ. eigenvalues --  -10.30474 -10.30341 -10.30340 -10.30331 -10.30325
 Alpha  occ. eigenvalues --  -10.30251 -10.30195 -10.30104 -10.29863 -10.29637
 Alpha  occ. eigenvalues --  -10.29607 -10.29481 -10.29411 -10.29385 -10.28609
 Alpha  occ. eigenvalues --  -10.28074  -3.22304  -3.22014  -1.95884  -1.95545
 Alpha  occ. eigenvalues --   -1.95412  -1.95262  -1.95188  -1.94945  -1.19704
 Alpha  occ. eigenvalues --   -1.18229  -1.12962  -1.12539  -1.12162  -1.11637
 Alpha  occ. eigenvalues --   -1.10922  -1.09384  -1.07657  -1.06874  -1.06594
 Alpha  occ. eigenvalues --   -1.05858  -1.04948  -1.04365  -1.03795  -1.03613
 Alpha  occ. eigenvalues --   -0.96258  -0.94172  -0.91079  -0.90743  -0.90514
 Alpha  occ. eigenvalues --   -0.90461  -0.90249  -0.90052  -0.89408  -0.88913
 Alpha  occ. eigenvalues --   -0.88785  -0.88364  -0.87740  -0.87736  -0.86184
 Alpha  occ. eigenvalues --   -0.85980  -0.85433  -0.85220  -0.84722  -0.84603
 Alpha  occ. eigenvalues --   -0.84147  -0.83706  -0.83085  -0.82536  -0.82206
 Alpha  occ. eigenvalues --   -0.82180  -0.79905  -0.79730  -0.79281  -0.79205
 Alpha  occ. eigenvalues --   -0.78756  -0.78673  -0.78040  -0.77807  -0.77519
 Alpha  occ. eigenvalues --   -0.76875  -0.75492  -0.74629  -0.74125  -0.73313
 Alpha  occ. eigenvalues --   -0.71359  -0.71116  -0.70394  -0.70320  -0.70276
 Alpha  occ. eigenvalues --   -0.69391  -0.69047  -0.68462  -0.68141  -0.67828
 Alpha  occ. eigenvalues --   -0.67210  -0.66814  -0.66603  -0.66439  -0.66124
 Alpha  occ. eigenvalues --   -0.66082  -0.64792  -0.64706  -0.62387  -0.62041
 Alpha  occ. eigenvalues --   -0.61678  -0.61475  -0.61417  -0.61071  -0.60963
 Alpha  occ. eigenvalues --   -0.60921  -0.60513  -0.59969  -0.59962  -0.59436
 Alpha  occ. eigenvalues --   -0.58373  -0.58312  -0.57590  -0.57272  -0.57184
 Alpha  occ. eigenvalues --   -0.56954  -0.56924  -0.56688  -0.55909  -0.55695
 Alpha  occ. eigenvalues --   -0.55400  -0.55166  -0.55021  -0.54659  -0.54629
 Alpha  occ. eigenvalues --   -0.54489  -0.54418  -0.54394  -0.54082  -0.54022
 Alpha  occ. eigenvalues --   -0.53675  -0.53675  -0.53574  -0.53246  -0.53034
 Alpha  occ. eigenvalues --   -0.52933  -0.52689  -0.52675  -0.52409  -0.52140
 Alpha  occ. eigenvalues --   -0.51991  -0.51967  -0.51665  -0.51665  -0.51563
 Alpha  occ. eigenvalues --   -0.51562  -0.51221  -0.51131  -0.51026  -0.50806
 Alpha  occ. eigenvalues --   -0.50691  -0.50637  -0.50351  -0.50292  -0.49910
 Alpha  occ. eigenvalues --   -0.49777  -0.49752  -0.49203  -0.49160  -0.49022
 Alpha  occ. eigenvalues --   -0.48974  -0.48905  -0.48855  -0.48425  -0.48332
 Alpha  occ. eigenvalues --   -0.48217  -0.48156  -0.48056  -0.47865  -0.47848
 Alpha  occ. eigenvalues --   -0.47597  -0.47554  -0.47155  -0.47113  -0.46893
 Alpha  occ. eigenvalues --   -0.46859  -0.46717  -0.46560  -0.46405  -0.46404
 Alpha  occ. eigenvalues --   -0.46004  -0.45876  -0.45707  -0.45603  -0.45423
 Alpha  occ. eigenvalues --   -0.45332  -0.45182  -0.45054  -0.45046  -0.44788
 Alpha  occ. eigenvalues --   -0.44705  -0.44603  -0.44449  -0.44411  -0.44334
 Alpha  occ. eigenvalues --   -0.44154  -0.44028  -0.43361  -0.43334  -0.43162
 Alpha  occ. eigenvalues --   -0.43043  -0.42931  -0.42866  -0.42793  -0.42342
 Alpha  occ. eigenvalues --   -0.42300  -0.42103  -0.41685  -0.41242  -0.40589
 Alpha  occ. eigenvalues --   -0.40330  -0.40157  -0.39713  -0.39677  -0.39456
 Alpha  occ. eigenvalues --   -0.39036  -0.39017  -0.38791  -0.38673  -0.38531
 Alpha  occ. eigenvalues --   -0.38221  -0.37550  -0.37390  -0.36943  -0.36739
 Alpha  occ. eigenvalues --   -0.36223  -0.35554  -0.35513  -0.33563  -0.33539
 Alpha  occ. eigenvalues --   -0.33430  -0.32408  -0.32350  -0.32041  -0.31912
 Alpha  occ. eigenvalues --   -0.31844  -0.31500  -0.31266  -0.26234  -0.26119
 Alpha  occ. eigenvalues --   -0.23719  -0.22958
 Alpha virt. eigenvalues --   -0.07833  -0.07098  -0.00465   0.00276   0.02129
 Alpha virt. eigenvalues --    0.02538   0.04282   0.04513   0.04689   0.04818
 Alpha virt. eigenvalues --    0.06739   0.06864   0.07108   0.07545   0.08095

 Mulliken charges:
               1
     1  Mg   0.960864
     2  C   -0.078302
     3  C   -0.075646
     4  C   -0.094026
     5  C   -0.091001
     6  N   -0.325443
     7  C   -0.039379
     8  C   -0.084419
     9  C   -0.134111
    10  C    0.034754
    11  C    0.014961
    12  C    0.052978
    13  C   -0.094470
    14  H    0.019864
    15  N   -0.466638
    16  C    0.174585
    17  C   -0.161725
    18  C   -0.102818
    19  C    0.203822
    20  C    0.095143
    21  C    0.075947
    22  O   -0.234498
    23  C   -0.028082
    24  N   -0.403795
    25  C    0.073583
    26  C   -0.123925
    27  C   -0.024145
    28  C    0.034580
    29  C    0.024338
    30  C   -0.029786
    31  C   -0.054258
    32  N   -0.416165
    33  C    0.139654
    34  C   -0.160952
    35  C   -0.085606
    36  C    0.221673
    37  C    0.066537
    38  C    0.109274
    39  O   -0.181509
    40  C   -0.079761
    41  C    0.276361
    42  O   -0.221078
    43  O   -0.387224
    44  C    0.130706
    45  H    0.011328
    46  H   -0.019742
    47  H   -0.007159
    48  H    0.027152
    49  H    0.037107
    50  H    0.043787
    51  H    0.052295
    52  H    0.042160
    53  H    0.036971
    54  H    0.037128
    55  H    0.063486
    56  H    0.049580
    57  H    0.010656
    58  H    0.056781
    59  H    0.066388
    60  H    0.071091
    61  H    0.057568
    62  H    0.067716
    63  H    0.055977
    64  H    0.043510
    65  H    0.039908
    66  H    0.046055
    67  H    0.045201
    68  H    0.031728
    69  H    0.018931
    70  H    0.040224
    71  H    0.034075
    72  H    0.032136
    73  H    0.050018
    74  H    0.044220
    75  H    0.043450
    76  H    0.072615
    77  H    0.046004
    78  H    0.053823
    79  H    0.066968
    80  Mg   0.948591
    81  C    0.000515
    82  C   -0.064680
    83  C   -0.087412
    84  C   -0.085910
    85  N   -0.297983
    86  C   -0.038143
    87  C   -0.036531
    88  C   -0.151964
    89  C    0.082421
    90  C    0.029866
    91  C   -0.001041
    92  C   -0.097682
    93  H    0.043631
    94  N   -0.426029
    95  C    0.122700
    96  C   -0.157499
    97  C   -0.085129
    98  C    0.169052
    99  C    0.086074
   100  C    0.032115
   101  O   -0.270840
   102  C   -0.011426
   103  N   -0.428234
   104  C    0.087285
   105  C   -0.092067
   106  C   -0.113271
   107  C    0.082246
   108  C    0.055220
   109  C   -0.033200
   110  C   -0.022667
   111  N   -0.388372
   112  C    0.120722
   113  C   -0.174976
   114  C    0.038765
   115  C    0.121158
   116  C    0.098413
   117  C    0.025802
   118  O   -0.206732
   119  C   -0.074379
   120  C    0.254057
   121  O   -0.209836
   122  O   -0.358082
   123  C    0.118725
   124  H   -0.003836
   125  H   -0.016031
   126  H    0.009712
   127  H    0.028139
   128  H    0.041490
   129  H    0.039249
   130  H    0.042867
   131  H    0.044058
   132  H    0.044031
   133  H    0.047592
   134  H    0.049520
   135  H    0.043068
   136  H    0.070914
   137  H    0.065292
   138  H    0.030004
   139  H    0.067687
   140  H    0.050041
   141  H    0.051369
   142  H    0.031611
   143  H    0.027743
   144  H    0.049031
   145  H    0.044271
   146  H    0.016014
   147  H    0.024864
   148  H    0.036961
   149  H    0.035891
   150  H    0.032775
   151  H    0.042920
   152  H    0.055511
   153  H    0.023567
   154  H    0.063496
   155  H    0.047802
   156  H    0.048763
   157  H    0.048330
   158  H    0.062010
 Sum of Mulliken charges =  -0.00000

 Dipole moment (field-independent basis, Debye):
    X=             -3.0814    Y=              3.1993    Z=             -0.6454  Tot=              4.4885
 Quadrupole moment (field-independent basis, Debye-Ang):
   XX=           -534.6355   YY=           -435.6075   ZZ=           -524.1927
   XY=             16.3817   XZ=             25.4276   YZ=            -17.4571

 Normal termination of Gaussian 16 at Sun Sep 19 03:08:45 2021.
