 Gaussian 16, Revision A.03,
 Gaussian 16:  ES64L-G16RevA.03 25-Dec-2016

 --------------------------------
 #p wB97XD/Def2SVP td=(nstates=5)
 --------------------------------

 --------------------------------
 TDDFT excited states in gaussian
 --------------------------------
 Symbolic Z-matrix:
 Charge =  0 Multiplicity = 1

                         Standard orientation:
 ---------------------------------------------------------------------
 Center     Atomic      Atomic             Coordinates (Angstroms)
 Number     Number       Type             X           Y           Z
 ---------------------------------------------------------------------
      1         12           0      -12.406303   -0.492662    0.210252
      2          6           0       -8.948282   -0.019940   -0.607200
      3          6           0      -13.101065   -0.596874   -2.997243
      4          6           0      -15.561751   -0.105373    1.147048
      5          6           0      -11.389507    0.038337    3.704948
      6          7           0      -11.144419   -0.371872   -1.586785
      7          6           0       -9.760315   -0.145428   -1.722892
      8          6           0       -9.268986   -0.090903   -3.218806
      9          6           0      -10.722982   -0.363454   -3.949038
     10          6           0      -11.739364   -0.470551   -2.816562
     11          6           0      -11.121599    0.801963   -4.952713
     12          6           0       -8.118030   -1.087034   -3.596933
     13          6           0       -7.921620   -1.337551   -5.087342
     14          1           0       -6.589687   -0.815791   -5.656818
     15          7           0      -14.108506   -0.468059   -0.795400
     16          6           0      -14.275112   -0.545278   -2.158189
     17          6           0      -15.670399   -0.552582   -2.544149
     18          6           0      -16.378850   -0.418141   -1.284925
     19          6           0      -15.312293   -0.397047   -0.221435
     20          6           0      -16.204454   -0.731979   -3.886899
     21          6           0      -17.870766   -0.367583   -1.004729
     22          8           0      -18.348723   -0.372745    0.094929
     23          6           0      -18.736066   -0.218405   -2.227819
     24          7           0      -13.345935   -0.025357    2.151604
     25          6           0      -14.698388    0.041458    2.238254
     26          6           0      -15.152195    0.231362    3.710364
     27          6           0      -13.797106    0.134735    4.493901
     28          6           0      -12.763837   -0.011222    3.393428
     29          6           0      -15.962881    1.521788    4.073939
     30          6           0      -13.674927   -1.045119    5.521636
     31          6           0      -14.430238   -0.785672    6.843906
     32          7           0      -10.621855   -0.060049    1.363232
     33          6           0      -10.361668    0.042917    2.710342
     34          6           0       -8.970075    0.151767    2.901129
     35          6           0       -8.373999    0.191326    1.696691
     36          6           0       -9.417928    0.080115    0.728887
     37          6           0       -8.361705    0.140289    4.297442
     38          6           0       -7.145162    0.350085    0.912450
     39          8           0       -6.007187    0.521532    1.266332
     40          6           0       -7.511807    0.236445   -0.643688
     41          6           0       -7.304733    1.588914   -1.247271
     42          8           0       -8.032368    2.551912   -1.337924
     43          8           0       -6.031648    1.541959   -1.779883
     44          6           0       -5.547307    2.758158   -2.475237
     45          1           0      -13.436313   -0.590280   -4.036370
     46          1           0      -16.597110    0.163998    1.369243
     47          1           0      -11.247247    0.072249    4.787584
     48          1           0       -9.008105    0.943584   -3.442755
     49          1           0      -10.632360   -1.272577   -4.543958
     50          1           0      -11.507575    0.367539   -5.874754
     51          1           0      -10.380389    1.559304   -5.206546
     52          1           0      -11.987874    1.344273   -4.575056
     53          1           0       -8.428675   -1.956127   -3.015576
     54          1           0       -7.120825   -0.904183   -3.196022
     55          1           0       -8.730501   -0.857746   -5.637621
     56          1           0       -7.834718   -2.411414   -5.250441
     57          1           0      -16.704998   -1.690442   -3.749587
     58          1           0      -15.407614   -0.730756   -4.630795
     59          1           0      -16.952452   -0.022169   -4.239543
     60          1           0      -19.056159   -1.204322   -2.564613
     61          1           0      -18.397108    0.560626   -2.911310
     62          1           0      -19.545909    0.418641   -1.873369
     63          1           0      -15.624374   -0.713276    3.981834
     64          1           0      -13.568645    1.109183    4.926162
     65          1           0      -15.525590    2.168981    4.834766
     66          1           0      -16.865651    1.160196    4.565734
     67          1           0      -16.200422    2.176437    3.235429
     68          1           0      -12.626491   -1.189539    5.780038
     69          1           0      -14.029022   -1.923821    4.980772
     70          1           0      -14.588796    0.283213    6.988202
     71          1           0      -13.824026   -1.242811    7.625885
     72          1           0      -15.436058   -1.205706    6.873774
     73          1           0       -7.339031   -0.236557    4.278826
     74          1           0       -9.000075   -0.452661    4.952498
     75          1           0       -8.412958    1.134655    4.741515
     76          1           0       -6.922375   -0.533566   -1.142005
     77          1           0       -4.500586    2.858869   -2.188572
     78          1           0       -6.087956    3.668583   -2.216965
     79          1           0       -5.684105    2.434262   -3.507439
     80         12           0       11.981375    0.737364   -0.651540
     81          6           0       11.723836   -2.796418   -0.440551
     82          6           0        8.571905    0.792104   -1.386144
     83          6           0       12.014614    3.881661    0.322335
     84          6           0       15.446888    0.320207    0.453073
     85          7           0       10.259950   -0.882009   -0.639563
     86          6           0       10.482366   -2.210758   -0.794710
     87          6           0        9.201594   -2.884233   -1.253961
     88          6           0        8.482612   -1.802973   -2.060908
     89          6           0        9.096619   -0.528944   -1.284476
     90          6           0        8.783470   -1.686084   -3.556289
     91          6           0        8.432097   -3.481249    0.003927
     92          6           0        7.932698   -4.850900   -0.240176
     93          1           0        6.521727   -5.198050    0.273261
     94          7           0       10.473495    2.200591   -0.485263
     95          6           0        9.135482    2.037772   -0.922533
     96          6           0        8.490123    3.313319   -0.739066
     97          6           0        9.443436    4.283953   -0.331767
     98          6           0       10.712243    3.502064   -0.113482
     99          6           0        7.003281    3.482452   -1.035089
    100          6           0        9.172639    5.707570   -0.042734
    101          8           0        8.029425    6.128324   -0.169841
    102          6           0       10.135503    6.717235    0.490198
    103          7           0       13.576107    1.915079    0.384647
    104          6           0       13.313670    3.235653    0.447711
    105          6           0       14.572934    4.021543    0.855723
    106          6           0       15.758103    2.905314    0.757825
    107          6           0       14.919977    1.631645    0.475275
    108          6           0       14.798459    5.378141    0.048042
    109          6           0       16.694984    2.807891    2.002353
    110          6           0       16.402824    1.678727    3.048529
    111          7           0       13.295888   -0.809839   -0.124218
    112          6           0       14.674654   -0.810419    0.231961
    113          6           0       15.181691   -2.251239    0.205037
    114          6           0       14.028930   -2.991059   -0.004820
    115          6           0       12.935726   -2.075901   -0.213455
    116          6           0       16.577135   -2.869361    0.416903
    117          6           0       13.525105   -4.316514   -0.177817
    118          8           0       14.116823   -5.396542   -0.216607
    119          6           0       12.050169   -4.170871   -0.298613
    120          6           0       11.535555   -4.723911    1.050058
    121          8           0       11.524810   -4.147406    2.135644
    122          8           0       11.137301   -6.071104    0.826137
    123          6           0       10.739578   -6.840875    1.934112
    124          1           0        7.532639    0.877416   -1.710743
    125          1           0       11.963742    4.964545    0.451947
    126          1           0       16.500614    0.097305    0.629287
    127          1           0        9.369772   -3.686418   -1.972357
    128          1           0        7.394273   -1.758052   -2.077830
    129          1           0        9.228019   -2.582802   -3.987034
    130          1           0        9.269267   -0.739831   -3.795682
    131          1           0        7.782829   -1.629020   -3.986302
    132          1           0        7.560973   -2.857699    0.205288
    133          1           0        8.970612   -3.382347    0.946494
    134          1           0        8.704109   -5.452318    0.239448
    135          1           0        7.933898   -5.027403   -1.315686
    136          1           0        6.813736    4.017046   -1.965682
    137          1           0        6.526615    3.944288   -0.171688
    138          1           0        6.527851    2.508279   -1.150249
    139          1           0       10.878402    6.918569   -0.281989
    140          1           0       10.648542    6.445057    1.413405
    141          1           0        9.684149    7.706561    0.554551
    142          1           0       14.399921    4.223231    1.912623
    143          1           0       16.322943    3.081154   -0.157051
    144          1           0       13.858145    5.757926   -0.351311
    145          1           0       15.584088    5.421546   -0.707215
    146          1           0       15.286960    6.011527    0.790162
    147          1           0       16.761027    3.749291    2.547190
    148          1           0       17.657202    2.582427    1.543204
    149          1           0       16.755917    2.241179    3.913181
    150          1           0       16.963760    0.747223    2.969598
    151          1           0       15.322550    1.536642    3.085168
    152          1           0       16.885316   -3.446477   -0.454214
    153          1           0       16.275373   -3.607974    1.158915
    154          1           0       17.222853   -2.090519    0.821969
    155          1           0       11.687024   -4.809250   -1.104112
    156          1           0       10.458714   -7.867846    1.697266
    157          1           0        9.871401   -6.351759    2.374049
    158          1           0       11.602401   -6.837929    2.600768
 ---------------------------------------------------------------------

 SCF Done:  E(RwB97XD) =  -4070.57271473     A.U. after   19 cycles

 Excitation energies and oscillator strengths:

 Excited State   1:      Singlet-A      1.6232 eV  763.82 nm  f=0.4570  <S**2>=0.000
     309 -> 315       -0.19922
     311 -> 314        0.66168
     312 -> 313        0.14971
     309 <- 315       -0.11989
 This state for optimization and/or second-order correction.
 Total Energy, E(TD-HF/TD-DFT) =  -4070.51306281
 Copying the excited state density for this state as the 1-particle RhoCI density.

 Excited State   2:      Singlet-A      1.6374 eV  757.21 nm  f=0.3030  <S**2>=0.000
     310 -> 316       -0.17961
     311 -> 314       -0.14790
     312 -> 313        0.66760
     310 <- 316       -0.11460

 Excited State   3:      Singlet-A      2.1336 eV  581.10 nm  f=0.0548  <S**2>=0.000
     309 -> 314        0.61260
     311 -> 315        0.34214

 Excited State   4:      Singlet-A      2.1545 eV  575.46 nm  f=0.1351  <S**2>=0.000
     310 -> 313        0.64869
     312 -> 316        0.26857

 Excited State   5:      Singlet-A      3.7234 eV  332.98 nm  f=0.0000  <S**2>=0.000
     311 -> 313        0.70690

 The electronic state is 1-A.
 Alpha  occ. eigenvalues --  -46.97593 -46.94863 -19.29887 -19.29036 -19.26278
 Alpha  occ. eigenvalues --  -19.24798 -19.24122 -19.23935 -19.23931 -19.22495
 Alpha  occ. eigenvalues --  -14.46923 -14.46787 -14.46446 -14.45861 -14.44770
 Alpha  occ. eigenvalues --  -14.44278 -14.44181 -14.43415 -10.44436 -10.42768
 Alpha  occ. eigenvalues --  -10.39256 -10.38689 -10.38522 -10.37985 -10.35787
 Alpha  occ. eigenvalues --  -10.35391 -10.35391 -10.35287 -10.34979 -10.34933
 Alpha  occ. eigenvalues --  -10.34882 -10.34850 -10.34799 -10.34709 -10.34343
 Alpha  occ. eigenvalues --  -10.34201 -10.34101 -10.34074 -10.34050 -10.33506
 Alpha  occ. eigenvalues --  -10.33423 -10.33342 -10.33074 -10.32947 -10.32917
 Alpha  occ. eigenvalues --  -10.32870 -10.32776 -10.32514 -10.32480 -10.32383
 Alpha  occ. eigenvalues --  -10.32368 -10.32191 -10.32082 -10.31878 -10.31762
 Alpha  occ. eigenvalues --  -10.31713 -10.31659 -10.31580 -10.31542 -10.31390
 Alpha  occ. eigenvalues --  -10.31122 -10.31105 -10.31014 -10.31006 -10.30985
 Alpha  occ. eigenvalues --  -10.30894 -10.30851 -10.30820 -10.30815 -10.30808
 Alpha  occ. eigenvalues --  -10.30749 -10.30613 -10.30613 -10.30160 -10.30084
 Alpha  occ. eigenvalues --  -10.30009 -10.29693 -10.29562 -10.29559 -10.29554
 Alpha  occ. eigenvalues --  -10.29454 -10.29428 -10.29342 -10.29092 -10.28975
 Alpha  occ. eigenvalues --  -10.28710  -3.23298  -3.20853  -1.96813  -1.96459
 Alpha  occ. eigenvalues --   -1.96211  -1.94439  -1.93955  -1.93842  -1.17923
 Alpha  occ. eigenvalues --   -1.17808  -1.13551  -1.13001  -1.11787  -1.11470
 Alpha  occ. eigenvalues --   -1.10792  -1.09614  -1.06141  -1.05783  -1.05375
 Alpha  occ. eigenvalues --   -1.05303  -1.04799  -1.04461  -1.03579  -1.03228
 Alpha  occ. eigenvalues --   -0.96338  -0.94962  -0.90956  -0.90792  -0.90559
 Alpha  occ. eigenvalues --   -0.90104  -0.89943  -0.89619  -0.89141  -0.89060
 Alpha  occ. eigenvalues --   -0.88725  -0.88720  -0.87935  -0.87432  -0.86621
 Alpha  occ. eigenvalues --   -0.85788  -0.85507  -0.85045  -0.84542  -0.84033
 Alpha  occ. eigenvalues --   -0.83932  -0.83489  -0.82740  -0.82622  -0.82168
 Alpha  occ. eigenvalues --   -0.82000  -0.80045  -0.79920  -0.79127  -0.78844
 Alpha  occ. eigenvalues --   -0.78727  -0.78532  -0.77896  -0.77434  -0.77085
 Alpha  occ. eigenvalues --   -0.76723  -0.74721  -0.74677  -0.73760  -0.73243
 Alpha  occ. eigenvalues --   -0.71777  -0.71538  -0.70649  -0.70632  -0.69691
 Alpha  occ. eigenvalues --   -0.69177  -0.68931  -0.68744  -0.67237  -0.66969
 Alpha  occ. eigenvalues --   -0.66850  -0.66627  -0.66530  -0.66483  -0.66325
 Alpha  occ. eigenvalues --   -0.65856  -0.64152  -0.63422  -0.62038  -0.61852
 Alpha  occ. eigenvalues --   -0.61697  -0.61429  -0.61200  -0.60794  -0.60773
 Alpha  occ. eigenvalues --   -0.60217  -0.60198  -0.59792  -0.58941  -0.58863
 Alpha  occ. eigenvalues --   -0.58060  -0.58029  -0.57868  -0.57626  -0.57550
 Alpha  occ. eigenvalues --   -0.56952  -0.56786  -0.56442  -0.56335  -0.56161
 Alpha  occ. eigenvalues --   -0.56024  -0.55572  -0.55567  -0.55237  -0.54904
 Alpha  occ. eigenvalues --   -0.54581  -0.54499  -0.54264  -0.54020  -0.53862
 Alpha  occ. eigenvalues --   -0.53818  -0.53539  -0.53523  -0.53260  -0.53254
 Alpha  occ. eigenvalues --   -0.53179  -0.52894  -0.52423  -0.52411  -0.52062
 Alpha  occ. eigenvalues --   -0.52025  -0.51837  -0.51691  -0.51581  -0.51384
 Alpha  occ. eigenvalues --   -0.51332  -0.51087  -0.51024  -0.50832  -0.50727
 Alpha  occ. eigenvalues --   -0.50352  -0.50312  -0.50117  -0.49882  -0.49705
 Alpha  occ. eigenvalues --   -0.49633  -0.49623  -0.49333  -0.49050  -0.48928
 Alpha  occ. eigenvalues --   -0.48703  -0.48638  -0.48249  -0.47944  -0.47825
 Alpha  occ. eigenvalues --   -0.47785  -0.47755  -0.47728  -0.47633  -0.47322
 Alpha  occ. eigenvalues --   -0.47291  -0.47181  -0.47155  -0.47080  -0.46991
 Alpha  occ. eigenvalues --   -0.46924  -0.46744  -0.46617  -0.46419  -0.46300
 Alpha  occ. eigenvalues --   -0.45950  -0.45922  -0.45747  -0.45730  -0.45426
 Alpha  occ. eigenvalues --   -0.45375  -0.45135  -0.45066  -0.44923  -0.44641
 Alpha  occ. eigenvalues --   -0.44442  -0.44274  -0.43956  -0.43896  -0.43763
 Alpha  occ. eigenvalues --   -0.43543  -0.43419  -0.43232  -0.43017  -0.42893
 Alpha  occ. eigenvalues --   -0.42798  -0.42777  -0.42667  -0.42359  -0.42266
 Alpha  occ. eigenvalues --   -0.41882  -0.41186  -0.41002  -0.40678  -0.40423
 Alpha  occ. eigenvalues --   -0.40113  -0.39953  -0.39805  -0.39641  -0.39556
 Alpha  occ. eigenvalues --   -0.38963  -0.38525  -0.38483  -0.38424  -0.38245
 Alpha  occ. eigenvalues --   -0.37696  -0.37645  -0.37110  -0.36522  -0.36155
 Alpha  occ. eigenvalues --   -0.35892  -0.35542  -0.34835  -0.33464  -0.33440
 Alpha  occ. eigenvalues --   -0.32915  -0.32801  -0.32643  -0.32531  -0.32256
 Alpha  occ. eigenvalues --   -0.32064  -0.31887  -0.31556  -0.25893  -0.25467
 Alpha  occ. eigenvalues --   -0.22762  -0.22728
 Alpha virt. eigenvalues --   -0.06856  -0.06810  -0.00659   0.00834   0.01922
 Alpha virt. eigenvalues --    0.02975   0.02990   0.04388   0.04762   0.05686
 Alpha virt. eigenvalues --    0.06922   0.07514   0.07647   0.08179   0.08501

 Mulliken charges:
               1
     1  Mg   0.976946
     2  C   -0.038713
     3  C   -0.072014
     4  C   -0.068412
     5  C   -0.096308
     6  N   -0.383286
     7  C   -0.009797
     8  C   -0.026853
     9  C   -0.121323
    10  C    0.109327
    11  C   -0.013727
    12  C   -0.019398
    13  C   -0.122978
    14  H    0.029230
    15  N   -0.491558
    16  C    0.111634
    17  C   -0.136123
    18  C   -0.128127
    19  C    0.164494
    20  C    0.081541
    21  C    0.041177
    22  O   -0.208257
    23  C   -0.027511
    24  N   -0.338782
    25  C    0.031221
    26  C   -0.031751
    27  C   -0.109765
    28  C    0.026804
    29  C    0.019863
    30  C   -0.035765
    31  C   -0.029314
    32  N   -0.401390
    33  C    0.165516
    34  C   -0.241991
    35  C    0.014097
    36  C    0.138231
    37  C    0.096310
    38  C    0.120024
    39  O   -0.172765
    40  C   -0.118055
    41  C    0.285138
    42  O   -0.233196
    43  O   -0.386794
    44  C    0.128078
    45  H   -0.028779
    46  H    0.025106
    47  H    0.001975
    48  H    0.050917
    49  H    0.047674
    50  H    0.030999
    51  H    0.050482
    52  H    0.042851
    53  H    0.033667
    54  H    0.059765
    55  H    0.061128
    56  H    0.063796
    57  H    0.057768
    58  H    0.039801
    59  H    0.047057
    60  H    0.079672
    61  H    0.047383
    62  H    0.039897
    63  H    0.038760
    64  H    0.032616
    65  H    0.032727
    66  H    0.039075
    67  H    0.051680
    68  H    0.028509
    69  H    0.032690
    70  H    0.031928
    71  H    0.042805
    72  H    0.037419
    73  H    0.058845
    74  H    0.027586
    75  H    0.045977
    76  H    0.080828
    77  H    0.063980
    78  H    0.073002
    79  H    0.054732
    80  Mg   0.936443
    81  C    0.010998
    82  C   -0.075275
    83  C   -0.029800
    84  C   -0.064676
    85  N   -0.298194
    86  C   -0.021670
    87  C   -0.051885
    88  C   -0.134239
    89  C    0.044227
    90  C    0.038277
    91  C    0.033657
    92  C   -0.117197
    93  H    0.035424
    94  N   -0.490346
    95  C    0.145803
    96  C   -0.165306
    97  C   -0.025088
    98  C    0.111814
    99  C    0.095980
   100  C   -0.006975
   101  O   -0.246206
   102  C    0.014114
   103  N   -0.325718
   104  C    0.062912
   105  C   -0.098273
   106  C   -0.020446
   107  C    0.007519
   108  C    0.005961
   109  C   -0.047092
   110  C   -0.047956
   111  N   -0.422689
   112  C    0.106807
   113  C   -0.210865
   114  C   -0.023531
   115  C    0.161700
   116  C    0.090903
   117  C    0.075732
   118  O   -0.216480
   119  C   -0.055063
   120  C    0.276462
   121  O   -0.229349
   122  O   -0.374880
   123  C    0.144837
   124  H    0.004799
   125  H   -0.047462
   126  H   -0.001038
   127  H    0.012510
   128  H    0.029899
   129  H    0.041976
   130  H    0.046901
   131  H    0.028392
   132  H    0.033096
   133  H    0.056484
   134  H    0.045158
   135  H    0.046063
   136  H    0.058184
   137  H    0.061920
   138  H    0.009897
   139  H    0.040690
   140  H    0.071670
   141  H    0.046922
   142  H    0.050798
   143  H    0.037686
   144  H    0.052393
   145  H    0.033748
   146  H    0.031482
   147  H    0.040154
   148  H    0.030869
   149  H    0.035526
   150  H    0.046360
   151  H    0.060576
   152  H    0.072773
   153  H    0.067954
   154  H    0.038897
   155  H    0.060909
   156  H    0.057911
   157  H    0.041993
   158  H    0.053538
 Sum of Mulliken charges =  -0.00000

 Dipole moment (field-independent basis, Debye):
    X=              0.9153    Y=             -0.3128    Z=             -5.0840  Tot=              5.1752
 Quadrupole moment (field-independent basis, Debye-Ang):
   XX=           -407.4431   YY=           -523.5462   ZZ=           -467.9308
   XY=             72.2264   XZ=              7.0173   YZ=              2.7783

 Normal termination of Gaussian 16 at Sun Sep 19 06:10:10 2021.
