 Gaussian 16, Revision A.03,
 Gaussian 16:  ES64L-G16RevA.03 25-Dec-2016

 --------------------------------
 #p wB97XD/Def2SVP td=(nstates=5)
 --------------------------------

 --------------------------------
 TDDFT excited states in gaussian
 --------------------------------
 Symbolic Z-matrix:
 Charge =  0 Multiplicity = 1

                         Standard orientation:
 ---------------------------------------------------------------------
 Center     Atomic      Atomic             Coordinates (Angstroms)
 Number     Number       Type             X           Y           Z
 ---------------------------------------------------------------------
      1         12           0        0.786632    0.073427   -0.441471
      2          6           0       -2.803923    0.236664   -0.196400
      3          6           0        0.596712   -3.260881   -0.487476
      4          6           0        4.071019    0.027316    0.222928
      5          6           0        0.798236    3.540143    0.093321
      6          7           0       -0.888493   -1.306878   -0.298210
      7          6           0       -2.266850   -1.052684   -0.400227
      8          6           0       -3.080529   -2.382558   -0.632436
      9          6           0       -1.957809   -3.463631   -0.651057
     10          6           0       -0.654294   -2.630740   -0.526413
     11          6           0       -2.030985   -4.555589    0.385897
     12          6           0       -4.017226   -2.322640   -1.954646
     13          6           0       -5.491355   -2.680183   -1.728251
     14          1           0       -5.996968   -3.889975   -2.598950
     15          7           0        2.175929   -1.422454   -0.306979
     16          6           0        1.927253   -2.735547   -0.340662
     17          6           0        3.151474   -3.520430   -0.172318
     18          6           0        4.150621   -2.532304    0.131417
     19          6           0        3.488607   -1.226631    0.041749
     20          6           0        3.193431   -4.985146   -0.267587
     21          6           0        5.607942   -2.878985    0.570558
     22          8           0        6.448928   -2.015796    0.758152
     23          6           0        6.081898   -4.283690    0.766883
     24          7           0        2.166644    1.535903    0.061702
     25          6           0        3.527978    1.271262    0.166187
     26          6           0        4.341282    2.590848    0.374541
     27          6           0        3.303104    3.705253   -0.023725
     28          6           0        2.009063    2.891781   -0.014571
     29          6           0        5.096082    2.776898    1.731034
     30          6           0        3.559835    4.345997   -1.415204
     31          6           0        3.343785    5.829147   -1.580450
     32          7           0       -0.672435    1.597779   -0.064179
     33          6           0       -0.504495    2.939615    0.128786
     34          6           0       -1.880638    3.603151    0.156644
     35          6           0       -2.796178    2.593619   -0.017601
     36          6           0       -2.020602    1.385187   -0.076246
     37          6           0       -2.063785    5.101392    0.241349
     38          6           0       -4.198564    2.228194   -0.108582
     39          8           0       -5.139744    3.047324   -0.056561
     40          6           0       -4.283859    0.587534   -0.138341
     41          6           0       -4.918321   -0.037546    1.086518
     42          8           0       -4.496610    0.226781    2.229822
     43          8           0       -6.080031   -0.748823    0.783322
     44          6           0       -6.907214   -0.984954    1.960848
     45          1           0        0.608764   -4.345128   -0.615144
     46          1           0        5.147760   -0.077393    0.369390
     47          1           0        0.883044    4.628451    0.135551
     48          1           0       -3.717707   -2.422904    0.250792
     49          1           0       -2.141967   -4.032671   -1.563347
     50          1           0       -2.862166   -4.433420    1.080514
     51          1           0       -1.147727   -4.300813    0.970616
     52          1           0       -2.112497   -5.554371   -0.043986
     53          1           0       -3.522293   -3.021243   -2.628680
     54          1           0       -3.895545   -1.349785   -2.430189
     55          1           0       -6.060492   -1.764041   -1.885937
     56          1           0       -5.630778   -2.979023   -0.688543
     57          1           0        3.587673   -5.576459    0.558274
     58          1           0        3.988166   -5.184658   -0.985500
     59          1           0        2.328465   -5.449950   -0.741266
     60          1           0        5.967361   -4.758311   -0.208389
     61          1           0        5.368509   -4.759798    1.440145
     62          1           0        7.097863   -4.199645    1.150660
     63          1           0        5.106064    2.543931   -0.400744
     64          1           0        3.175343    4.462180    0.749763
     65          1           0        4.984401    1.814882    2.230671
     66          1           0        4.754380    3.626640    2.321341
     67          1           0        6.177464    2.822560    1.596261
     68          1           0        2.821044    3.772663   -1.974854
     69          1           0        4.532540    4.118340   -1.851705
     70          1           0        4.183803    6.180773   -2.179589
     71          1           0        3.375154    6.374669   -0.636754
     72          1           0        2.476341    5.932024   -2.232882
     73          1           0       -1.069637    5.541793    0.315422
     74          1           0       -2.562284    5.327981    1.183559
     75          1           0       -2.668164    5.443829   -0.598387
     76          1           0       -4.784150    0.288726   -1.059499
     77          1           0       -7.847746   -0.436430    1.987237
     78          1           0       -6.397993   -0.802317    2.907232
     79          1           0       -7.147656   -2.047753    1.951564
 ---------------------------------------------------------------------

 SCF Done:  E(RwB97XD) =  -2035.29223169     A.U. after   20 cycles

 Excitation energies and oscillator strengths:

 Excited State   1:      Singlet-A      1.6412 eV  755.44 nm  f=0.4145  <S**2>=0.000
     155 ->158        -0.17870
     156 ->157         0.68585
     155 <-158        -0.11674
 This state for optimization and/or second-order correction.
 Total Energy, E(TD-HF/TD-DFT) =  -2035.23191834
 Copying the excited state density for this state as the 1-particle RhoCI density.

 Excited State   2:      Singlet-A      2.2310 eV  555.73 nm  f=0.0894  <S**2>=0.000
     155 ->157         0.62832
     156 ->158         0.31481

 Excited State   3:      Singlet-A      3.5130 eV  352.93 nm  f=0.0353  <S**2>=0.000
     150 ->157         0.17848
     150 ->159         0.15933
     151 ->157         0.35912
     151 ->159         0.33805
     152 ->157         0.23428
     153 ->157        -0.23206
     154 ->157         0.12103
     156 ->158         0.16115

 Excited State   4:      Singlet-A      3.5607 eV  348.20 nm  f=0.5300  <S**2>=0.000
     151 ->157        -0.11916
     154 ->157        -0.25959
     155 ->157        -0.26480
     156 ->158         0.56183
     155 <-157         0.10648

 Excited State   5:      Singlet-A      3.6002 eV  344.38 nm  f=0.0283  <S**2>=0.000
     151 ->157        -0.24446
     151 ->159        -0.14566
     152 ->157         0.14726
     153 ->157        -0.19902
     154 ->157         0.55443
     156 ->158         0.10749

 The electronic state is 1-A.
 Alpha  occ. eigenvalues --  -46.94750 -19.31944 -19.25828 -19.25075 -19.23534
 Alpha  occ. eigenvalues --  -14.47192 -14.46258 -14.44311 -14.43940 -10.44728
 Alpha  occ. eigenvalues --  -10.40618 -10.38864 -10.35676 -10.35492 -10.34967
 Alpha  occ. eigenvalues --  -10.34745 -10.34366 -10.34123 -10.34047 -10.33774
 Alpha  occ. eigenvalues --  -10.33488 -10.33192 -10.33067 -10.33023 -10.32653
 Alpha  occ. eigenvalues --  -10.32346 -10.32186 -10.31747 -10.31509 -10.31424
 Alpha  occ. eigenvalues --  -10.31299 -10.31273 -10.31018 -10.31003 -10.30557
 Alpha  occ. eigenvalues --  -10.30057 -10.30002 -10.29846 -10.29828 -10.29370
 Alpha  occ. eigenvalues --  -10.29347 -10.29246 -10.29211  -3.20823  -1.94396
 Alpha  occ. eigenvalues --   -1.93934  -1.93823  -1.18539  -1.12292  -1.11351
 Alpha  occ. eigenvalues --   -1.10180  -1.05933  -1.05338  -1.04643  -1.03919
 Alpha  occ. eigenvalues --   -0.94645  -0.91002  -0.90613  -0.89929  -0.89294
 Alpha  occ. eigenvalues --   -0.89144  -0.88085  -0.86202  -0.85564  -0.84626
 Alpha  occ. eigenvalues --   -0.83841  -0.83172  -0.82203  -0.80390  -0.79545
 Alpha  occ. eigenvalues --   -0.78884  -0.78152  -0.76659  -0.74466  -0.72957
 Alpha  occ. eigenvalues --   -0.71020  -0.70342  -0.69845  -0.68687  -0.67272
 Alpha  occ. eigenvalues --   -0.66950  -0.66908  -0.66369  -0.64603  -0.62260
 Alpha  occ. eigenvalues --   -0.61759  -0.60896  -0.60511  -0.60351  -0.59326
 Alpha  occ. eigenvalues --   -0.58258  -0.57416  -0.57062  -0.56862  -0.55714
 Alpha  occ. eigenvalues --   -0.55454  -0.55123  -0.54548  -0.54366  -0.53768
 Alpha  occ. eigenvalues --   -0.53555  -0.53455  -0.53191  -0.53071  -0.52784
 Alpha  occ. eigenvalues --   -0.52192  -0.51569  -0.51348  -0.51076  -0.50735
 Alpha  occ. eigenvalues --   -0.50578  -0.50268  -0.50087  -0.49876  -0.49191
 Alpha  occ. eigenvalues --   -0.48935  -0.48693  -0.48435  -0.47965  -0.47898
 Alpha  occ. eigenvalues --   -0.47607  -0.47330  -0.46511  -0.46328  -0.46081
 Alpha  occ. eigenvalues --   -0.45956  -0.45726  -0.45563  -0.45159  -0.44963
 Alpha  occ. eigenvalues --   -0.44825  -0.44606  -0.43732  -0.43641  -0.43041
 Alpha  occ. eigenvalues --   -0.42693  -0.42465  -0.42100  -0.41434  -0.41036
 Alpha  occ. eigenvalues --   -0.40214  -0.39753  -0.39495  -0.39439  -0.38508
 Alpha  occ. eigenvalues --   -0.38043  -0.37092  -0.36442  -0.35168  -0.33715
 Alpha  occ. eigenvalues --   -0.33517  -0.32616  -0.32582  -0.31945  -0.26104
 Alpha  occ. eigenvalues --   -0.22585
 Alpha virt. eigenvalues --   -0.06773   0.00586   0.01969   0.04279   0.04877
 Alpha virt. eigenvalues --    0.05108   0.06992   0.08006   0.10150   0.10888
 Alpha virt. eigenvalues --    0.11420   0.12535   0.13006   0.13182   0.13422

 Mulliken charges:
               1
     1  Mg   0.975976
     2  C   -0.099759
     3  C   -0.080739
     4  C   -0.088223
     5  C   -0.101365
     6  N   -0.370424
     7  C   -0.011424
     8  C   -0.072396
     9  C   -0.107060
    10  C    0.104481
    11  C    0.024230
    12  C    0.006675
    13  C   -0.108954
    14  H    0.027740
    15  N   -0.454542
    16  C    0.114061
    17  C   -0.149498
    18  C   -0.076272
    19  C    0.118121
    20  C    0.069286
    21  C    0.031585
    22  O   -0.238335
    23  C    0.011644
    24  N   -0.401041
    25  C    0.093375
    26  C   -0.058184
    27  C   -0.103738
    28  C    0.063906
    29  C    0.035207
    30  C   -0.016666
    31  C   -0.026205
    32  N   -0.388504
    33  C    0.149001
    34  C   -0.228808
    35  C    0.015717
    36  C    0.154335
    37  C    0.098514
    38  C    0.146794
    39  O   -0.221209
    40  C   -0.037249
    41  C    0.292899
    42  O   -0.256314
    43  O   -0.367220
    44  C    0.121088
    45  H   -0.014028
    46  H    0.016145
    47  H   -0.003765
    48  H    0.041626
    49  H    0.034181
    50  H    0.028904
    51  H    0.041578
    52  H    0.042988
    53  H    0.031992
    54  H    0.037967
    55  H    0.064379
    56  H    0.054548
    57  H    0.046829
    58  H    0.028310
    59  H    0.042613
    60  H    0.049464
    61  H    0.052104
    62  H    0.067750
    63  H    0.030982
    64  H    0.029182
    65  H    0.038578
    66  H    0.045339
    67  H    0.035506
    68  H    0.029345
    69  H    0.034953
    70  H    0.028930
    71  H    0.041856
    72  H    0.043814
    73  H    0.023026
    74  H    0.059028
    75  H    0.067086
    76  H    0.058137
    77  H    0.063449
    78  H    0.072075
    79  H    0.044628
 Sum of Mulliken charges =  -0.00000

 Dipole moment (field-independent basis, Debye):
    X=              0.6122    Y=             -2.7797    Z=             -2.3900  Tot=              3.7166
 Quadrupole moment (field-independent basis, Debye-Ang):
   XX=           -270.0754   YY=           -225.7516   ZZ=           -257.3394
   XY=             22.0233   XZ=             -6.6034   YZ=             -1.5458

 Normal termination of Gaussian 16 at Sun Sep 19 16:45:01 2021.
