 Gaussian 16, Revision A.03,
 Gaussian 16:  ES64L-G16RevA.03 25-Dec-2016

 --------------------------------
 #p wB97XD/Def2SVP td=(nstates=5)
 --------------------------------

 --------------------------------
 TDDFT excited states in gaussian
 --------------------------------
 Symbolic Z-matrix:
 Charge =  0 Multiplicity = 1

                         Standard orientation:
 ---------------------------------------------------------------------
 Center     Atomic      Atomic             Coordinates (Angstroms)
 Number     Number       Type             X           Y           Z
 ---------------------------------------------------------------------
      1         12           0        8.936646    0.599549   -0.174795
      2          6           0        6.590234   -1.989438   -0.893953
      3          6           0        6.624378    2.716175   -1.263508
      4          6           0       10.596355    3.109392    1.363890
      5          6           0       10.665983   -1.855135    1.744610
      6          7           0        6.973270    0.384968   -1.064038
      7          6           0        6.212777   -0.767299   -1.358905
      8          6           0        4.843220   -0.442355   -2.034239
      9          6           0        4.937162    1.103102   -2.178244
     10          6           0        6.303992    1.439320   -1.545241
     11          6           0        4.756557    1.439307   -3.667897
     12          6           0        3.521258   -0.896361   -1.277181
     13          6           0        2.675228   -1.966918   -1.956638
     14          1           0        1.195447   -1.632304   -2.234402
     15          7           0        8.734801    2.601436   -0.041001
     16          6           0        7.660249    3.308559   -0.580054
     17          6           0        7.864201    4.694218   -0.445885
     18          6           0        9.081415    4.889450    0.180278
     19          6           0        9.535818    3.563978    0.549072
     20          6           0        6.948021    5.877674   -0.932641
     21          6           0        9.676327    6.258001    0.415738
     22          8           0        9.216561    7.273864   -0.014138
     23          6           0       11.088251    6.274361    1.183781
     24          7           0       10.371748    0.646401    1.391860
     25          6           0       10.925223    1.825344    1.811170
     26          6           0       11.870855    1.481590    3.033838
     27          6           0       12.010087   -0.048804    3.091540
     28          6           0       10.935134   -0.471830    2.019103
     29          6           0       13.153838    2.261828    3.080415
     30          6           0       11.575575   -0.546965    4.464306
     31          6           0       12.104774   -1.883012    4.913646
     32          7           0        8.845753   -1.557527    0.142942
     33          6           0        9.624817   -2.386638    0.914206
     34          6           0        9.205999   -3.732833    0.764352
     35          6           0        8.023516   -3.704044   -0.012258
     36          6           0        7.804631   -2.317938   -0.251372
     37          6           0        9.767554   -4.928698    1.422620
     38          6           0        6.903758   -4.429786   -0.626953
     39          8           0        6.712002   -5.652071   -0.679586
     40          6           0        5.926093   -3.363108   -1.253864
     41          6           0        5.973114   -3.465684   -2.688066
     42          8           0        6.952778   -3.028931   -3.337279
     43          8           0        4.860571   -4.116971   -3.080382
     44          6           0        4.554475   -4.191417   -4.535298
     45          1           0        5.902380    3.439675   -1.648757
     46          1           0       11.151214    3.948040    1.789905
     47          1           0       11.227463   -2.666071    2.212503
     48          1           0        4.807279   -0.892081   -3.026439
     49          1           0        4.186929    1.640717   -1.599193
     50          1           0        4.986825    2.498329   -3.780649
     51          1           0        3.762007    1.265647   -4.078548
     52          1           0        5.436375    0.874080   -4.306434
     53          1           0        2.884467   -0.012538   -1.315930
     54          1           0        3.752556   -1.159076   -0.244854
     55          1           0        2.736847   -2.865479   -1.341767
     56          1           0        3.098045   -2.186942   -2.937535
     57          1           0        6.783022    6.500293   -0.053074
     58          1           0        5.988855    5.522895   -1.309458
     59          1           0        7.314767    6.441690   -1.790206
     60          1           0       11.420471    7.311843    1.162127
     61          1           0       11.693846    5.586693    0.592992
     62          1           0       10.812604    5.889208    2.165456
     63          1           0       11.291615    1.817519    3.894638
     64          1           0       12.996045   -0.461954    2.878935
     65          1           0       13.909150    1.647974    3.570359
     66          1           0       12.931778    3.165366    3.648576
     67          1           0       13.483968    2.645262    2.115670
     68          1           0       10.492352   -0.578785    4.584960
     69          1           0       11.820943    0.161662    5.255318
     70          1           0       12.904386   -2.259371    4.275880
     71          1           0       11.276658   -2.591737    4.892491
     72          1           0       12.356030   -1.861663    5.974033
     73          1           0       10.827585   -4.805261    1.646683
     74          1           0        9.620179   -5.745367    0.715497
     75          1           0        9.219352   -5.026056    2.359968
     76          1           0        4.916608   -3.371304   -0.842773
     77          1           0        4.077219   -5.171562   -4.577403
     78          1           0        5.428449   -4.093052   -5.178515
     79          1           0        3.728036   -3.532606   -4.804006
     80         12           0       -8.914349    0.357106   -0.113204
     81          6           0       -6.711716   -2.489850   -0.261659
     82          6           0       -6.919285    1.967869   -2.253522
     83          6           0      -10.492304    3.177773    0.772596
     84          6           0      -10.605120   -1.315629    2.465072
     85          7           0       -7.037806   -0.187031   -1.069401
     86          6           0       -6.411197   -1.441774   -1.158118
     87          6           0       -5.291061   -1.447283   -2.267091
     88          6           0       -5.358461    0.008900   -2.818953
     89          6           0       -6.549021    0.632836   -2.043282
     90          6           0       -4.111408    0.849073   -2.709552
     91          6           0       -5.499896   -2.622603   -3.364471
     92          6           0       -4.282636   -3.527041   -3.593425
     93          1           0       -3.772731   -3.548254   -5.082352
     94          7           0       -8.819428    2.291324   -0.773268
     95          6           0       -7.937867    2.783619   -1.649444
     96          6           0       -8.131328    4.219396   -1.859723
     97          6           0       -9.127673    4.575092   -0.886215
     98          6           0       -9.526178    3.330034   -0.221301
     99          6           0       -7.372213    5.003055   -2.842501
    100          6           0       -9.560751    6.044382   -0.585466
    101          8           0      -10.455360    6.306228    0.201079
    102          6           0       -8.933010    7.226248   -1.252930
    103          7           0      -10.299662    0.821946    1.356925
    104          6           0      -10.908684    2.069564    1.438940
    105          6           0      -12.036025    2.072967    2.523040
    106          6           0      -12.271169    0.538457    2.784411
    107          6           0      -11.022743   -0.047467    2.125254
    108          6           0      -11.839315    2.984218    3.778164
    109          6           0      -13.568448   -0.024908    2.142254
    110          6           0      -14.378792   -1.035406    2.914234
    111          7           0       -8.697989   -1.491034    0.950958
    112          6           0       -9.458546   -2.013722    1.958090
    113          6           0       -8.994849   -3.444931    2.225398
    114          6           0       -7.964279   -3.683669    1.348666
    115          6           0       -7.772434   -2.446008    0.643927
    116          6           0       -9.694123   -4.361137    3.203675
    117          6           0       -6.962769   -4.624206    0.878702
    118          8           0       -6.836124   -5.787429    1.315023
    119          6           0       -5.989969   -3.827360   -0.178948
    120          6           0       -4.567478   -3.621463    0.298203
    121          8           0       -4.334192   -3.079984    1.396943
    122          8           0       -3.631373   -4.252706   -0.521951
    123          6           0       -2.341800   -4.420458    0.137911
    124          1           0       -6.377815    2.515507   -3.027434
    125          1           0      -10.998204    4.128384    0.952011
    126          1           0      -11.254839   -1.815048    3.187454
    127          1           0       -4.391931   -1.659119   -1.688813
    128          1           0       -5.431451   -0.112268   -3.900611
    129          1           0       -3.293792    0.339951   -2.199083
    130          1           0       -4.461935    1.589437   -1.991259
    131          1           0       -3.731194    1.185038   -3.674733
    132          1           0       -5.774220   -2.065858   -4.260076
    133          1           0       -6.394718   -3.189606   -3.109137
    134          1           0       -4.552221   -4.512206   -3.212804
    135          1           0       -3.447706   -3.160488   -2.994871
    136          1           0       -6.810310    5.881321   -2.526212
    137          1           0       -8.136688    5.517453   -3.423689
    138          1           0       -6.850626    4.422843   -3.604001
    139          1           0       -9.137004    7.090555   -2.315716
    140          1           0       -7.856057    7.122053   -1.118019
    141          1           0       -9.377857    8.100890   -0.780017
    142          1           0      -12.901756    2.464969    1.989184
    143          1           0      -12.195495    0.270945    3.838098
    144          1           0      -10.943258    3.560707    3.549409
    145          1           0      -11.790281    2.442435    4.722278
    146          1           0      -12.590931    3.772554    3.835036
    147          1           0      -13.108658   -0.473990    1.262111
    148          1           0      -14.266810    0.730943    1.782398
    149          1           0      -15.419352   -0.742332    2.774297
    150          1           0      -14.182948   -1.012762    3.986742
    151          1           0      -14.280065   -1.974334    2.368913
    152          1           0      -10.502442   -3.787996    3.657436
    153          1           0       -8.998105   -4.587545    4.011078
    154          1           0       -9.995095   -5.277085    2.695591
    155          1           0       -6.032315   -4.344676   -1.137436
    156          1           0       -2.075118   -5.446960    0.385599
    157          1           0       -2.224320   -3.826550    1.044430
    158          1           0       -1.594690   -4.047434   -0.562175
 ---------------------------------------------------------------------

 SCF Done:  E(RwB97XD) =  -4070.59910372     A.U. after   19 cycles

 Excitation energies and oscillator strengths:

 Excited State   1:      Singlet-A      1.6403 eV  755.85 nm  f=0.2391  <S**2>=0.000
     310 -> 316        0.17390
     311 -> 313       -0.15048
     312 -> 314        0.66930
     310 <- 316        0.11378
 This state for optimization and/or second-order correction.
 Total Energy, E(TD-HF/TD-DFT) =  -4070.53882241
 Copying the excited state density for this state as the 1-particle RhoCI density.

 Excited State   2:      Singlet-A      1.6739 eV  740.69 nm  f=0.5367  <S**2>=0.000
     309 -> 315       -0.17194
     311 -> 313        0.66866
     312 -> 314        0.14982
     309 <- 315       -0.10967

 Excited State   3:      Singlet-A      2.2042 eV  562.48 nm  f=0.1241  <S**2>=0.000
     309 -> 313        0.63291
     311 -> 315        0.28991

 Excited State   4:      Singlet-A      2.2313 eV  555.65 nm  f=0.0870  <S**2>=0.000
     310 -> 314        0.62562
     312 -> 316       -0.31392

 Excited State   5:      Singlet-A      3.3785 eV  366.98 nm  f=0.0000  <S**2>=0.000
     312 -> 313        0.70690

 The electronic state is 1-A.
 Alpha  occ. eigenvalues --  -46.94960 -46.94818 -19.31963 -19.31863 -19.25860
 Alpha  occ. eigenvalues --  -19.25121 -19.24774 -19.24727 -19.23876 -19.23593
 Alpha  occ. eigenvalues --  -14.47283 -14.47265 -14.46865 -14.46320 -14.44380
 Alpha  occ. eigenvalues --  -14.44257 -14.44007 -14.43134 -10.44759 -10.43470
 Alpha  occ. eigenvalues --  -10.40664 -10.39553 -10.39511 -10.38924 -10.36746
 Alpha  occ. eigenvalues --  -10.35789 -10.35758 -10.35589 -10.35466 -10.35187
 Alpha  occ. eigenvalues --  -10.35047 -10.34813 -10.34721 -10.34629 -10.34431
 Alpha  occ. eigenvalues --  -10.34180 -10.34098 -10.33834 -10.33793 -10.33553
 Alpha  occ. eigenvalues --  -10.33353 -10.33261 -10.33150 -10.33131 -10.32760
 Alpha  occ. eigenvalues --  -10.32722 -10.32588 -10.32498 -10.32408 -10.32350
 Alpha  occ. eigenvalues --  -10.32253 -10.32107 -10.32066 -10.31870 -10.31862
 Alpha  occ. eigenvalues --  -10.31705 -10.31560 -10.31476 -10.31417 -10.31391
 Alpha  occ. eigenvalues --  -10.31383 -10.31361 -10.31289 -10.31222 -10.31097
 Alpha  occ. eigenvalues --  -10.31082 -10.31073 -10.31050 -10.30620 -10.30491
 Alpha  occ. eigenvalues --  -10.30336 -10.30327 -10.30151 -10.30100 -10.30064
 Alpha  occ. eigenvalues --  -10.29893 -10.29889 -10.29746 -10.29698 -10.29517
 Alpha  occ. eigenvalues --  -10.29417 -10.29331 -10.29285 -10.29273 -10.29007
 Alpha  occ. eigenvalues --  -10.28947  -3.21000  -3.20892  -1.94565  -1.94464
 Alpha  occ. eigenvalues --   -1.94104  -1.94002  -1.93992  -1.93891  -1.18960
 Alpha  occ. eigenvalues --   -1.18560  -1.14301  -1.12351  -1.11394  -1.10983
 Alpha  occ. eigenvalues --   -1.10208  -1.09695  -1.06252  -1.06001  -1.05403
 Alpha  occ. eigenvalues --   -1.05331  -1.04940  -1.04714  -1.03990  -1.03842
 Alpha  occ. eigenvalues --   -0.94706  -0.94276  -0.91575  -0.91386  -0.91063
 Alpha  occ. eigenvalues --   -0.90772  -0.90726  -0.89990  -0.89376  -0.89366
 Alpha  occ. eigenvalues --   -0.89208  -0.88713  -0.88503  -0.88153  -0.86847
 Alpha  occ. eigenvalues --   -0.86288  -0.86233  -0.85614  -0.85336  -0.84690
 Alpha  occ. eigenvalues --   -0.83934  -0.83908  -0.83229  -0.83205  -0.82350
 Alpha  occ. eigenvalues --   -0.82256  -0.80457  -0.79730  -0.79585  -0.79429
 Alpha  occ. eigenvalues --   -0.78962  -0.78739  -0.78297  -0.78216  -0.77192
 Alpha  occ. eigenvalues --   -0.76741  -0.74822  -0.74530  -0.73803  -0.73028
 Alpha  occ. eigenvalues --   -0.71386  -0.71075  -0.70576  -0.70407  -0.69946
 Alpha  occ. eigenvalues --   -0.69877  -0.69352  -0.68757  -0.67789  -0.67566
 Alpha  occ. eigenvalues --   -0.67323  -0.67107  -0.67038  -0.66977  -0.66676
 Alpha  occ. eigenvalues --   -0.66421  -0.64650  -0.64331  -0.62325  -0.62266
 Alpha  occ. eigenvalues --   -0.61834  -0.61715  -0.61522  -0.60947  -0.60589
 Alpha  occ. eigenvalues --   -0.60580  -0.60412  -0.60289  -0.59388  -0.59232
 Alpha  occ. eigenvalues --   -0.58471  -0.58327  -0.58109  -0.57452  -0.57124
 Alpha  occ. eigenvalues --   -0.57067  -0.56889  -0.56754  -0.56286  -0.55902
 Alpha  occ. eigenvalues --   -0.55770  -0.55539  -0.55207  -0.55183  -0.54911
 Alpha  occ. eigenvalues --   -0.54615  -0.54557  -0.54448  -0.54431  -0.53851
 Alpha  occ. eigenvalues --   -0.53734  -0.53606  -0.53541  -0.53518  -0.53253
 Alpha  occ. eigenvalues --   -0.53244  -0.53150  -0.52834  -0.52505  -0.52406
 Alpha  occ. eigenvalues --   -0.52262  -0.52174  -0.52016  -0.51868  -0.51624
 Alpha  occ. eigenvalues --   -0.51401  -0.51251  -0.51174  -0.50997  -0.50799
 Alpha  occ. eigenvalues --   -0.50649  -0.50468  -0.50347  -0.50240  -0.50133
 Alpha  occ. eigenvalues --   -0.50103  -0.49929  -0.49553  -0.49477  -0.49262
 Alpha  occ. eigenvalues --   -0.48993  -0.48990  -0.48758  -0.48492  -0.48481
 Alpha  occ. eigenvalues --   -0.48357  -0.48138  -0.48041  -0.47967  -0.47698
 Alpha  occ. eigenvalues --   -0.47676  -0.47392  -0.47342  -0.47176  -0.47006
 Alpha  occ. eigenvalues --   -0.46781  -0.46571  -0.46388  -0.46371  -0.46164
 Alpha  occ. eigenvalues --   -0.46158  -0.46027  -0.45814  -0.45796  -0.45618
 Alpha  occ. eigenvalues --   -0.45556  -0.45367  -0.45193  -0.45064  -0.45034
 Alpha  occ. eigenvalues --   -0.44866  -0.44822  -0.44696  -0.44622  -0.44324
 Alpha  occ. eigenvalues --   -0.43945  -0.43796  -0.43740  -0.43715  -0.43636
 Alpha  occ. eigenvalues --   -0.43133  -0.42743  -0.42638  -0.42515  -0.42213
 Alpha  occ. eigenvalues --   -0.42177  -0.42080  -0.41518  -0.41209  -0.41098
 Alpha  occ. eigenvalues --   -0.40577  -0.40297  -0.40189  -0.39816  -0.39714
 Alpha  occ. eigenvalues --   -0.39586  -0.39470  -0.39406  -0.38907  -0.38591
 Alpha  occ. eigenvalues --   -0.38122  -0.38087  -0.37127  -0.36511  -0.36364
 Alpha  occ. eigenvalues --   -0.36229  -0.35285  -0.35233  -0.34112  -0.33779
 Alpha  occ. eigenvalues --   -0.33569  -0.33064  -0.32826  -0.32751  -0.32676
 Alpha  occ. eigenvalues --   -0.32642  -0.32011  -0.31149  -0.26300  -0.26172
 Alpha  occ. eigenvalues --   -0.23154  -0.22654
 Alpha virt. eigenvalues --   -0.07181  -0.06837   0.00142   0.00517   0.01915
 Alpha virt. eigenvalues --    0.02551   0.04218   0.04697   0.04833   0.05047
 Alpha virt. eigenvalues --    0.05362   0.06544   0.06858   0.06891   0.07825

 Mulliken charges:
               1
     1  Mg   0.984954
     2  C   -0.043575
     3  C   -0.132094
     4  C   -0.102168
     5  C   -0.063128
     6  N   -0.377760
     7  C    0.011711
     8  C   -0.047496
     9  C   -0.123770
    10  C    0.121358
    11  C    0.014221
    12  C    0.012255
    13  C   -0.134147
    14  H    0.029048
    15  N   -0.504954
    16  C    0.212965
    17  C   -0.172216
    18  C   -0.054603
    19  C    0.149878
    20  C    0.105891
    21  C    0.008302
    22  O   -0.195161
    23  C   -0.027810
    24  N   -0.393417
    25  C    0.110822
    26  C   -0.081244
    27  C   -0.082598
    28  C    0.108054
    29  C    0.029287
    30  C   -0.045531
    31  C   -0.025596
    32  N   -0.385727
    33  C    0.093579
    34  C   -0.222881
    35  C    0.000623
    36  C    0.116315
    37  C    0.079582
    38  C    0.129046
    39  O   -0.222307
    40  C   -0.072791
    41  C    0.292651
    42  O   -0.279586
    43  O   -0.350009
    44  C    0.124605
    45  H   -0.016993
    46  H   -0.040024
    47  H   -0.012495
    48  H    0.028109
    49  H    0.045629
    50  H    0.027909
    51  H    0.041761
    52  H    0.043241
    53  H    0.041230
    54  H    0.049395
    55  H    0.068472
    56  H    0.034104
    57  H    0.062103
    58  H    0.011246
    59  H    0.062590
    60  H    0.058337
    61  H    0.066149
    62  H    0.068701
    63  H    0.047094
    64  H    0.038560
    65  H    0.041531
    66  H    0.031806
    67  H    0.038523
    68  H    0.030585
    69  H    0.021793
    70  H    0.036033
    71  H    0.030133
    72  H    0.033243
    73  H    0.030839
    74  H    0.066878
    75  H    0.061140
    76  H    0.054840
    77  H    0.061909
    78  H    0.085578
    79  H    0.055788
    80  Mg   0.976206
    81  C   -0.099711
    82  C   -0.080874
    83  C   -0.088065
    84  C   -0.101262
    85  N   -0.370324
    86  C   -0.011471
    87  C   -0.072567
    88  C   -0.106845
    89  C    0.104551
    90  C    0.024448
    91  C    0.006527
    92  C   -0.108257
    93  H    0.026183
    94  N   -0.454762
    95  C    0.113950
    96  C   -0.149741
    97  C   -0.076204
    98  C    0.118102
    99  C    0.069469
   100  C    0.031563
   101  O   -0.238224
   102  C    0.011732
   103  N   -0.401031
   104  C    0.093244
   105  C   -0.058265
   106  C   -0.103692
   107  C    0.064024
   108  C    0.035202
   109  C   -0.016704
   110  C   -0.026243
   111  N   -0.388837
   112  C    0.149227
   113  C   -0.228699
   114  C    0.015953
   115  C    0.154390
   116  C    0.098514
   117  C    0.146984
   118  O   -0.220575
   119  C   -0.037313
   120  C    0.292781
   121  O   -0.256268
   122  O   -0.367488
   123  C    0.120686
   124  H   -0.014605
   125  H    0.016253
   126  H   -0.003539
   127  H    0.041615
   128  H    0.033842
   129  H    0.027763
   130  H    0.041838
   131  H    0.041949
   132  H    0.031861
   133  H    0.038441
   134  H    0.065134
   135  H    0.054151
   136  H    0.046564
   137  H    0.028353
   138  H    0.042228
   139  H    0.049444
   140  H    0.051914
   141  H    0.067884
   142  H    0.031062
   143  H    0.029311
   144  H    0.038531
   145  H    0.045437
   146  H    0.035607
   147  H    0.029316
   148  H    0.035042
   149  H    0.029041
   150  H    0.041940
   151  H    0.043865
   152  H    0.023080
   153  H    0.059328
   154  H    0.067310
   155  H    0.058116
   156  H    0.064676
   157  H    0.072000
   158  H    0.044622
 Sum of Mulliken charges =  -0.00000

 Dipole moment (field-independent basis, Debye):
    X=             -0.2776    Y=              2.9479    Z=             -2.7278  Tot=              4.0259
 Quadrupole moment (field-independent basis, Debye-Ang):
   XX=           -459.1102   YY=           -578.2443   ZZ=           -478.1853
   XY=             13.7310   XZ=             41.8612   YZ=             -3.8453

 Normal termination of Gaussian 16 at Sun Sep 19 14:59:59 2021.
