 Gaussian 16, Revision A.03,
 Gaussian 16:  ES64L-G16RevA.03 25-Dec-2016

 --------------------------------
 #p wB97XD/Def2SVP td=(nstates=5)
 --------------------------------

 --------------------------------
 TDDFT excited states in gaussian
 --------------------------------
 Symbolic Z-matrix:
 Charge =  0 Multiplicity = 1

                         Standard orientation:
 ---------------------------------------------------------------------
 Center     Atomic      Atomic             Coordinates (Angstroms)
 Number     Number       Type             X           Y           Z
 ---------------------------------------------------------------------
      1         12           0        9.834839   -0.308809    0.864195
      2          6           0        9.181277    2.042226   -1.737955
      3          6           0        6.672285    0.125291    1.770727
      4          6           0       10.017317   -3.171828    2.650623
      5          6           0       12.752624   -1.164691   -0.994350
      6          7           0        8.224700    0.980989    0.204256
      7          6           0        8.174892    1.943782   -0.827035
      8          6           0        6.794357    2.666053   -0.926029
      9          6           0        6.038217    2.037708    0.278727
     10          6           0        7.060651    1.039555    0.862062
     11          6           0        5.588425    3.189798    1.192560
     12          6           0        5.983030    2.523531   -2.285543
     13          6           0        5.787036    3.794679   -3.103646
     14          1           0        4.340112    4.197110   -3.454831
     15          7           0        8.608332   -1.325421    2.100470
     16          6           0        7.283401   -0.964685    2.344788
     17          6           0        6.727227   -1.778977    3.348406
     18          6           0        7.698245   -2.671916    3.762640
     19          6           0        8.816882   -2.459357    2.866627
     20          6           0        5.285944   -1.722729    3.978026
     21          6           0        7.488562   -3.650061    4.894699
     22          8           0        6.525591   -3.662917    5.602283
     23          6           0        8.730221   -4.622106    5.206304
     24          7           0       11.143266   -1.982035    0.797466
     25          6           0       11.014371   -3.018403    1.681428
     26          6           0       12.091367   -4.106295    1.276612
     27          6           0       13.029025   -3.462386    0.241720
     28          6           0       12.263781   -2.111905   -0.032507
     29          6           0       12.759857   -4.795484    2.432088
     30          6           0       13.037720   -4.303633   -1.028586
     31          6           0       14.231403   -4.171183   -1.936639
     32          7           0       10.933389    0.459759   -0.857631
     33          6           0       12.092911    0.023093   -1.452650
     34          6           0       12.445812    0.879093   -2.526349
     35          6           0       11.372671    1.786938   -2.688840
     36          6           0       10.430408    1.383521   -1.701028
     37          6           0       13.608636    0.759847   -3.427668
     38          6           0       10.767449    2.899617   -3.433192
     39          8           0       11.253291    3.564396   -4.358150
     40          6           0        9.325479    3.144160   -2.843639
     41          6           0        9.305729    4.406614   -2.154084
     42          8           0        9.846498    4.540078   -1.030816
     43          8           0        8.684578    5.292689   -2.957128
     44          6           0        8.350744    6.636732   -2.411122
     45          1           0        5.647821    0.269912    2.121026
     46          1           0       10.071518   -4.053322    3.293053
     47          1           0       13.695058   -1.303420   -1.527618
     48          1           0        6.924921    3.733493   -0.748467
     49          1           0        5.165731    1.453266   -0.011752
     50          1           0        5.208901    2.734966    2.107084
     51          1           0        4.810601    3.839893    0.792199
     52          1           0        6.411587    3.853467    1.459602
     53          1           0        4.972429    2.277945   -1.959170
     54          1           0        6.399985    1.715982   -2.887400
     55          1           0        6.366815    3.681213   -4.020301
     56          1           0        6.182481    4.643559   -2.544745
     57          1           0        4.885003   -2.731841    3.880771
     58          1           0        4.637162   -1.023615    3.450597
     59          1           0        5.226025   -1.337578    4.995917
     60          1           0        8.455301   -5.166806    6.109038
     61          1           0        9.559928   -3.925073    5.326292
     62          1           0        8.781399   -5.217686    4.294890
     63          1           0       11.492826   -4.873261    0.783807
     64          1           0       14.062858   -3.301133    0.546993
     65          1           0       13.762258   -5.088600    2.121231
     66          1           0       12.136345   -5.659128    2.664145
     67          1           0       12.756834   -4.225455    3.360419
     68          1           0       12.151840   -4.154739   -1.646639
     69          1           0       12.929557   -5.367545   -0.817752
     70          1           0       15.054854   -3.623665   -1.478466
     71          1           0       13.909962   -3.636961   -2.830953
     72          1           0       14.515977   -5.141359   -2.343801
     73          1           0       14.453551    0.278453   -2.934228
     74          1           0       13.863604    1.781810   -3.709223
     75          1           0       13.273294    0.125621   -4.248600
     76          1           0        8.512211    3.017845   -3.558316
     77          1           0        8.467862    7.240456   -3.312248
     78          1           0        8.983344    6.948183   -1.580430
     79          1           0        7.282056    6.735296   -2.217657
     80         12           0       -9.833362   -0.634781   -0.126867
     81          6           0       -8.215475    1.944645    1.546295
     82          6           0       -6.767444   -1.655920   -1.280367
     83          6           0      -11.444069   -3.041866   -2.004756
     84          6           0      -12.936739    0.772523    0.607387
     85          7           0       -7.739382    0.023872    0.199685
     86          6           0       -7.294381    1.012582    0.993824
     87          6           0       -5.757717    1.072828    1.157108
     88          6           0       -5.295429    0.044103    0.038234
     89          6           0       -6.694292   -0.574919   -0.442677
     90          6           0       -4.489352    0.816534   -1.066102
     91          6           0       -5.424662    0.616282    2.669355
     92          6           0       -4.551022    1.590176    3.513680
     93          1           0       -3.704747    2.598665    2.655479
     94          7           0       -9.252104   -2.102131   -1.514553
     95          6           0       -7.902879   -2.413140   -1.782066
     96          6           0       -7.852612   -3.641236   -2.546381
     97          6           0       -9.172740   -4.028394   -2.809235
     98          6           0      -10.054067   -3.083356   -2.028377
     99          6           0       -6.545241   -4.125232   -3.189582
    100          6           0       -9.666029   -5.213902   -3.680515
    101          8           0      -10.859098   -5.513847   -3.873453
    102          6           0       -8.611458   -6.146541   -4.300755
    103          7           0      -11.908560   -0.983802   -0.662331
    104          6           0      -12.284330   -2.127263   -1.431044
    105          6           0      -13.793056   -2.085724   -1.751727
    106          6           0      -14.291057   -1.017347   -0.670273
    107          6           0      -12.961492   -0.393077   -0.171323
    108          6           0      -13.990072   -1.754224   -3.221770
    109          6           0      -15.061695   -1.717660    0.527111
    110          6           0      -14.513931   -2.912329    1.379936
    111          7           0      -10.484661    1.030388    0.785333
    112          6           0      -11.778259    1.510554    1.011547
    113          6           0      -11.700402    2.723773    1.758660
    114          6           0      -10.357306    2.914380    2.028895
    115          6           0       -9.624217    1.921160    1.333599
    116          6           0      -12.839700    3.650133    2.131786
    117          6           0       -9.444397    3.761064    2.688708
    118          8           0       -9.684183    4.788185    3.239171
    119          6           0       -8.006132    3.223072    2.297034
    120          6           0       -7.382676    4.291362    1.441905
    121          8           0       -7.248511    4.205434    0.239112
    122          8           0       -7.063817    5.312650    2.245845
    123          6           0       -6.880745    6.553040    1.532723
    124          1           0       -5.791952   -2.038124   -1.587468
    125          1           0      -11.923408   -3.643567   -2.778911
    126          1           0      -13.900834    1.232524    0.836341
    127          1           0       -5.315658    2.059584    1.020615
    128          1           0       -4.692807   -0.788461    0.401984
    129          1           0       -4.732703    0.542724   -2.092976
    130          1           0       -3.484705    0.503554   -0.783213
    131          1           0       -4.576123    1.877322   -0.832148
    132          1           0       -5.030644   -0.398470    2.617504
    133          1           0       -6.382933    0.504334    3.177181
    134          1           0       -3.919297    0.884140    4.051605
    135          1           0       -5.098656    2.184065    4.244856
    136          1           0       -6.732026   -4.216744   -4.259852
    137          1           0       -6.320695   -5.132256   -2.835477
    138          1           0       -5.738852   -3.429788   -2.958857
    139          1           0       -8.140494   -5.591561   -5.113161
    140          1           0       -9.175786   -6.945152   -4.781978
    141          1           0       -8.030071   -6.617230   -3.508327
    142          1           0      -14.166378   -3.061434   -1.439363
    143          1           0      -15.032822   -0.357011   -1.118088
    144          1           0      -13.164281   -2.087698   -3.850445
    145          1           0      -14.105690   -0.679493   -3.360207
    146          1           0      -14.857994   -2.277267   -3.622790
    147          1           0      -16.052264   -1.992294    0.164412
    148          1           0      -15.121906   -0.917909    1.265310
    149          1           0      -14.791302   -3.841506    0.881943
    150          1           0      -15.015711   -2.830156    2.344787
    151          1           0      -13.457077   -2.869074    1.645099
    152          1           0      -13.591958    3.153299    2.744721
    153          1           0      -13.277678    3.920277    1.171118
    154          1           0      -12.579107    4.477863    2.792865
    155          1           0       -7.295902    3.037513    3.102991
    156          1           0       -7.145792    7.438362    2.110221
    157          1           0       -7.229661    6.681532    0.508199
    158          1           0       -5.838727    6.764509    1.291789
 ---------------------------------------------------------------------

 SCF Done:  E(RwB97XD) =  -4070.61457840     A.U. after   19 cycles

 Excitation energies and oscillator strengths:

 Excited State   1:      Singlet-A      1.6513 eV  750.82 nm  f=0.3916  <S**2>=0.000
     310 -> 316        0.18084
     312 -> 314        0.68400
     310 <- 316        0.11558
 This state for optimization and/or second-order correction.
 Total Energy, E(TD-HF/TD-DFT) =  -4070.55389376
 Copying the excited state density for this state as the 1-particle RhoCI density.

 Excited State   2:      Singlet-A      1.6713 eV  741.85 nm  f=0.3844  <S**2>=0.000
     309 -> 315        0.17576
     311 -> 313        0.68510
     309 <- 315        0.11225

 Excited State   3:      Singlet-A      2.1706 eV  571.19 nm  f=0.1297  <S**2>=0.000
     310 -> 314        0.64398
     312 -> 316       -0.27764

 Excited State   4:      Singlet-A      2.2038 eV  562.59 nm  f=0.1121  <S**2>=0.000
     309 -> 313        0.63473
     311 -> 315       -0.29083

 Excited State   5:      Singlet-A      3.4976 eV  354.49 nm  f=0.0000  <S**2>=0.000
     312 -> 313        0.70679

 The electronic state is 1-A.
 Alpha  occ. eigenvalues --  -46.94976 -46.94477 -19.31786 -19.31487 -19.25107
 Alpha  occ. eigenvalues --  -19.24812 -19.24674 -19.24511 -19.23866 -19.23628
 Alpha  occ. eigenvalues --  -14.47281 -14.46901 -14.46881 -14.46080 -14.44277
 Alpha  occ. eigenvalues --  -14.44175 -14.43764 -14.43143 -10.43416 -10.43254
 Alpha  occ. eigenvalues --  -10.39592 -10.39498 -10.39096 -10.38931 -10.36655
 Alpha  occ. eigenvalues --  -10.35804 -10.35738 -10.35613 -10.35207 -10.35200
 Alpha  occ. eigenvalues --  -10.34748 -10.34714 -10.34619 -10.34401 -10.34336
 Alpha  occ. eigenvalues --  -10.34000 -10.33877 -10.33801 -10.33671 -10.33664
 Alpha  occ. eigenvalues --  -10.33105 -10.33026 -10.32743 -10.32707 -10.32537
 Alpha  occ. eigenvalues --  -10.32522 -10.32522 -10.32407 -10.32314 -10.32278
 Alpha  occ. eigenvalues --  -10.32074 -10.32066 -10.31956 -10.31894 -10.31818
 Alpha  occ. eigenvalues --  -10.31765 -10.31736 -10.31722 -10.31436 -10.31383
 Alpha  occ. eigenvalues --  -10.31239 -10.31173 -10.31123 -10.31104 -10.31091
 Alpha  occ. eigenvalues --  -10.31073 -10.30838 -10.30804 -10.30628 -10.30524
 Alpha  occ. eigenvalues --  -10.30441 -10.30387 -10.30378 -10.30249 -10.30162
 Alpha  occ. eigenvalues --  -10.29779 -10.29778 -10.29742 -10.29659 -10.29461
 Alpha  occ. eigenvalues --  -10.29352 -10.29235 -10.29125 -10.29052 -10.28956
 Alpha  occ. eigenvalues --  -10.28841  -3.21015  -3.20511  -1.94580  -1.94119
 Alpha  occ. eigenvalues --   -1.94103  -1.94006  -1.93612  -1.93503  -1.20456
 Alpha  occ. eigenvalues --   -1.18889  -1.14370  -1.14343  -1.11371  -1.10968
 Alpha  occ. eigenvalues --   -1.10530  -1.09641  -1.06255  -1.06249  -1.05392
 Alpha  occ. eigenvalues --   -1.05342  -1.04948  -1.04801  -1.03859  -1.03195
 Alpha  occ. eigenvalues --   -0.94891  -0.94260  -0.91606  -0.91320  -0.90782
 Alpha  occ. eigenvalues --   -0.90488  -0.90079  -0.89680  -0.89389  -0.89080
 Alpha  occ. eigenvalues --   -0.88737  -0.88519  -0.88489  -0.87980  -0.86817
 Alpha  occ. eigenvalues --   -0.86216  -0.85956  -0.85336  -0.85286  -0.84219
 Alpha  occ. eigenvalues --   -0.83931  -0.83230  -0.83205  -0.82858  -0.82363
 Alpha  occ. eigenvalues --   -0.81926  -0.79741  -0.79696  -0.79440  -0.79076
 Alpha  occ. eigenvalues --   -0.78736  -0.78720  -0.78262  -0.77858  -0.77206
 Alpha  occ. eigenvalues --   -0.76952  -0.75024  -0.74829  -0.73807  -0.73207
 Alpha  occ. eigenvalues --   -0.71349  -0.70872  -0.70703  -0.70604  -0.70020
 Alpha  occ. eigenvalues --   -0.69815  -0.69338  -0.68389  -0.67895  -0.67759
 Alpha  occ. eigenvalues --   -0.67585  -0.67106  -0.66655  -0.66615  -0.66523
 Alpha  occ. eigenvalues --   -0.65918  -0.64436  -0.64307  -0.62290  -0.62050
 Alpha  occ. eigenvalues --   -0.61709  -0.61489  -0.61481  -0.60967  -0.60554
 Alpha  occ. eigenvalues --   -0.60460  -0.60290  -0.60062  -0.59301  -0.59243
 Alpha  occ. eigenvalues --   -0.58478  -0.58283  -0.58086  -0.57726  -0.57067
 Alpha  occ. eigenvalues --   -0.56982  -0.56708  -0.56430  -0.56289  -0.55944
 Alpha  occ. eigenvalues --   -0.55871  -0.55388  -0.55196  -0.55138  -0.54921
 Alpha  occ. eigenvalues --   -0.54532  -0.54486  -0.54460  -0.54165  -0.53950
 Alpha  occ. eigenvalues --   -0.53891  -0.53749  -0.53729  -0.53491  -0.53236
 Alpha  occ. eigenvalues --   -0.52948  -0.52645  -0.52537  -0.52372  -0.52178
 Alpha  occ. eigenvalues --   -0.52037  -0.51912  -0.51839  -0.51836  -0.51526
 Alpha  occ. eigenvalues --   -0.51276  -0.51122  -0.50978  -0.50799  -0.50539
 Alpha  occ. eigenvalues --   -0.50487  -0.50277  -0.50252  -0.50073  -0.49915
 Alpha  occ. eigenvalues --   -0.49735  -0.49574  -0.49503  -0.49458  -0.49150
 Alpha  occ. eigenvalues --   -0.48992  -0.48654  -0.48471  -0.48344  -0.48252
 Alpha  occ. eigenvalues --   -0.48155  -0.48129  -0.47812  -0.47674  -0.47548
 Alpha  occ. eigenvalues --   -0.47337  -0.47201  -0.47148  -0.46993  -0.46965
 Alpha  occ. eigenvalues --   -0.46778  -0.46581  -0.46505  -0.46335  -0.46315
 Alpha  occ. eigenvalues --   -0.46171  -0.45853  -0.45746  -0.45632  -0.45534
 Alpha  occ. eigenvalues --   -0.45441  -0.45348  -0.45082  -0.45061  -0.44984
 Alpha  occ. eigenvalues --   -0.44811  -0.44627  -0.44620  -0.44352  -0.44322
 Alpha  occ. eigenvalues --   -0.43925  -0.43851  -0.43766  -0.43678  -0.43646
 Alpha  occ. eigenvalues --   -0.43333  -0.42746  -0.42696  -0.42610  -0.42245
 Alpha  occ. eigenvalues --   -0.42195  -0.42090  -0.41501  -0.41192  -0.41130
 Alpha  occ. eigenvalues --   -0.40491  -0.40215  -0.39746  -0.39673  -0.39469
 Alpha  occ. eigenvalues --   -0.39339  -0.39185  -0.39036  -0.38864  -0.38507
 Alpha  occ. eigenvalues --   -0.38221  -0.38031  -0.36837  -0.36320  -0.36239
 Alpha  occ. eigenvalues --   -0.36145  -0.35295  -0.34991  -0.34125  -0.33871
 Alpha  occ. eigenvalues --   -0.33117  -0.33089  -0.32834  -0.32761  -0.32542
 Alpha  occ. eigenvalues --   -0.32357  -0.31748  -0.31159  -0.26308  -0.25746
 Alpha  occ. eigenvalues --   -0.23164  -0.22839
 Alpha virt. eigenvalues --   -0.07195  -0.06958   0.00127   0.00548   0.02554
 Alpha virt. eigenvalues --    0.02558   0.04545   0.04686   0.05355   0.05563
 Alpha virt. eigenvalues --    0.06670   0.06990   0.07125   0.08001   0.08245

 Mulliken charges:
               1
     1  Mg   0.984983
     2  C   -0.043715
     3  C   -0.132249
     4  C   -0.102349
     5  C   -0.063342
     6  N   -0.377846
     7  C    0.011545
     8  C   -0.047017
     9  C   -0.123520
    10  C    0.121370
    11  C    0.014120
    12  C    0.011953
    13  C   -0.135605
    14  H    0.034015
    15  N   -0.504936
    16  C    0.212744
    17  C   -0.172246
    18  C   -0.054766
    19  C    0.149825
    20  C    0.105738
    21  C    0.008001
    22  O   -0.195536
    23  C   -0.027584
    24  N   -0.393487
    25  C    0.110501
    26  C   -0.081142
    27  C   -0.082603
    28  C    0.108143
    29  C    0.029362
    30  C   -0.045394
    31  C   -0.025562
    32  N   -0.385897
    33  C    0.093618
    34  C   -0.222904
    35  C    0.000669
    36  C    0.116442
    37  C    0.079617
    38  C    0.129080
    39  O   -0.222065
    40  C   -0.072261
    41  C    0.292415
    42  O   -0.279935
    43  O   -0.349452
    44  C    0.124599
    45  H   -0.017301
    46  H   -0.040247
    47  H   -0.012586
    48  H    0.028467
    49  H    0.044804
    50  H    0.027456
    51  H    0.042706
    52  H    0.043282
    53  H    0.040655
    54  H    0.048512
    55  H    0.069619
    56  H    0.033107
    57  H    0.061373
    58  H    0.010843
    59  H    0.062689
    60  H    0.058172
    61  H    0.066319
    62  H    0.068427
    63  H    0.046754
    64  H    0.038589
    65  H    0.041473
    66  H    0.031628
    67  H    0.038603
    68  H    0.030333
    69  H    0.021609
    70  H    0.036153
    71  H    0.030061
    72  H    0.033093
    73  H    0.030782
    74  H    0.066980
    75  H    0.060935
    76  H    0.055781
    77  H    0.061944
    78  H    0.085221
    79  H    0.056437
    80  Mg   0.964535
    81  C   -0.022360
    82  C   -0.067068
    83  C   -0.064377
    84  C   -0.108079
    85  N   -0.333421
    86  C    0.013969
    87  C   -0.076180
    88  C   -0.120568
    89  C    0.066960
    90  C    0.027519
    91  C   -0.000284
    92  C   -0.126828
    93  H    0.033503
    94  N   -0.460914
    95  C    0.133579
    96  C   -0.174017
    97  C   -0.090054
    98  C    0.138256
    99  C    0.086237
   100  C    0.051241
   101  O   -0.252270
   102  C   -0.016288
   103  N   -0.338900
   104  C    0.022128
   105  C   -0.061316
   106  C   -0.072442
   107  C    0.097028
   108  C    0.041954
   109  C   -0.059442
   110  C   -0.054486
   111  N   -0.488682
   112  C    0.148281
   113  C   -0.183936
   114  C   -0.008188
   115  C    0.148252
   116  C    0.079468
   117  C    0.095203
   118  O   -0.162830
   119  C   -0.097273
   120  C    0.245371
   121  O   -0.237084
   122  O   -0.309727
   123  C    0.141098
   124  H   -0.013117
   125  H    0.030980
   126  H    0.003420
   127  H    0.039499
   128  H    0.038825
   129  H    0.052342
   130  H    0.031994
   131  H    0.049155
   132  H    0.033450
   133  H    0.042724
   134  H    0.057237
   135  H    0.070352
   136  H    0.044709
   137  H    0.039556
   138  H    0.041349
   139  H    0.061807
   140  H    0.044594
   141  H    0.064024
   142  H    0.035212
   143  H    0.030362
   144  H    0.046247
   145  H    0.035077
   146  H    0.037395
   147  H    0.039017
   148  H    0.021517
   149  H    0.047802
   150  H    0.037363
   151  H    0.043627
   152  H    0.037716
   153  H    0.056895
   154  H    0.057429
   155  H    0.056346
   156  H    0.058146
   157  H    0.054760
   158  H    0.024622
 Sum of Mulliken charges =  -0.00000

 Dipole moment (field-independent basis, Debye):
    X=              0.7578    Y=             -1.8655    Z=              2.0674  Tot=              2.8859
 Quadrupole moment (field-independent basis, Debye-Ang):
   XX=           -520.4856   YY=           -501.4138   ZZ=           -543.0427
   XY=            -51.1431   XZ=              7.5280   YZ=              2.6376

 Normal termination of Gaussian 16 at Sun Sep 19 14:53:46 2021.
