 Gaussian 16, Revision A.03,
 Gaussian 16:  ES64L-G16RevA.03 25-Dec-2016

 --------------------------------
 #p wB97XD/Def2SVP td=(nstates=5)
 --------------------------------

 --------------------------------
 TDDFT excited states in gaussian
 --------------------------------
 Symbolic Z-matrix:
 Charge =  0 Multiplicity = 1

                         Standard orientation:
 ---------------------------------------------------------------------
 Center     Atomic      Atomic             Coordinates (Angstroms)
 Number     Number       Type             X           Y           Z
 ---------------------------------------------------------------------
      1         12           0      -20.894414   -0.652455   -0.280614
      2          6           0      -19.019737    2.350742    0.284507
      3          6           0      -23.765882    1.187594    0.229709
      4          6           0      -22.512565   -3.489019   -0.177180
      5          6           0      -17.858601   -2.304296   -0.536918
      6          7           0      -21.335667    1.535889    0.495103
      7          6           0      -20.390748    2.525812    0.512354
      8          6           0      -21.091426    3.908855    0.587460
      9          6           0      -22.633735    3.541995    0.632266
     10          6           0      -22.637693    1.978675    0.464994
     11          6           0      -23.457613    3.956530    1.923227
     12          6           0      -20.770211    4.876394   -0.582796
     13          6           0      -20.470074    6.294180   -0.248348
     14          1           0      -20.868200    6.968759    1.119726
     15          7           0      -22.918743   -1.138853    0.004008
     16          6           0      -23.993515   -0.252191    0.064802
     17          6           0      -25.238294   -1.024908    0.239526
     18          6           0      -24.872067   -2.405341    0.002255
     19          6           0      -23.391968   -2.399537   -0.058974
     20          6           0      -26.597592   -0.457434    0.516111
     21          6           0      -25.740840   -3.678566   -0.128026
     22          8           0      -25.359710   -4.757221   -0.629561
     23          6           0      -27.172828   -3.561962    0.209446
     24          7           0      -20.262056   -2.546455   -0.287395
     25          6           0      -21.176288   -3.569618   -0.164634
     26          6           0      -20.516146   -4.948337   -0.443525
     27          6           0      -19.068812   -4.492431   -0.927539
     28          6           0      -19.047976   -3.013411   -0.582583
     29          6           0      -20.485773   -6.013897    0.726915
     30          6           0      -18.727059   -4.715996   -2.392144
     31          6           0      -17.598894   -5.732307   -2.666777
     32          7           0      -18.853726   -0.105070   -0.350011
     33          6           0      -17.733714   -0.898410   -0.429527
     34          6           0      -16.524612   -0.073385   -0.308372
     35          6           0      -17.011204    1.202944   -0.087949
     36          6           0      -18.422298    1.141352   -0.118240
     37          6           0      -15.091701   -0.492539   -0.328008
     38          6           0      -16.567558    2.536404    0.106391
     39          8           0      -15.419652    3.063460    0.061149
     40          6           0      -17.791470    3.312273    0.353040
     41          6           0      -17.661695    4.093230    1.632753
     42          8           0      -17.663080    3.629930    2.721783
     43          8           0      -17.614667    5.398121    1.365329
     44          6           0      -17.187453    6.304515    2.376487
     45          1           0      -24.722092    1.690458    0.389604
     46          1           0      -22.919146   -4.502978   -0.205358
     47          1           0      -16.910450   -2.844500   -0.540805
     48          1           0      -20.757620    4.359738    1.522742
     49          1           0      -23.142273    3.972496   -0.229857
     50          1           0      -22.931470    4.603069    2.624995
     51          1           0      -23.647587    3.038063    2.480500
     52          1           0      -24.415638    4.393324    1.639643
     53          1           0      -21.587079    4.958672   -1.300726
     54          1           0      -19.894427    4.570350   -1.154296
     55          1           0      -20.986263    6.953306   -0.947005
     56          1           0      -19.396222    6.433155   -0.370257
     57          1           0      -27.010440   -0.926970    1.408703
     58          1           0      -27.218590   -0.723599   -0.339241
     59          1           0      -26.590608    0.632697    0.488982
     60          1           0      -27.240085   -3.310669    1.267995
     61          1           0      -27.577672   -4.567117    0.094214
     62          1           0      -27.709442   -2.925169   -0.493336
     63          1           0      -21.051940   -5.355805   -1.301438
     64          1           0      -18.349121   -5.051411   -0.329552
     65          1           0      -20.970976   -5.609422    1.614495
     66          1           0      -19.488330   -6.411036    0.919160
     67          1           0      -21.030940   -6.890011    0.375385
     68          1           0      -18.571807   -3.824217   -2.999538
     69          1           0      -19.609331   -5.159461   -2.852500
     70          1           0      -16.856081   -5.456189   -3.414901
     71          1           0      -18.059745   -6.573332   -3.185542
     72          1           0      -17.027250   -6.045711   -1.794264
     73          1           0      -14.950703   -1.484397   -0.758428
     74          1           0      -14.733795   -0.645099    0.690088
     75          1           0      -14.534591    0.336759   -0.763714
     76          1           0      -17.883032    3.996814   -0.489831
     77          1           0      -16.107664    6.175278    2.462771
     78          1           0      -17.577173    6.012834    3.351865
     79          1           0      -17.372255    7.338196    2.082959
     80         12           0       20.390708   -0.796345    0.329073
     81          6           0       19.436565    2.197701   -1.292732
     82          6           0       21.778857    1.106736    2.815115
     83          6           0       21.834789   -3.540209    1.492542
     84          6           0       19.355407   -2.552028   -2.516482
     85          7           0       20.724856    1.414131    0.629561
     86          6           0       20.133557    2.428109   -0.128697
     87          6           0       20.230013    3.776252    0.627246
     88          6           0       21.008061    3.398011    1.940263
     89          6           0       21.174046    1.855451    1.853998
     90          6           0       22.224790    4.236541    2.290896
     91          6           0       18.905311    4.504497    0.903056
     92          6           0       18.868484    5.966002    0.377954
     93          1           0       18.546154    7.021006    1.412867
     94          7           0       21.570975   -1.151758    1.997866
     95          6           0       22.079083   -0.259455    2.895664
     96          6           0       22.703392   -1.012815    3.957017
     97          6           0       22.858705   -2.392063    3.502927
     98          6           0       22.083411   -2.364577    2.272156
     99          6           0       23.373280   -0.305286    5.245886
    100          6           0       23.770420   -3.463782    3.921758
    101          8           0       23.827253   -4.581428    3.494100
    102          6           0       24.766291   -3.099996    5.018991
    103          7           0       20.737016   -2.743538   -0.542733
    104          6           0       21.313149   -3.717261    0.188795
    105          6           0       21.112696   -5.082388   -0.473450
    106          6           0       20.034381   -4.792384   -1.529795
    107          6           0       19.986817   -3.280728   -1.529503
    108          6           0       22.469057   -5.620335   -1.123471
    109          6           0       18.632366   -5.395215   -1.007801
    110          6           0       17.961525   -4.625028    0.162246
    111          7           0       19.447118   -0.380537   -1.519378
    112          6           0       19.092914   -1.186373   -2.533464
    113          6           0       18.481367   -0.379544   -3.555015
    114          6           0       18.551026    0.920984   -3.091978
    115          6           0       19.210901    0.908176   -1.860073
    116          6           0       17.897359   -0.804330   -4.888909
    117          6           0       18.229485    2.286690   -3.514777
    118          8           0       17.813645    2.851329   -4.487004
    119          6           0       18.716736    3.167839   -2.334287
    120          6           0       19.700732    4.110784   -2.921631
    121          8           0       20.650770    3.717353   -3.550593
    122          8           0       19.362146    5.443025   -2.747220
    123          6           0       20.136459    6.439385   -3.560516
    124          1           0       22.027931    1.707157    3.692699
    125          1           0       22.187791   -4.494601    1.889733
    126          1           0       18.816965   -3.029317   -3.337938
    127          1           0       20.899272    4.437066    0.075929
    128          1           0       20.366228    3.636084    2.788705
    129          1           0       22.567290    4.812028    1.432163
    130          1           0       23.055744    3.657709    2.694885
    131          1           0       21.876817    4.975257    3.012476
    132          1           0       18.599508    4.635393    1.941073
    133          1           0       18.069370    3.965616    0.457638
    134          1           0       18.247374    6.054707   -0.513307
    135          1           0       19.875977    6.220845    0.051619
    136          1           0       23.022201   -0.831510    6.133472
    137          1           0       23.104798    0.736277    5.418330
    138          1           0       24.458983   -0.220499    5.291763
    139          1           0       24.125277   -2.853872    5.865852
    140          1           0       25.297933   -2.231182    4.632181
    141          1           0       25.413791   -3.917839    5.336701
    142          1           0       20.694344   -5.834626    0.196138
    143          1           0       20.190113   -5.080302   -2.569720
    144          1           0       22.419220   -6.709254   -1.099681
    145          1           0       23.415479   -5.356928   -0.650027
    146          1           0       22.421127   -5.273224   -2.155497
    147          1           0       18.703022   -6.445920   -0.727187
    148          1           0       17.870075   -5.257829   -1.774827
    149          1           0       17.111154   -5.124600    0.625145
    150          1           0       17.597985   -3.677818   -0.236490
    151          1           0       18.733709   -4.419571    0.904327
    152          1           0       17.038986   -1.471304   -4.811925
    153          1           0       18.715250   -1.345584   -5.363794
    154          1           0       17.680869    0.040936   -5.542152
    155          1           0       17.818505    3.713262   -2.045364
    156          1           0       20.312367    7.183446   -2.783645
    157          1           0       19.550230    6.881192   -4.366059
    158          1           0       21.070322    6.149674   -4.041605
 ---------------------------------------------------------------------

 SCF Done:  E(RwB97XD) =  -4070.61534232     A.U. after   19 cycles

 Excitation energies and oscillator strengths:

 Excited State   1:      Singlet-A      1.6442 eV  754.07 nm  f=0.4096  <S**2>=0.000
     309 -> 316       -0.18140
     311 -> 313        0.68486
     309 <- 316       -0.11691
 This state for optimization and/or second-order correction.
 Total Energy, E(TD-HF/TD-DFT) =  -4070.55491907
 Copying the excited state density for this state as the 1-particle RhoCI density.

 Excited State   2:      Singlet-A      1.6708 eV  742.07 nm  f=0.4124  <S**2>=0.000
     310 -> 315        0.18111
     312 -> 314        0.68439
     310 <- 315        0.11410

 Excited State   3:      Singlet-A      2.1358 eV  580.50 nm  f=0.1328  <S**2>=0.000
     309 -> 313        0.65464
     311 -> 316        0.25214

 Excited State   4:      Singlet-A      2.1575 eV  574.66 nm  f=0.1270  <S**2>=0.000
     310 -> 314        0.64761
     312 -> 315       -0.26958

 Excited State   5:      Singlet-A      3.3972 eV  364.96 nm  f=0.0013  <S**2>=0.000
     305 -> 313        0.14171
     306 -> 313        0.57532
     307 -> 313       -0.34470

 The electronic state is 1-A.
 Alpha  occ. eigenvalues --  -46.95874 -46.95260 -19.30362 -19.30256 -19.24648
 Alpha  occ. eigenvalues --  -19.24624 -19.24203 -19.24200 -19.23526 -19.23401
 Alpha  occ. eigenvalues --  -14.46715 -14.46667 -14.46509 -14.46231 -14.44356
 Alpha  occ. eigenvalues --  -14.44344 -14.44110 -14.43813 -10.42924 -10.42631
 Alpha  occ. eigenvalues --  -10.39175 -10.38877 -10.38805 -10.38302 -10.35788
 Alpha  occ. eigenvalues --  -10.35571 -10.35557 -10.35265 -10.35088 -10.34947
 Alpha  occ. eigenvalues --  -10.34787 -10.34764 -10.34753 -10.34686 -10.34253
 Alpha  occ. eigenvalues --  -10.34130 -10.33971 -10.33806 -10.33669 -10.33483
 Alpha  occ. eigenvalues --  -10.33393 -10.33361 -10.33186 -10.33004 -10.32816
 Alpha  occ. eigenvalues --  -10.32815 -10.32559 -10.32370 -10.32317 -10.32310
 Alpha  occ. eigenvalues --  -10.32255 -10.32178 -10.32086 -10.32050 -10.32018
 Alpha  occ. eigenvalues --  -10.31933 -10.31905 -10.31616 -10.31573 -10.31535
 Alpha  occ. eigenvalues --  -10.31353 -10.31261 -10.31087 -10.31071 -10.30988
 Alpha  occ. eigenvalues --  -10.30872 -10.30800 -10.30729 -10.30669 -10.30565
 Alpha  occ. eigenvalues --  -10.30464 -10.30431 -10.30347 -10.30160 -10.30070
 Alpha  occ. eigenvalues --  -10.29818 -10.29799 -10.29766 -10.29747 -10.29454
 Alpha  occ. eigenvalues --  -10.29402 -10.29326 -10.29288 -10.29168 -10.29096
 Alpha  occ. eigenvalues --  -10.28918  -3.21738  -3.21280  -1.95305  -1.94872
 Alpha  occ. eigenvalues --   -1.94852  -1.94698  -1.94415  -1.94250  -1.20844
 Alpha  occ. eigenvalues --   -1.17838  -1.13916  -1.13268  -1.11944  -1.10463
 Alpha  occ. eigenvalues --   -1.10391  -1.09817  -1.07200  -1.06924  -1.06325
 Alpha  occ. eigenvalues --   -1.05861  -1.05818  -1.04521  -1.03999  -1.03782
 Alpha  occ. eigenvalues --   -0.95652  -0.94339  -0.91045  -0.90766  -0.90666
 Alpha  occ. eigenvalues --   -0.90420  -0.90256  -0.90145  -0.89751  -0.89667
 Alpha  occ. eigenvalues --   -0.88779  -0.88504  -0.88265  -0.88220  -0.86535
 Alpha  occ. eigenvalues --   -0.86331  -0.85411  -0.85386  -0.84530  -0.84386
 Alpha  occ. eigenvalues --   -0.83974  -0.83666  -0.83141  -0.82813  -0.82488
 Alpha  occ. eigenvalues --   -0.82106  -0.80317  -0.80259  -0.79679  -0.79346
 Alpha  occ. eigenvalues --   -0.79103  -0.78697  -0.78288  -0.78070  -0.77148
 Alpha  occ. eigenvalues --   -0.77131  -0.75204  -0.75094  -0.73739  -0.73484
 Alpha  occ. eigenvalues --   -0.71396  -0.71279  -0.71196  -0.70947  -0.70052
 Alpha  occ. eigenvalues --   -0.69448  -0.69230  -0.68220  -0.67862  -0.67413
 Alpha  occ. eigenvalues --   -0.67280  -0.67135  -0.66881  -0.66837  -0.66479
 Alpha  occ. eigenvalues --   -0.66445  -0.65046  -0.64278  -0.62410  -0.62325
 Alpha  occ. eigenvalues --   -0.61896  -0.61685  -0.61317  -0.61278  -0.61152
 Alpha  occ. eigenvalues --   -0.60724  -0.60204  -0.60092  -0.59748  -0.59531
 Alpha  occ. eigenvalues --   -0.58445  -0.58099  -0.57974  -0.57333  -0.57156
 Alpha  occ. eigenvalues --   -0.57145  -0.56908  -0.56583  -0.56104  -0.55715
 Alpha  occ. eigenvalues --   -0.55354  -0.55345  -0.55239  -0.54932  -0.54921
 Alpha  occ. eigenvalues --   -0.54681  -0.54597  -0.54366  -0.54325  -0.54058
 Alpha  occ. eigenvalues --   -0.53822  -0.53657  -0.53511  -0.53462  -0.53429
 Alpha  occ. eigenvalues --   -0.53207  -0.53047  -0.52673  -0.52040  -0.51991
 Alpha  occ. eigenvalues --   -0.51959  -0.51802  -0.51735  -0.51429  -0.51288
 Alpha  occ. eigenvalues --   -0.51274  -0.51226  -0.51019  -0.50967  -0.50707
 Alpha  occ. eigenvalues --   -0.50550  -0.50333  -0.50223  -0.50186  -0.50157
 Alpha  occ. eigenvalues --   -0.49864  -0.49628  -0.49524  -0.49400  -0.49349
 Alpha  occ. eigenvalues --   -0.48951  -0.48872  -0.48715  -0.48359  -0.48178
 Alpha  occ. eigenvalues --   -0.48083  -0.48058  -0.48036  -0.47996  -0.47812
 Alpha  occ. eigenvalues --   -0.47764  -0.47483  -0.47228  -0.47196  -0.47035
 Alpha  occ. eigenvalues --   -0.46761  -0.46513  -0.46468  -0.46433  -0.45986
 Alpha  occ. eigenvalues --   -0.45636  -0.45589  -0.45372  -0.45350  -0.45278
 Alpha  occ. eigenvalues --   -0.44984  -0.44911  -0.44833  -0.44599  -0.44529
 Alpha  occ. eigenvalues --   -0.44385  -0.44290  -0.44145  -0.44020  -0.43934
 Alpha  occ. eigenvalues --   -0.43845  -0.43561  -0.43415  -0.43360  -0.43291
 Alpha  occ. eigenvalues --   -0.43144  -0.42902  -0.42787  -0.42221  -0.42191
 Alpha  occ. eigenvalues --   -0.42006  -0.41636  -0.41582  -0.41039  -0.40975
 Alpha  occ. eigenvalues --   -0.40219  -0.40092  -0.40005  -0.39854  -0.39799
 Alpha  occ. eigenvalues --   -0.39140  -0.39107  -0.38582  -0.38345  -0.38264
 Alpha  occ. eigenvalues --   -0.38204  -0.37773  -0.36679  -0.36394  -0.36130
 Alpha  occ. eigenvalues --   -0.36030  -0.35638  -0.35170  -0.33820  -0.33729
 Alpha  occ. eigenvalues --   -0.33578  -0.33237  -0.32875  -0.32613  -0.32550
 Alpha  occ. eigenvalues --   -0.32366  -0.32210  -0.31602  -0.26095  -0.26056
 Alpha  occ. eigenvalues --   -0.23385  -0.23123
 Alpha virt. eigenvalues --   -0.07525  -0.07294   0.00439   0.00491   0.01839
 Alpha virt. eigenvalues --    0.02604   0.04112   0.04588   0.04810   0.05393
 Alpha virt. eigenvalues --    0.07565   0.07805   0.07922   0.08340   0.08471

 Mulliken charges:
               1
     1  Mg   0.968370
     2  C   -0.020879
     3  C   -0.037304
     4  C   -0.068948
     5  C   -0.100347
     6  N   -0.318739
     7  C   -0.004743
     8  C   -0.025606
     9  C   -0.108421
    10  C    0.038781
    11  C    0.011072
    12  C    0.007078
    13  C   -0.131908
    14  H    0.014325
    15  N   -0.444808
    16  C    0.109660
    17  C   -0.188496
    18  C   -0.082184
    19  C    0.150403
    20  C    0.090991
    21  C    0.056823
    22  O   -0.260071
    23  C   -0.010255
    24  N   -0.428876
    25  C    0.096528
    26  C   -0.123026
    27  C   -0.081931
    28  C    0.106230
    29  C    0.027985
    30  C    0.012426
    31  C   -0.064927
    32  N   -0.411605
    33  C    0.114036
    34  C   -0.170921
    35  C   -0.051492
    36  C    0.143810
    37  C    0.088513
    38  C    0.114976
    39  O   -0.251367
    40  C   -0.028917
    41  C    0.225576
    42  O   -0.205810
    43  O   -0.332358
    44  C    0.138719
    45  H   -0.013834
    46  H    0.020125
    47  H   -0.001533
    48  H    0.046113
    49  H    0.041931
    50  H    0.041062
    51  H    0.040358
    52  H    0.039998
    53  H    0.033346
    54  H    0.031235
    55  H    0.045775
    56  H    0.057643
    57  H    0.058226
    58  H    0.041369
    59  H    0.035346
    60  H    0.054166
    61  H    0.046930
    62  H    0.066262
    63  H    0.046354
    64  H    0.023285
    65  H    0.051617
    66  H    0.034825
    67  H    0.038268
    68  H    0.040950
    69  H    0.022567
    70  H    0.029656
    71  H    0.032297
    72  H    0.037071
    73  H    0.030952
    74  H    0.058204
    75  H    0.072590
    76  H    0.069296
    77  H    0.047661
    78  H    0.056351
    79  H    0.061173
    80  Mg   0.946096
    81  C   -0.040847
    82  C   -0.093288
    83  C   -0.065208
    84  C   -0.068607
    85  N   -0.371945
    86  C    0.009223
    87  C   -0.037807
    88  C   -0.103062
    89  C    0.075240
    90  C    0.021445
    91  C    0.015423
    92  C   -0.142032
    93  H    0.025760
    94  N   -0.445394
    95  C    0.174464
    96  C   -0.128378
    97  C   -0.081830
    98  C    0.149876
    99  C    0.018118
   100  C    0.023448
   101  O   -0.210418
   102  C   -0.006110
   103  N   -0.331135
   104  C    0.048398
   105  C   -0.089199
   106  C   -0.066634
   107  C    0.055970
   108  C    0.021696
   109  C   -0.041482
   110  C   -0.066468
   111  N   -0.411837
   112  C    0.080616
   113  C   -0.175904
   114  C   -0.085178
   115  C    0.178233
   116  C    0.073488
   117  C    0.147818
   118  O   -0.174260
   119  C   -0.066724
   120  C    0.252313
   121  O   -0.231242
   122  O   -0.382054
   123  C    0.126241
   124  H   -0.010005
   125  H    0.025883
   126  H   -0.003893
   127  H    0.040953
   128  H    0.033976
   129  H    0.030234
   130  H    0.043326
   131  H    0.031391
   132  H    0.042767
   133  H    0.033014
   134  H    0.067827
   135  H    0.036365
   136  H    0.048967
   137  H    0.027014
   138  H    0.053794
   139  H    0.041796
   140  H    0.056581
   141  H    0.049654
   142  H    0.042160
   143  H    0.039927
   144  H    0.039807
   145  H    0.057655
   146  H    0.036723
   147  H    0.045238
   148  H    0.027646
   149  H    0.048356
   150  H    0.041056
   151  H    0.039380
   152  H    0.051891
   153  H    0.041771
   154  H    0.060839
   155  H    0.062980
   156  H    0.052997
   157  H    0.061586
   158  H    0.073523
 Sum of Mulliken charges =  -0.00000

 Dipole moment (field-independent basis, Debye):
    X=             -3.1328    Y=              1.4380    Z=              1.6112  Tot=              3.8050
 Quadrupole moment (field-independent basis, Debye-Ang):
   XX=           -468.9693   YY=           -479.9129   ZZ=           -513.3300
   XY=            -19.6114   XZ=             86.1338   YZ=             22.3024

 Normal termination of Gaussian 16 at Mon Sep 20 10:38:46 2021.
