 Gaussian 16, Revision A.03,
 Gaussian 16:  ES64L-G16RevA.03 25-Dec-2016

 --------------------------------
 #p wB97XD/Def2SVP td=(nstates=5)
 --------------------------------

 --------------------------------
 TDDFT excited states in gaussian
 --------------------------------
 Symbolic Z-matrix:
 Charge =  0 Multiplicity = 1

                         Standard orientation:
 ---------------------------------------------------------------------
 Center     Atomic      Atomic             Coordinates (Angstroms)
 Number     Number       Type             X           Y           Z
 ---------------------------------------------------------------------
      1         12           0       -0.632366    0.021709    0.159067
      2          6           0        2.764476    0.189591    0.092891
      3          6           0       -0.529432   -3.414479    0.021577
      4          6           0       -4.015925    0.017847    0.048239
      5          6           0       -0.699868    3.538773   -0.183660
      6          7           0        0.953602   -1.440806   -0.157057
      7          6           0        2.237204   -1.141869    0.177684
      8          6           0        3.077797   -2.345156    0.440404
      9          6           0        1.989337   -3.501640    0.142369
     10          6           0        0.702683   -2.759106   -0.011593
     11          6           0        2.338513   -4.356516   -1.158897
     12          6           0        3.536791   -2.329711    1.972700
     13          6           0        4.789715   -3.128768    2.337805
     14          1           0        5.454068   -4.182857    1.417461
     15          7           0       -2.113467   -1.454997    0.150399
     16          6           0       -1.848734   -2.831888    0.069305
     17          6           0       -3.125957   -3.505987    0.037818
     18          6           0       -4.140930   -2.528357    0.075643
     19          6           0       -3.415148   -1.267475    0.143722
     20          6           0       -3.215266   -5.049948    0.032935
     21          6           0       -5.738090   -2.758086   -0.038043
     22          8           0       -6.558489   -1.850249    0.147006
     23          6           0       -6.389760   -4.097118   -0.341448
     24          7           0       -2.155844    1.622039    0.025106
     25          6           0       -3.471817    1.308201   -0.040538
     26          6           0       -4.316993    2.522709   -0.421039
     27          6           0       -3.263134    3.747615   -0.165173
     28          6           0       -1.947989    2.972423    0.011144
     29          6           0       -5.036066    2.461345   -1.845745
     30          6           0       -3.457018    4.589634    1.196069
     31          6           0       -3.482458    6.106279    1.148222
     32          7           0        0.701935    1.623949    0.035331
     33          6           0        0.560403    2.953194   -0.109210
     34          6           0        1.901463    3.614844   -0.050989
     35          6           0        2.777907    2.512415    0.086722
     36          6           0        1.980897    1.344609    0.003299
     37          6           0        2.283420    5.052604   -0.073574
     38          6           0        4.159292    2.233999    0.213629
     39          8           0        5.137763    3.007758    0.256805
     40          6           0        4.219795    0.708607    0.219535
     41          6           0        5.013430    0.269145   -0.905274
     42          8           0        4.905372    0.494488   -2.070034
     43          8           0        5.945950   -0.628308   -0.393578
     44          6           0        6.930736   -1.361324   -1.278032
     45          1           0       -0.576771   -4.489454    0.205573
     46          1           0       -5.100063    0.006040   -0.084612
     47          1           0       -0.635983    4.587302   -0.479896
     48          1           0        3.985165   -2.543854   -0.129605
     49          1           0        1.910080   -4.196136    0.978705
     50          1           0        2.090220   -5.416595   -1.112555
     51          1           0        3.372901   -4.164800   -1.443768
     52          1           0        1.723639   -3.951236   -1.963161
     53          1           0        2.740375   -2.675439    2.631999
     54          1           0        3.712112   -1.278759    2.204012
     55          1           0        4.561193   -3.608667    3.290265
     56          1           0        5.584033   -2.427975    2.591970
     57          1           0       -2.252607   -5.555317    0.109203
     58          1           0       -3.734624   -5.327146   -0.883817
     59          1           0       -3.860019   -5.333931    0.864969
     60          1           0       -6.205701   -4.695693    0.549935
     61          1           0       -5.823633   -4.682856   -1.065955
     62          1           0       -7.393855   -3.950780   -0.739016
     63          1           0       -5.103279    2.623929    0.327984
     64          1           0       -3.274232    4.451706   -0.997409
     65          1           0       -4.732854    3.295611   -2.478771
     66          1           0       -6.118015    2.455494   -1.718646
     67          1           0       -4.725696    1.571867   -2.394534
     68          1           0       -2.747418    4.285394    1.965349
     69          1           0       -4.407092    4.262274    1.617241
     70          1           0       -2.695872    6.448586    1.819784
     71          1           0       -4.452366    6.524789    1.415540
     72          1           0       -3.187962    6.446569    0.154473
     73          1           0        1.446056    5.750206   -0.071639
     74          1           0        2.868843    5.285345   -0.963453
     75          1           0        2.895999    5.257224    0.804252
     76          1           0        4.661838    0.317266    1.136269
     77          1           0        6.751905   -1.120350   -2.326135
     78          1           0        6.778273   -2.437066   -1.180951
     79          1           0        7.915734   -1.030445   -0.948903
 ---------------------------------------------------------------------

 SCF Done:  E(RwB97XD) =  -2035.30340635     A.U. after   19 cycles

 Excitation energies and oscillator strengths:

 Excited State   1:      Singlet-A      1.6817 eV  737.26 nm  f=0.3937  <S**2>=0.000
     155 ->158         0.19785
     156 ->157         0.68062
     155 <-158         0.11937
 This state for optimization and/or second-order correction.
 Total Energy, E(TD-HF/TD-DFT) =  -2035.24160511
 Copying the excited state density for this state as the 1-particle RhoCI density.

 Excited State   2:      Singlet-A      2.1739 eV  570.32 nm  f=0.0990  <S**2>=0.000
     155 ->157         0.63663
     156 ->158        -0.29866

 Excited State   3:      Singlet-A      3.4503 eV  359.34 nm  f=0.0015  <S**2>=0.000
     150 ->157         0.21162
     150 ->159        -0.15766
     151 ->157         0.34914
     151 ->159        -0.29351
     151 ->160         0.12434
     153 ->157         0.31580
     153 ->159        -0.15667
     154 ->157        -0.20803

 Excited State   4:      Singlet-A      3.5430 eV  349.94 nm  f=0.5801  <S**2>=0.000
     151 ->157        -0.19142
     153 ->157         0.15549
     155 ->157         0.26075
     156 ->158         0.59587
     155 <-157        -0.11217

 Excited State   5:      Singlet-A      3.5987 eV  344.52 nm  f=0.0172  <S**2>=0.000
     151 ->157         0.16277
     151 ->159        -0.10771
     154 ->157         0.64575

 The electronic state is 1-A.
 Alpha  occ. eigenvalues --  -46.95735 -19.28937 -19.24530 -19.24211 -19.23904
 Alpha  occ. eigenvalues --  -14.47049 -14.46282 -14.44130 -14.43985 -10.42489
 Alpha  occ. eigenvalues --  -10.40221 -10.38535 -10.35800 -10.35666 -10.34675
 Alpha  occ. eigenvalues --  -10.34666 -10.34212 -10.34043 -10.33893 -10.33727
 Alpha  occ. eigenvalues --  -10.33064 -10.32993 -10.32801 -10.32388 -10.32345
 Alpha  occ. eigenvalues --  -10.32333 -10.32291 -10.32026 -10.32018 -10.31867
 Alpha  occ. eigenvalues --  -10.31601 -10.31433 -10.31406 -10.31316 -10.30521
 Alpha  occ. eigenvalues --  -10.30473 -10.30122 -10.30049 -10.30028 -10.29960
 Alpha  occ. eigenvalues --  -10.29918 -10.29167 -10.28839  -3.21591  -1.95200
 Alpha  occ. eigenvalues --   -1.94694  -1.94573  -1.17791  -1.11720  -1.10599
 Alpha  occ. eigenvalues --   -1.09421  -1.07625  -1.06474  -1.05589  -1.04651
 Alpha  occ. eigenvalues --   -0.95517  -0.90544  -0.90133  -0.89436  -0.88993
 Alpha  occ. eigenvalues --   -0.88795  -0.88162  -0.86278  -0.85356  -0.84253
 Alpha  occ. eigenvalues --   -0.83522  -0.83132  -0.82271  -0.80373  -0.79406
 Alpha  occ. eigenvalues --   -0.79063  -0.78129  -0.77108  -0.74609  -0.73960
 Alpha  occ. eigenvalues --   -0.71281  -0.70567  -0.70163  -0.67965  -0.67253
 Alpha  occ. eigenvalues --   -0.67167  -0.66516  -0.66250  -0.63840  -0.62467
 Alpha  occ. eigenvalues --   -0.61891  -0.61179  -0.60804  -0.60440  -0.59741
 Alpha  occ. eigenvalues --   -0.58020  -0.57514  -0.57239  -0.56146  -0.55706
 Alpha  occ. eigenvalues --   -0.54960  -0.54900  -0.54707  -0.54113  -0.54081
 Alpha  occ. eigenvalues --   -0.53596  -0.53555  -0.53351  -0.52763  -0.52483
 Alpha  occ. eigenvalues --   -0.51729  -0.51610  -0.51370  -0.51069  -0.50819
 Alpha  occ. eigenvalues --   -0.50245  -0.50094  -0.49886  -0.49553  -0.49244
 Alpha  occ. eigenvalues --   -0.48874  -0.48503  -0.48397  -0.48148  -0.48090
 Alpha  occ. eigenvalues --   -0.47517  -0.47135  -0.46639  -0.46272  -0.46235
 Alpha  occ. eigenvalues --   -0.45908  -0.45830  -0.45653  -0.45073  -0.44591
 Alpha  occ. eigenvalues --   -0.44322  -0.43680  -0.43568  -0.43301  -0.43068
 Alpha  occ. eigenvalues --   -0.42925  -0.42755  -0.42108  -0.41654  -0.41343
 Alpha  occ. eigenvalues --   -0.40325  -0.39747  -0.39529  -0.38767  -0.38573
 Alpha  occ. eigenvalues --   -0.38122  -0.36468  -0.36228  -0.35409  -0.33389
 Alpha  occ. eigenvalues --   -0.33137  -0.33021  -0.32365  -0.32230  -0.25754
 Alpha  occ. eigenvalues --   -0.22940
 Alpha virt. eigenvalues --   -0.06865   0.00189   0.02038   0.04439   0.05821
 Alpha virt. eigenvalues --    0.07317   0.08009   0.08365   0.09455   0.10054
 Alpha virt. eigenvalues --    0.11341   0.12231   0.12857   0.12994   0.13551

 Mulliken charges:
               1
     1  Mg   0.950936
     2  C   -0.080405
     3  C   -0.065171
     4  C   -0.054626
     5  C   -0.099754
     6  N   -0.357829
     7  C    0.029561
     8  C   -0.079608
     9  C   -0.109814
    10  C    0.090116
    11  C    0.022793
    12  C   -0.013512
    13  C   -0.098896
    14  H    0.035616
    15  N   -0.438708
    16  C    0.108674
    17  C   -0.179296
    18  C   -0.083520
    19  C    0.122288
    20  C    0.062332
    21  C    0.075993
    22  O   -0.249651
    23  C    0.010422
    24  N   -0.332225
    25  C    0.030979
    26  C   -0.062601
    27  C   -0.122866
    28  C    0.110995
    29  C    0.017307
    30  C   -0.023495
    31  C   -0.037695
    32  N   -0.390474
    33  C    0.092605
    34  C   -0.157206
    35  C   -0.058440
    36  C    0.195028
    37  C    0.082406
    38  C    0.129106
    39  O   -0.229545
    40  C   -0.055304
    41  C    0.260499
    42  O   -0.202721
    43  O   -0.416631
    44  C    0.130297
    45  H   -0.007802
    46  H    0.015255
    47  H    0.000046
    48  H    0.042287
    49  H    0.032264
    50  H    0.044447
    51  H    0.032996
    52  H    0.038534
    53  H    0.033241
    54  H    0.032471
    55  H    0.043005
    56  H    0.053459
    57  H    0.042701
    58  H    0.051436
    59  H    0.048476
    60  H    0.054875
    61  H    0.026348
    62  H    0.075591
    63  H    0.037488
    64  H    0.035309
    65  H    0.033689
    66  H    0.050455
    67  H    0.045475
    68  H    0.038399
    69  H    0.020850
    70  H    0.037101
    71  H    0.048343
    72  H    0.024426
    73  H    0.023622
    74  H    0.065354
    75  H    0.063740
    76  H    0.069632
    77  H    0.065956
    78  H    0.053349
    79  H    0.069227
 Sum of Mulliken charges =  -0.00000

 Dipole moment (field-independent basis, Debye):
    X=             -1.3210    Y=             -3.5644    Z=              1.2592  Tot=              4.0044
 Quadrupole moment (field-independent basis, Debye-Ang):
   XX=           -274.2785   YY=           -223.7142   ZZ=           -256.4036
   XY=            -24.7065   XZ=              8.5195   YZ=              1.4384

 Normal termination of Gaussian 16 at Sun Sep 19 13:37:53 2021.
