 Gaussian 16, Revision A.03,
 Gaussian 16:  ES64L-G16RevA.03 25-Dec-2016

 --------------------------------
 #p wB97XD/Def2SVP td=(nstates=5)
 --------------------------------

 --------------------------------
 TDDFT excited states in gaussian
 --------------------------------
 Symbolic Z-matrix:
 Charge =  0 Multiplicity = 1

                         Standard orientation:
 ---------------------------------------------------------------------
 Center     Atomic      Atomic             Coordinates (Angstroms)
 Number     Number       Type             X           Y           Z
 ---------------------------------------------------------------------
      1         12           0      -16.270695    0.597152    0.230734
      2          6           0      -15.856760   -2.237254   -1.666269
      3          6           0      -13.892028    2.216380   -1.862031
      4          6           0      -16.155006    3.271407    2.295835
      5          6           0      -18.252892   -1.031210    2.391747
      6          7           0      -15.013922    0.036577   -1.564377
      7          6           0      -15.032279   -1.208736   -2.132903
      8          6           0      -14.166619   -1.250354   -3.394188
      9          6           0      -13.410516    0.153227   -3.281802
     10          6           0      -14.137745    0.853732   -2.171579
     11          6           0      -11.853404    0.033279   -3.095490
     12          6           0      -15.007689   -1.382070   -4.745125
     13          6           0      -14.605815   -2.308521   -5.867433
     14          1           0      -13.185898   -2.309097   -6.310599
     15          7           0      -15.215411    2.536795    0.218939
     16          6           0      -14.463326    3.053638   -0.777522
     17          6           0      -14.162273    4.426490   -0.544940
     18          6           0      -14.843398    4.782119    0.661807
     19          6           0      -15.382784    3.472877    1.136451
     20          6           0      -13.250081    5.130714   -1.496777
     21          6           0      -14.816588    6.100430    1.416305
     22          8           0      -15.211637    6.203693    2.581789
     23          6           0      -14.272292    7.352056    0.750420
     24          7           0      -16.977143    1.020284    2.194882
     25          6           0      -16.903901    2.250233    2.768363
     26          6           0      -17.767336    2.311326    4.027242
     27          6           0      -18.577526    0.962388    3.939302
     28          6           0      -17.909449    0.268090    2.768925
     29          6           0      -17.141203    2.602792    5.423021
     30          6           0      -20.155116    1.082864    3.833925
     31          6           0      -20.833707    1.107916    2.480694
     32          7           0      -16.856420   -1.252188    0.429269
     33          6           0      -17.788957   -1.812439    1.264955
     34          6           0      -17.996707   -3.195002    1.031320
     35          6           0      -17.293634   -3.407448   -0.150385
     36          6           0      -16.639623   -2.193826   -0.485017
     37          6           0      -18.845769   -4.253733    1.722785
     38          6           0      -16.929184   -4.343825   -1.121214
     39          8           0      -17.210159   -5.527284   -1.168409
     40          6           0      -15.922643   -3.655481   -2.203707
     41          6           0      -14.660909   -4.384523   -2.166614
     42          8           0      -13.876113   -4.439994   -1.199142
     43          8           0      -14.404782   -5.080828   -3.305652
     44          6           0      -13.347627   -6.098170   -3.291702
     45          1           0      -13.221792    2.630500   -2.617678
     46          1           0      -16.364016    4.202654    2.826058
     47          1           0      -19.148435   -1.470874    2.834113
     48          1           0      -13.542524   -2.143947   -3.352603
     49          1           0      -13.501050    0.728332   -4.203455
     50          1           0      -11.380601    0.546576   -3.932095
     51          1           0      -11.670199   -1.038118   -3.012147
     52          1           0      -11.442704    0.575035   -2.242936
     53          1           0      -14.980564   -0.354759   -5.108864
     54          1           0      -16.072510   -1.475253   -4.534271
     55          1           0      -15.284814   -2.187338   -6.711427
     56          1           0      -14.720535   -3.314380   -5.465084
     57          1           0      -13.732922    6.088827   -1.685600
     58          1           0      -13.214085    4.611231   -2.454670
     59          1           0      -12.225312    5.286723   -1.157994
     60          1           0      -14.587410    7.476446   -0.286017
     61          1           0      -13.205551    7.443587    0.959389
     62          1           0      -14.753699    8.168467    1.289620
     63          1           0      -18.365201    3.209091    3.868696
     64          1           0      -18.528423    0.380353    4.858821
     65          1           0      -17.163721    1.705692    6.041565
     66          1           0      -17.769579    3.364576    5.884162
     67          1           0      -16.128892    2.952649    5.223722
     68          1           0      -20.428010    2.000248    4.353721
     69          1           0      -20.623382    0.252090    4.362275
     70          1           0      -21.505391    1.960693    2.379357
     71          1           0      -21.400569    0.202586    2.259529
     72          1           0      -20.016979    1.186350    1.763103
     73          1           0      -19.402141   -3.787662    2.536910
     74          1           0      -18.196243   -5.048190    2.091146
     75          1           0      -19.536215   -4.673495    0.991763
     76          1           0      -16.447502   -3.894348   -3.129130
     77          1           0      -13.462029   -6.868305   -4.054653
     78          1           0      -13.125961   -6.532739   -2.317426
     79          1           0      -12.461579   -5.582648   -3.662511
     80         12           0       16.112916    0.437082   -0.670084
     81          6           0       15.375426   -2.798700    0.830174
     82          6           0       12.726782    0.871162   -1.037834
     83          6           0       16.607906    3.743682   -0.608526
     84          6           0       19.431213   -0.223242   -0.355089
     85          7           0       14.252785   -0.781341    0.038694
     86          6           0       14.210395   -2.122040    0.566576
     87          6           0       12.764545   -2.626222    0.556826
     88          6           0       12.010585   -1.623304   -0.365423
     89          6           0       13.022383   -0.403366   -0.513445
     90          6           0       11.645611   -2.224128   -1.804691
     91          6           0       12.136003   -2.936410    1.883885
     92          6           0       12.811095   -2.353300    3.147737
     93          1           0       12.313343   -2.476994    4.599425
     94          7           0       14.838157    2.104299   -0.947137
     95          6           0       13.466163    2.061338   -1.061023
     96          6           0       12.980008    3.448701   -1.339578
     97          6           0       14.092604    4.249496   -1.094574
     98          6           0       15.257138    3.413459   -0.812653
     99          6           0       11.549029    3.709360   -1.651861
    100          6           0       14.076845    5.805855   -1.107677
    101          8           0       13.003754    6.362345   -1.258936
    102          6           0       15.255325    6.668836   -0.799655
    103          7           0       17.808659    1.546607   -0.340797
    104          6           0       17.736950    2.927633   -0.519752
    105          6           0       19.131403    3.554014   -0.513981
    106          6           0       20.066448    2.310583   -0.737224
    107          6           0       19.075116    1.166154   -0.514793
    108          6           0       19.434950    4.693315   -1.520729
    109          6           0       21.336663    2.233249    0.169220
    110          6           0       22.728572    2.540622   -0.550801
    111          7           0       17.238402   -1.196860    0.000963
    112          6           0       18.618575   -1.336372   -0.014159
    113          6           0       18.957662   -2.697899    0.319649
    114          6           0       17.723583   -3.228916    0.718695
    115          6           0       16.716882   -2.262564    0.473756
    116          6           0       20.399963   -3.230939    0.371198
    117          6           0       17.051875   -4.400887    1.190396
    118          8           0       17.598635   -5.498053    1.422109
    119          6           0       15.465916   -4.255628    1.162335
    120          6           0       15.036756   -4.669299    2.513197
    121          8           0       15.504427   -4.279843    3.588425
    122          8           0       13.948677   -5.460252    2.346007
    123          6           0       13.443496   -6.160394    3.568413
    124          1           0       11.649320    1.014536   -1.137981
    125          1           0       16.755187    4.825933   -0.604319
    126          1           0       20.499796   -0.444613   -0.384091
    127          1           0       12.945244   -3.548310    0.004319
    128          1           0       11.154523   -1.157114    0.122674
    129          1           0       10.557984   -2.279030   -1.780547
    130          1           0       12.146925   -3.183534   -1.934695
    131          1           0       11.964677   -1.469662   -2.524653
    132          1           0       12.022737   -4.019872    1.916290
    133          1           0       11.140816   -2.514632    1.739205
    134          1           0       12.905393   -1.286820    2.940790
    135          1           0       13.813294   -2.769950    3.250209
    136          1           0       11.150429    4.247723   -0.792482
    137          1           0       11.055287    2.750303   -1.805543
    138          1           0       11.478832    4.258347   -2.591551
    139          1           0       15.670690    6.633318    0.206756
    140          1           0       15.023846    7.732032   -0.856856
    141          1           0       15.925818    6.381683   -1.609525
    142          1           0       19.105803    3.923814    0.511707
    143          1           0       20.313215    2.344285   -1.798621
    144          1           0       19.384782    5.689123   -1.079164
    145          1           0       18.678561    4.696818   -2.304854
    146          1           0       20.403275    4.477942   -1.973780
    147          1           0       21.457630    1.283580    0.691118
    148          1           0       21.132123    2.949276    0.965289
    149          1           0       23.219364    3.184487    0.178606
    150          1           0       22.647448    3.042584   -1.515053
    151          1           0       23.188069    1.576789   -0.766947
    152          1           0       20.511696   -4.293965    0.156535
    153          1           0       20.641577   -3.056522    1.419114
    154          1           0       20.997677   -2.776120   -0.418422
    155          1           0       15.061891   -4.886656    0.369346
    156          1           0       12.567872   -6.754893    3.305439
    157          1           0       13.138683   -5.446825    4.334161
    158          1           0       14.303298   -6.766205    3.851005
 ---------------------------------------------------------------------

 SCF Done:  E(RwB97XD) =  -4070.59907975     A.U. after   19 cycles

 Excitation energies and oscillator strengths:

 Excited State   1:      Singlet-A      1.6103 eV  769.96 nm  f=0.3507  <S**2>=0.000
     309 -> 315       -0.16141
     312 -> 314        0.68830
     309 <- 315       -0.10995
 This state for optimization and/or second-order correction.
 Total Energy, E(TD-HF/TD-DFT) =  -4070.53990338
 Copying the excited state density for this state as the 1-particle RhoCI density.

 Excited State   2:      Singlet-A      1.6606 eV  746.63 nm  f=0.4216  <S**2>=0.000
     310 -> 316       -0.18403
     311 -> 313        0.68405
     310 <- 316       -0.11631

 Excited State   3:      Singlet-A      2.1344 eV  580.89 nm  f=0.1703  <S**2>=0.000
     310 -> 313        0.66026
     311 -> 316        0.24164

 Excited State   4:      Singlet-A      2.2275 eV  556.60 nm  f=0.0763  <S**2>=0.000
     309 -> 314        0.61813
     312 -> 315        0.32521

 Excited State   5:      Singlet-A      3.6682 eV  338.00 nm  f=0.0000  <S**2>=0.000
     312 -> 313        0.70708

 The electronic state is 1-A.
 Alpha  occ. eigenvalues --  -46.95653 -46.95459 -19.30550 -19.30296 -19.24337
 Alpha  occ. eigenvalues --  -19.24145 -19.23940 -19.23663 -19.23494 -19.22088
 Alpha  occ. eigenvalues --  -14.47068 -14.46723 -14.46191 -14.46131 -14.44362
 Alpha  occ. eigenvalues --  -14.44176 -14.44102 -14.43261 -10.42950 -10.42794
 Alpha  occ. eigenvalues --  -10.39527 -10.39370 -10.38549 -10.37519 -10.36057
 Alpha  occ. eigenvalues --  -10.35848 -10.35744 -10.35379 -10.35096 -10.35007
 Alpha  occ. eigenvalues --  -10.34962 -10.34948 -10.34912 -10.34522 -10.34416
 Alpha  occ. eigenvalues --  -10.34161 -10.34140 -10.34132 -10.33901 -10.33062
 Alpha  occ. eigenvalues --  -10.33006 -10.32950 -10.32800 -10.32556 -10.32550
 Alpha  occ. eigenvalues --  -10.32542 -10.32539 -10.32448 -10.32394 -10.32332
 Alpha  occ. eigenvalues --  -10.32128 -10.32104 -10.32063 -10.31960 -10.31873
 Alpha  occ. eigenvalues --  -10.31853 -10.31795 -10.31676 -10.31667 -10.31612
 Alpha  occ. eigenvalues --  -10.31557 -10.31540 -10.31390 -10.31366 -10.31275
 Alpha  occ. eigenvalues --  -10.31221 -10.31109 -10.30873 -10.30828 -10.30823
 Alpha  occ. eigenvalues --  -10.30790 -10.30706 -10.30662 -10.30301 -10.30238
 Alpha  occ. eigenvalues --  -10.30218 -10.30162 -10.30072 -10.29946 -10.29879
 Alpha  occ. eigenvalues --  -10.29863 -10.29575 -10.29254 -10.28849 -10.28652
 Alpha  occ. eigenvalues --  -10.27940  -3.21593  -3.21510  -1.95150  -1.95083
 Alpha  occ. eigenvalues --   -1.94736  -1.94597  -1.94542  -1.94524  -1.18215
 Alpha  occ. eigenvalues --   -1.18044  -1.12955  -1.12138  -1.11705  -1.09627
 Alpha  occ. eigenvalues --   -1.08846  -1.08039  -1.07413  -1.06826  -1.06709
 Alpha  occ. eigenvalues --   -1.06175  -1.06029  -1.05521  -1.04923  -1.02347
 Alpha  occ. eigenvalues --   -0.94601  -0.93873  -0.91259  -0.90963  -0.90880
 Alpha  occ. eigenvalues --   -0.90494  -0.90120  -0.90074  -0.89738  -0.89381
 Alpha  occ. eigenvalues --   -0.88799  -0.88643  -0.88384  -0.87995  -0.86288
 Alpha  occ. eigenvalues --   -0.86231  -0.85670  -0.85593  -0.84665  -0.84580
 Alpha  occ. eigenvalues --   -0.84255  -0.83786  -0.83125  -0.82907  -0.82292
 Alpha  occ. eigenvalues --   -0.82110  -0.80368  -0.80023  -0.79655  -0.79417
 Alpha  occ. eigenvalues --   -0.79048  -0.78413  -0.78176  -0.77916  -0.77443
 Alpha  occ. eigenvalues --   -0.77186  -0.75547  -0.74997  -0.73683  -0.73537
 Alpha  occ. eigenvalues --   -0.71559  -0.71558  -0.71226  -0.70960  -0.70108
 Alpha  occ. eigenvalues --   -0.69558  -0.69138  -0.68917  -0.68139  -0.67572
 Alpha  occ. eigenvalues --   -0.67371  -0.67120  -0.66738  -0.66677  -0.66218
 Alpha  occ. eigenvalues --   -0.65509  -0.64250  -0.64102  -0.62215  -0.61818
 Alpha  occ. eigenvalues --   -0.61665  -0.61114  -0.61076  -0.61024  -0.60286
 Alpha  occ. eigenvalues --   -0.59926  -0.59893  -0.59523  -0.59288  -0.59186
 Alpha  occ. eigenvalues --   -0.58759  -0.58250  -0.58150  -0.57345  -0.57093
 Alpha  occ. eigenvalues --   -0.57010  -0.56788  -0.56524  -0.56174  -0.56004
 Alpha  occ. eigenvalues --   -0.55623  -0.55441  -0.55241  -0.55105  -0.54757
 Alpha  occ. eigenvalues --   -0.54743  -0.54515  -0.54494  -0.54242  -0.54182
 Alpha  occ. eigenvalues --   -0.54031  -0.53731  -0.53412  -0.53375  -0.53142
 Alpha  occ. eigenvalues --   -0.52983  -0.52697  -0.52573  -0.52537  -0.52207
 Alpha  occ. eigenvalues --   -0.51894  -0.51811  -0.51545  -0.51529  -0.51474
 Alpha  occ. eigenvalues --   -0.51177  -0.51021  -0.50835  -0.50744  -0.50710
 Alpha  occ. eigenvalues --   -0.50682  -0.50515  -0.50254  -0.50179  -0.50067
 Alpha  occ. eigenvalues --   -0.49789  -0.49695  -0.49560  -0.49512  -0.49118
 Alpha  occ. eigenvalues --   -0.49106  -0.48854  -0.48809  -0.48782  -0.48473
 Alpha  occ. eigenvalues --   -0.48439  -0.48142  -0.48106  -0.47896  -0.47814
 Alpha  occ. eigenvalues --   -0.47659  -0.47411  -0.47246  -0.47112  -0.46968
 Alpha  occ. eigenvalues --   -0.46884  -0.46468  -0.46327  -0.45929  -0.45870
 Alpha  occ. eigenvalues --   -0.45841  -0.45838  -0.45563  -0.45398  -0.45306
 Alpha  occ. eigenvalues --   -0.45302  -0.45180  -0.44938  -0.44869  -0.44647
 Alpha  occ. eigenvalues --   -0.44485  -0.44232  -0.44200  -0.44057  -0.43917
 Alpha  occ. eigenvalues --   -0.43904  -0.43803  -0.43672  -0.43469  -0.43243
 Alpha  occ. eigenvalues --   -0.43046  -0.42957  -0.42775  -0.42506  -0.41933
 Alpha  occ. eigenvalues --   -0.41820  -0.41766  -0.41468  -0.41242  -0.40993
 Alpha  occ. eigenvalues --   -0.40439  -0.40420  -0.40160  -0.39353  -0.39289
 Alpha  occ. eigenvalues --   -0.39233  -0.38671  -0.38554  -0.38281  -0.38055
 Alpha  occ. eigenvalues --   -0.37788  -0.37692  -0.36558  -0.36305  -0.35810
 Alpha  occ. eigenvalues --   -0.35432  -0.35093  -0.34919  -0.33743  -0.33548
 Alpha  occ. eigenvalues --   -0.33257  -0.33169  -0.33042  -0.32461  -0.32321
 Alpha  occ. eigenvalues --   -0.32266  -0.31541  -0.31143  -0.26395  -0.25757
 Alpha  occ. eigenvalues --   -0.23285  -0.22576
 Alpha virt. eigenvalues --   -0.07471  -0.06919   0.00132   0.00717   0.02302
 Alpha virt. eigenvalues --    0.03148   0.04473   0.04547   0.04641   0.04930
 Alpha virt. eigenvalues --    0.06859   0.07090   0.07776   0.08544   0.08835

 Mulliken charges:
               1
     1  Mg   0.974423
     2  C   -0.004412
     3  C   -0.064933
     4  C   -0.065461
     5  C   -0.074844
     6  N   -0.330478
     7  C    0.000588
     8  C   -0.084423
     9  C   -0.117748
    10  C    0.051429
    11  C    0.025243
    12  C    0.010956
    13  C   -0.102346
    14  H    0.032667
    15  N   -0.356436
    16  C    0.129143
    17  C   -0.163825
    18  C   -0.075535
    19  C    0.100050
    20  C    0.082238
    21  C    0.043282
    22  O   -0.246865
    23  C   -0.017050
    24  N   -0.351475
    25  C    0.050111
    26  C   -0.080554
    27  C   -0.041573
    28  C    0.061563
    29  C    0.035319
    30  C   -0.057994
    31  C   -0.043056
    32  N   -0.478614
    33  C    0.099405
    34  C   -0.189152
    35  C    0.040949
    36  C    0.138178
    37  C    0.096939
    38  C    0.037801
    39  O   -0.207913
    40  C   -0.055945
    41  C    0.260102
    42  O   -0.281288
    43  O   -0.359724
    44  C    0.146666
    45  H   -0.010903
    46  H    0.017302
    47  H   -0.000386
    48  H    0.048969
    49  H    0.042613
    50  H    0.031607
    51  H    0.050390
    52  H    0.040577
    53  H    0.012372
    54  H    0.032290
    55  H    0.056015
    56  H    0.054317
    57  H    0.030629
    58  H    0.036808
    59  H    0.063555
    60  H    0.053800
    61  H    0.071516
    62  H    0.050445
    63  H    0.036355
    64  H    0.036910
    65  H    0.036533
    66  H    0.040373
    67  H    0.051431
    68  H    0.029712
    69  H    0.029363
    70  H    0.038464
    71  H    0.037288
    72  H    0.035885
    73  H    0.026419
    74  H    0.066838
    75  H    0.060969
    76  H    0.060660
    77  H    0.053399
    78  H    0.075497
    79  H    0.036585
    80  Mg   0.954301
    81  C   -0.033177
    82  C   -0.082973
    83  C   -0.079585
    84  C   -0.082899
    85  N   -0.368328
    86  C   -0.053282
    87  C   -0.004908
    88  C   -0.142310
    89  C    0.044522
    90  C    0.037067
    91  C    0.030383
    92  C   -0.102123
    93  H    0.037404
    94  N   -0.470935
    95  C    0.144926
    96  C   -0.160001
    97  C   -0.079542
    98  C    0.169517
    99  C    0.104928
   100  C    0.036133
   101  O   -0.227638
   102  C    0.001979
   103  N   -0.386376
   104  C    0.091474
   105  C   -0.126899
   106  C   -0.015449
   107  C    0.025687
   108  C    0.031667
   109  C   -0.022244
   110  C   -0.061823
   111  N   -0.378348
   112  C    0.092372
   113  C   -0.180595
   114  C   -0.010783
   115  C    0.119052
   116  C    0.073259
   117  C    0.083858
   118  O   -0.250504
   119  C   -0.041276
   120  C    0.265390
   121  O   -0.260780
   122  O   -0.368644
   123  C    0.138633
   124  H    0.004093
   125  H   -0.041813
   126  H   -0.008987
   127  H    0.025771
   128  H    0.040015
   129  H    0.048694
   130  H    0.050486
   131  H    0.040757
   132  H    0.031613
   133  H    0.017697
   134  H    0.047077
   135  H    0.072005
   136  H    0.073531
   137  H    0.022182
   138  H    0.060832
   139  H    0.076721
   140  H    0.048841
   141  H    0.056605
   142  H    0.052218
   143  H    0.031481
   144  H    0.041491
   145  H    0.036493
   146  H    0.042370
   147  H    0.044476
   148  H    0.024552
   149  H    0.051171
   150  H    0.034923
   151  H    0.047441
   152  H    0.051640
   153  H    0.071773
   154  H    0.038738
   155  H    0.074334
   156  H    0.059756
   157  H    0.067170
   158  H    0.072719
 Sum of Mulliken charges =  -0.00000

 Dipole moment (field-independent basis, Debye):
    X=             -0.6419    Y=              6.0047    Z=             -6.7509  Tot=              9.0578
 Quadrupole moment (field-independent basis, Debye-Ang):
   XX=           -445.4894   YY=           -536.8832   ZZ=           -500.4744
   XY=             34.8421   XZ=            -41.8920   YZ=             -2.3288

 Normal termination of Gaussian 16 at Mon Sep 20 18:36:03 2021.
