 Gaussian 16, Revision A.03,
 Gaussian 16:  ES64L-G16RevA.03 25-Dec-2016

 --------------------------------
 #p wB97XD/Def2SVP td=(nstates=5)
 --------------------------------

 --------------------------------
 TDDFT excited states in gaussian
 --------------------------------
 Symbolic Z-matrix:
 Charge =  0 Multiplicity = 1

                         Standard orientation:
 ---------------------------------------------------------------------
 Center     Atomic      Atomic             Coordinates (Angstroms)
 Number     Number       Type             X           Y           Z
 ---------------------------------------------------------------------
      1         12           0       17.605069    0.710335    0.252277
      2          6           0       17.315261   -2.438415   -1.246400
      3          6           0       16.838826   -0.669709    3.283607
      4          6           0       17.560379    3.761122    1.529733
      5          6           0       18.205445    2.048723   -3.007276
      6          7           0       17.084242   -1.342234    0.906097
      7          6           0       17.084080   -2.507485    0.172009
      8          6           0       17.000305   -3.713649    1.089127
      9          6           0       16.568614   -3.079862    2.470370
     10          6           0       16.952177   -1.585353    2.198205
     11          6           0       15.087635   -3.249881    2.784242
     12          6           0       18.327294   -4.551769    0.996751
     13          6           0       18.417725   -5.684165    2.057044
     14          1           0       17.108958   -6.295979    2.511750
     15          7           0       17.277105    1.415359    2.085274
     16          6           0       16.865654    0.714669    3.212025
     17          6           0       16.639106    1.611034    4.359367
     18          6           0       16.897476    2.911541    3.826817
     19          6           0       17.253096    2.725204    2.422550
     20          6           0       16.283804    1.123576    5.713941
     21          6           0       16.800197    4.213990    4.578569
     22          8           0       17.091212    5.318644    4.041583
     23          6           0       16.426525    4.249052    6.035695
     24          7           0       17.908661    2.644401   -0.625689
     25          6           0       17.830247    3.716188    0.163394
     26          6           0       17.937127    5.048851   -0.700730
     27          6           0       18.110568    4.483397   -2.218994
     28          6           0       18.058774    2.978780   -1.950353
     29          6           0       16.629232    5.909163   -0.461627
     30          6           0       19.493514    4.856442   -2.905615
     31          6           0       19.542565    6.234985   -3.624961
     32          7           0       17.677830    0.041388   -1.714382
     33          6           0       18.044640    0.653714   -2.941876
     34          6           0       18.088341   -0.401876   -4.045997
     35          6           0       17.740292   -1.610796   -3.451961
     36          6           0       17.579667   -1.294088   -2.009822
     37          6           0       18.474623   -0.214059   -5.479670
     38          6           0       17.561088   -3.031439   -3.639955
     39          8           0       17.634496   -3.750728   -4.641268
     40          6           0       17.453584   -3.673816   -2.168922
     41          6           0       16.307802   -4.651207   -2.039630
     42          8           0       15.182767   -4.335883   -1.760085
     43          8           0       16.772423   -5.985806   -2.052811
     44          6           0       15.880702   -7.015030   -1.497604
     45          1           0       16.538142   -1.248122    4.160082
     46          1           0       17.528873    4.766873    1.954276
     47          1           0       18.279138    2.399862   -4.038742
     48          1           0       16.208950   -4.358200    0.708607
     49          1           0       17.146925   -3.401249    3.337211
     50          1           0       15.049040   -3.758490    3.747414
     51          1           0       14.614868   -3.763317    1.947315
     52          1           0       14.599729   -2.309684    3.040193
     53          1           0       19.072432   -3.760717    0.918416
     54          1           0       18.312511   -5.000671    0.004158
     55          1           0       18.939236   -5.202981    2.884492
     56          1           0       19.026160   -6.486698    1.640338
     57          1           0       15.287110    1.540710    5.856785
     58          1           0       17.001468    1.417613    6.479376
     59          1           0       16.156251    0.053556    5.882846
     60          1           0       17.195577    3.733958    6.609678
     61          1           0       15.460237    3.748453    5.962612
     62          1           0       16.233419    5.232311    6.463766
     63          1           0       18.865050    5.457621   -0.298878
     64          1           0       17.254557    4.569659   -2.889599
     65          1           0       15.900064    5.448455    0.204609
     66          1           0       16.121472    6.081455   -1.411003
     67          1           0       16.965264    6.808890    0.052964
     68          1           0       19.900229    4.032845   -3.491752
     69          1           0       20.210233    4.942367   -2.089540
     70          1           0       20.378249    6.783020   -3.191210
     71          1           0       18.569169    6.714222   -3.519595
     72          1           0       19.741366    6.132920   -4.692073
     73          1           0       19.459304   -0.669052   -5.589026
     74          1           0       18.485906    0.847014   -5.731787
     75          1           0       17.864232   -0.701943   -6.239314
     76          1           0       18.412305   -4.157111   -1.983073
     77          1           0       15.148710   -7.200056   -2.283318
     78          1           0       15.502046   -6.712958   -0.520935
     79          1           0       16.507455   -7.885512   -1.305705
     80         12           0      -17.670156    0.621792    0.011029
     81          6           0      -15.305212   -1.955807    0.441420
     82          6           0      -20.110298   -1.816158    0.227208
     83          6           0      -20.067748    2.994055   -0.516711
     84          6           0      -15.195440    2.827062   -0.519853
     85          7           0      -17.701312   -1.654042    0.340372
     86          6           0      -16.629978   -2.490477    0.629886
     87          6           0      -17.126561   -3.842652    1.100837
     88          6           0      -18.636940   -3.852829    0.665178
     89          6           0      -18.820519   -2.372289    0.418124
     90          6           0      -18.994522   -4.799827   -0.546674
     91          6           0      -17.022534   -4.029760    2.621800
     92          6           0      -16.652299   -5.442150    3.087039
     93          1           0      -17.693628   -6.580593    2.900887
     94          7           0      -19.783738    0.620302   -0.038055
     95          6           0      -20.531171   -0.505119    0.034508
     96          6           0      -21.898550   -0.156997   -0.177585
     97          6           0      -22.002408    1.274414   -0.263094
     98          6           0      -20.606320    1.668998   -0.328816
     99          6           0      -22.989214   -1.190802   -0.225393
    100          6           0      -23.206501    2.202235   -0.425967
    101          8           0      -23.100589    3.443360   -0.312205
    102          6           0      -24.589853    1.691698   -0.812948
    103          7           0      -17.633143    2.615865   -0.356828
    104          6           0      -18.741081    3.416517   -0.617657
    105          6           0      -18.275002    4.791004   -0.973154
    106          6           0      -16.705280    4.837538   -0.927693
    107          6           0      -16.453850    3.371492   -0.539514
    108          6           0      -18.924005    5.386666   -2.258647
    109          6           0      -16.096959    5.823655    0.092930
    110          6           0      -15.704221    7.180810   -0.522165
    111          7           0      -15.697501    0.521451   -0.086516
    112          6           0      -14.735098    1.516777   -0.250298
    113          6           0      -13.326012    0.990712   -0.117955
    114          6           0      -13.571457   -0.371802    0.117522
    115          6           0      -14.983550   -0.600176    0.182951
    116          6           0      -12.040539    1.790161   -0.228568
    117          6           0      -12.869329   -1.624961    0.349850
    118          8           0      -11.665618   -1.885285    0.368847
    119          6           0      -14.010872   -2.674257    0.690825
    120          6           0      -13.748331   -3.874259   -0.240224
    121          8           0      -13.403997   -3.823541   -1.402998
    122          8           0      -13.806377   -5.043189    0.516259
    123          6           0      -13.563196   -6.248836   -0.276031
    124          1           0      -20.857000   -2.598007    0.379590
    125          1           0      -20.746732    3.831657   -0.688192
    126          1           0      -14.460695    3.574829   -0.824410
    127          1           0      -16.641052   -4.695135    0.626443
    128          1           0      -19.330609   -4.188908    1.435923
    129          1           0      -18.184533   -5.439285   -0.898724
    130          1           0      -19.317934   -4.313606   -1.466740
    131          1           0      -19.770961   -5.510632   -0.263784
    132          1           0      -17.953189   -3.757751    3.119258
    133          1           0      -16.229992   -3.404654    3.033649
    134          1           0      -16.314311   -5.453573    4.123158
    135          1           0      -15.753068   -5.799906    2.585975
    136          1           0      -22.573023   -1.918447   -0.922274
    137          1           0      -23.953411   -0.892794   -0.636984
    138          1           0      -23.181334   -1.697428    0.720122
    139          1           0      -24.532997    1.037799   -1.683325
    140          1           0      -25.123540    2.620612   -1.013411
    141          1           0      -25.033541    1.108838   -0.005791
    142          1           0      -18.735896    5.469295   -0.254458
    143          1           0      -16.217929    4.992042   -1.891219
    144          1           0      -19.566955    4.619350   -2.690406
    145          1           0      -18.135681    5.619231   -2.974080
    146          1           0      -19.496348    6.239497   -1.892145
    147          1           0      -15.297924    5.296844    0.614105
    148          1           0      -16.842090    6.130226    0.827349
    149          1           0      -16.288624    7.359360   -1.424982
    150          1           0      -14.679568    7.275973   -0.881993
    151          1           0      -15.967987    7.961031    0.192443
    152          1           0      -11.960571    2.395936    0.674234
    153          1           0      -11.987222    2.483422   -1.067767
    154          1           0      -11.239585    1.052401   -0.273642
    155          1           0      -14.035535   -3.026770    1.721782
    156          1           0      -14.455677   -6.695737   -0.715084
    157          1           0      -13.075062   -6.924326    0.426355
    158          1           0      -12.918015   -6.188198   -1.152466
 ---------------------------------------------------------------------

 SCF Done:  E(RwB97XD) =  -4070.65250792     A.U. after   18 cycles

 Excitation energies and oscillator strengths:

 Excited State   1:      Singlet-A      1.6476 eV  752.50 nm  f=0.3782  <S**2>=0.000
     310 -> 316       -0.19167
     311 -> 313        0.68100
     310 <- 316       -0.11851
 This state for optimization and/or second-order correction.
 Total Energy, E(TD-HF/TD-DFT) =  -4070.59195857
 Copying the excited state density for this state as the 1-particle RhoCI density.

 Excited State   2:      Singlet-A      1.6549 eV  749.19 nm  f=0.3766  <S**2>=0.000
     309 -> 315        0.20531
     312 -> 314        0.67759
     309 <- 315        0.12134

 Excited State   3:      Singlet-A      2.1798 eV  568.78 nm  f=0.0966  <S**2>=0.000
     310 -> 313        0.63413
     311 -> 316        0.30025

 Excited State   4:      Singlet-A      2.2347 eV  554.81 nm  f=0.0335  <S**2>=0.000
     309 -> 314        0.58749
     312 -> 315       -0.38608

 Excited State   5:      Singlet-A      3.7486 eV  330.75 nm  f=0.0000  <S**2>=0.000
     312 -> 313        0.70707

 The electronic state is 1-A.
 Alpha  occ. eigenvalues --  -46.94375 -46.93979 -19.30968 -19.29169 -19.25321
 Alpha  occ. eigenvalues --  -19.25175 -19.24255 -19.24222 -19.24120 -19.23412
 Alpha  occ. eigenvalues --  -14.47276 -14.46694 -14.46080 -14.45864 -14.44535
 Alpha  occ. eigenvalues --  -14.44476 -14.44463 -14.44087 -10.43522 -10.43232
 Alpha  occ. eigenvalues --  -10.39847 -10.39537 -10.39194 -10.39081 -10.35441
 Alpha  occ. eigenvalues --  -10.35440 -10.35209 -10.34895 -10.34891 -10.34819
 Alpha  occ. eigenvalues --  -10.34782 -10.34716 -10.34617 -10.34346 -10.34326
 Alpha  occ. eigenvalues --  -10.34324 -10.34302 -10.34269 -10.34130 -10.33642
 Alpha  occ. eigenvalues --  -10.33550 -10.33448 -10.33365 -10.33197 -10.33180
 Alpha  occ. eigenvalues --  -10.33072 -10.32908 -10.32874 -10.32824 -10.32686
 Alpha  occ. eigenvalues --  -10.32574 -10.32573 -10.32424 -10.32306 -10.32249
 Alpha  occ. eigenvalues --  -10.32203 -10.31884 -10.31758 -10.31706 -10.31675
 Alpha  occ. eigenvalues --  -10.31655 -10.31525 -10.31294 -10.31213 -10.31152
 Alpha  occ. eigenvalues --  -10.31070 -10.31011 -10.30942 -10.30594 -10.30466
 Alpha  occ. eigenvalues --  -10.30339 -10.30305 -10.30264 -10.30245 -10.30232
 Alpha  occ. eigenvalues --  -10.30042 -10.30022 -10.30009 -10.29962 -10.29705
 Alpha  occ. eigenvalues --  -10.29569 -10.29512 -10.29384 -10.29358 -10.29159
 Alpha  occ. eigenvalues --  -10.29153  -3.20474  -3.20173  -1.94075  -1.93767
 Alpha  occ. eigenvalues --   -1.93587  -1.93477  -1.93278  -1.93190  -1.18445
 Alpha  occ. eigenvalues --   -1.17573  -1.11433  -1.11333  -1.11153  -1.10362
 Alpha  occ. eigenvalues --   -1.09982  -1.09935  -1.06712  -1.06282  -1.05731
 Alpha  occ. eigenvalues --   -1.05434  -1.05062  -1.04782  -1.03434  -1.03360
 Alpha  occ. eigenvalues --   -0.94527  -0.93536  -0.91284  -0.90904  -0.90809
 Alpha  occ. eigenvalues --   -0.90388  -0.90199  -0.89706  -0.89444  -0.89387
 Alpha  occ. eigenvalues --   -0.88977  -0.88601  -0.88196  -0.88071  -0.86313
 Alpha  occ. eigenvalues --   -0.86108  -0.85423  -0.84803  -0.84203  -0.84074
 Alpha  occ. eigenvalues --   -0.83772  -0.83657  -0.82904  -0.82645  -0.82032
 Alpha  occ. eigenvalues --   -0.81915  -0.80897  -0.80420  -0.79371  -0.79303
 Alpha  occ. eigenvalues --   -0.79185  -0.78850  -0.78075  -0.77653  -0.76990
 Alpha  occ. eigenvalues --   -0.76437  -0.74661  -0.74025  -0.73621  -0.73392
 Alpha  occ. eigenvalues --   -0.71339  -0.71299  -0.70723  -0.70472  -0.70245
 Alpha  occ. eigenvalues --   -0.70150  -0.69315  -0.69041  -0.67710  -0.67432
 Alpha  occ. eigenvalues --   -0.67366  -0.67069  -0.66476  -0.66149  -0.65869
 Alpha  occ. eigenvalues --   -0.65719  -0.64541  -0.63227  -0.62616  -0.62351
 Alpha  occ. eigenvalues --   -0.62139  -0.61423  -0.60927  -0.60657  -0.60464
 Alpha  occ. eigenvalues --   -0.59690  -0.59689  -0.59484  -0.59478  -0.58718
 Alpha  occ. eigenvalues --   -0.58087  -0.58023  -0.57773  -0.57447  -0.57071
 Alpha  occ. eigenvalues --   -0.56524  -0.56483  -0.56086  -0.55838  -0.55743
 Alpha  occ. eigenvalues --   -0.55557  -0.55415  -0.55152  -0.55075  -0.54810
 Alpha  occ. eigenvalues --   -0.54498  -0.54401  -0.54106  -0.54102  -0.53786
 Alpha  occ. eigenvalues --   -0.53767  -0.53686  -0.53605  -0.53309  -0.53153
 Alpha  occ. eigenvalues --   -0.53050  -0.52745  -0.52380  -0.52349  -0.52185
 Alpha  occ. eigenvalues --   -0.51993  -0.51987  -0.51713  -0.51415  -0.51330
 Alpha  occ. eigenvalues --   -0.51256  -0.51189  -0.51000  -0.50875  -0.50836
 Alpha  occ. eigenvalues --   -0.50736  -0.50390  -0.50386  -0.50179  -0.50010
 Alpha  occ. eigenvalues --   -0.49995  -0.49975  -0.49570  -0.49314  -0.49313
 Alpha  occ. eigenvalues --   -0.48763  -0.48737  -0.48581  -0.48441  -0.48201
 Alpha  occ. eigenvalues --   -0.48058  -0.47967  -0.47820  -0.47628  -0.47467
 Alpha  occ. eigenvalues --   -0.47440  -0.47092  -0.47050  -0.46826  -0.46725
 Alpha  occ. eigenvalues --   -0.46579  -0.46576  -0.46450  -0.46283  -0.46249
 Alpha  occ. eigenvalues --   -0.46059  -0.45869  -0.45507  -0.45373  -0.45359
 Alpha  occ. eigenvalues --   -0.45127  -0.45023  -0.44955  -0.44948  -0.44790
 Alpha  occ. eigenvalues --   -0.44623  -0.44431  -0.44289  -0.44183  -0.44055
 Alpha  occ. eigenvalues --   -0.43845  -0.43720  -0.43513  -0.43445  -0.43251
 Alpha  occ. eigenvalues --   -0.43102  -0.42964  -0.42780  -0.42387  -0.42213
 Alpha  occ. eigenvalues --   -0.42152  -0.42039  -0.41588  -0.41071  -0.40914
 Alpha  occ. eigenvalues --   -0.40590  -0.40422  -0.40228  -0.40061  -0.39853
 Alpha  occ. eigenvalues --   -0.39850  -0.39284  -0.38839  -0.38782  -0.38707
 Alpha  occ. eigenvalues --   -0.38205  -0.37761  -0.37140  -0.36943  -0.36437
 Alpha  occ. eigenvalues --   -0.36096  -0.35366  -0.35085  -0.33494  -0.33434
 Alpha  occ. eigenvalues --   -0.33145  -0.33023  -0.32927  -0.32670  -0.32551
 Alpha  occ. eigenvalues --   -0.32408  -0.32195  -0.32189  -0.25868  -0.25862
 Alpha  occ. eigenvalues --   -0.22877  -0.22176
 Alpha virt. eigenvalues --   -0.06906  -0.06194  -0.00196   0.00148   0.01879
 Alpha virt. eigenvalues --    0.02055   0.03860   0.04300   0.06355   0.06749
 Alpha virt. eigenvalues --    0.06789   0.07124   0.07432   0.07743   0.08335

 Mulliken charges:
               1
     1  Mg   0.985317
     2  C   -0.029845
     3  C   -0.097655
     4  C   -0.088006
     5  C   -0.091835
     6  N   -0.320817
     7  C   -0.001296
     8  C   -0.052325
     9  C   -0.133816
    10  C    0.011111
    11  C    0.044497
    12  C   -0.023231
    13  C   -0.099832
    14  H    0.046720
    15  N   -0.499626
    16  C    0.214759
    17  C   -0.158580
    18  C   -0.076639
    19  C    0.175185
    20  C    0.073590
    21  C    0.037609
    22  O   -0.272535
    23  C    0.020896
    24  N   -0.349103
    25  C    0.045739
    26  C   -0.087838
    27  C   -0.049386
    28  C    0.040713
    29  C    0.013493
    30  C   -0.039891
    31  C   -0.032198
    32  N   -0.452241
    33  C    0.125231
    34  C   -0.194122
    35  C   -0.008999
    36  C    0.139126
    37  C    0.070657
    38  C    0.151242
    39  O   -0.215009
    40  C   -0.144588
    41  C    0.289212
    42  O   -0.219187
    43  O   -0.405891
    44  C    0.143369
    45  H   -0.011135
    46  H    0.021163
    47  H    0.001216
    48  H    0.028716
    49  H    0.029391
    50  H    0.028585
    51  H    0.059166
    52  H    0.036230
    53  H    0.041213
    54  H    0.036906
    55  H    0.058381
    56  H    0.059582
    57  H    0.054184
    58  H    0.057795
    59  H    0.036174
    60  H    0.065538
    61  H    0.039198
    62  H    0.055158
    63  H    0.050568
    64  H    0.044504
    65  H    0.052712
    66  H    0.038300
    67  H    0.049550
    68  H    0.034790
    69  H    0.019163
    70  H    0.041703
    71  H    0.039452
    72  H    0.036803
    73  H    0.060531
    74  H    0.027133
    75  H    0.060490
    76  H    0.091821
    77  H    0.068598
    78  H    0.050170
    79  H    0.052275
    80  Mg   1.001640
    81  C   -0.064908
    82  C   -0.110721
    83  C   -0.083541
    84  C   -0.100672
    85  N   -0.307701
    86  C    0.022394
    87  C   -0.031716
    88  C   -0.097707
    89  C    0.019019
    90  C    0.007932
    91  C    0.023160
    92  C   -0.123367
    93  H    0.016988
    94  N   -0.428021
    95  C    0.223999
    96  C   -0.180419
    97  C   -0.042851
    98  C    0.127706
    99  C    0.061814
   100  C    0.049171
   101  O   -0.257590
   102  C   -0.023714
   103  N   -0.456785
   104  C    0.108958
   105  C   -0.100396
   106  C   -0.055367
   107  C    0.059291
   108  C    0.015915
   109  C    0.000245
   110  C   -0.055621
   111  N   -0.483310
   112  C    0.140138
   113  C   -0.167042
   114  C   -0.071821
   115  C    0.182710
   116  C    0.080909
   117  C    0.161285
   118  O   -0.208515
   119  C   -0.105775
   120  C    0.266191
   121  O   -0.223706
   122  O   -0.369649
   123  C    0.126325
   124  H   -0.009070
   125  H    0.016369
   126  H   -0.010414
   127  H    0.030631
   128  H    0.039894
   129  H    0.034317
   130  H    0.041888
   131  H    0.034265
   132  H    0.040656
   133  H    0.036901
   134  H    0.048494
   135  H    0.050350
   136  H    0.046153
   137  H    0.026856
   138  H    0.058682
   139  H    0.061381
   140  H    0.063728
   141  H    0.063616
   142  H    0.042751
   143  H    0.042964
   144  H    0.043686
   145  H    0.034144
   146  H    0.043570
   147  H    0.037009
   148  H    0.028001
   149  H    0.024587
   150  H    0.041210
   151  H    0.040889
   152  H    0.050520
   153  H    0.047812
   154  H    0.066212
   155  H    0.072865
   156  H    0.043209
   157  H    0.055673
   158  H    0.065326
 Sum of Mulliken charges =  -0.00000

 Dipole moment (field-independent basis, Debye):
    X=             -2.9042    Y=             -1.8148    Z=              5.1908  Tot=              6.2187
 Quadrupole moment (field-independent basis, Debye-Ang):
   XX=           -355.5673   YY=           -480.5058   ZZ=           -500.0190
   XY=             45.4181   XZ=             61.0324   YZ=            -41.3795

 Normal termination of Gaussian 16 at Sun Sep 19 13:44:56 2021.
