 Gaussian 16, Revision A.03,
 Gaussian 16:  ES64L-G16RevA.03 25-Dec-2016

 --------------------------------
 #p wB97XD/Def2SVP td=(nstates=5)
 --------------------------------

 --------------------------------
 TDDFT excited states in gaussian
 --------------------------------
 Symbolic Z-matrix:
 Charge =  0 Multiplicity = 1

                         Standard orientation:
 ---------------------------------------------------------------------
 Center     Atomic      Atomic             Coordinates (Angstroms)
 Number     Number       Type             X           Y           Z
 ---------------------------------------------------------------------
      1         12           0        0.692943    0.027116   -0.401252
      2          6           0       -2.747221    0.227203   -0.365613
      3          6           0        0.364015   -3.361329   -0.058770
      4          6           0        4.055263   -0.153033   -0.142877
      5          6           0        0.900055    3.489477   -0.159819
      6          7           0       -1.088119   -1.349616   -0.095723
      7          6           0       -2.320192   -1.091238   -0.311911
      8          6           0       -3.334355   -2.348116   -0.301261
      9          6           0       -2.294130   -3.464315    0.108181
     10          6           0       -0.890074   -2.693895    0.071437
     11          6           0       -2.486841   -4.068921    1.596268
     12          6           0       -4.080993   -2.635523   -1.675392
     13          6           0       -5.520668   -3.258017   -1.608663
     14          1           0       -5.971006   -3.767644   -0.272961
     15          7           0        2.002729   -1.493589   -0.220669
     16          6           0        1.691132   -2.909160   -0.173313
     17          6           0        2.957288   -3.633659   -0.138161
     18          6           0        4.033557   -2.716056   -0.048167
     19          6           0        3.392278   -1.388341   -0.180657
     20          6           0        2.888982   -5.116188   -0.219940
     21          6           0        5.561656   -2.942805    0.027770
     22          8           0        6.385234   -2.094523    0.201993
     23          6           0        5.998199   -4.421686    0.048032
     24          7           0        2.313041    1.429985   -0.071663
     25          6           0        3.575402    1.148517    0.002470
     26          6           0        4.417645    2.385818    0.424309
     27          6           0        3.424624    3.566837    0.306276
     28          6           0        2.111497    2.814849   -0.014614
     29          6           0        5.006594    2.199915    1.838901
     30          6           0        3.868696    4.617280   -0.757462
     31          6           0        5.082740    5.471827   -0.358680
     32          7           0       -0.637521    1.599670   -0.284529
     33          6           0       -0.388917    2.960678   -0.294188
     34          6           0       -1.671560    3.611013   -0.351761
     35          6           0       -2.686093    2.607445   -0.342394
     36          6           0       -1.933326    1.401584   -0.336509
     37          6           0       -1.872864    5.013471   -0.345509
     38          6           0       -4.077561    2.296115   -0.424345
     39          8           0       -5.064828    3.090143   -0.404312
     40          6           0       -4.153672    0.723388   -0.321545
     41          6           0       -4.931650    0.405347    0.856752
     42          8           0       -4.483259    0.389067    2.002801
     43          8           0       -6.239401    0.292159    0.458629
     44          6           0       -7.186522    0.225261    1.591593
     45          1           0        0.290869   -4.442050    0.076245
     46          1           0        5.137564   -0.290119   -0.082501
     47          1           0        1.022413    4.575008   -0.154385
     48          1           0       -3.997608   -2.129507    0.536030
     49          1           0       -2.358277   -4.306362   -0.580695
     50          1           0       -3.079129   -3.357982    2.173042
     51          1           0       -1.512712   -4.205365    2.065648
     52          1           0       -2.976795   -5.040791    1.663940
     53          1           0       -3.431330   -3.356608   -2.170739
     54          1           0       -4.017395   -1.854232   -2.433564
     55          1           0       -5.678113   -4.077437   -2.309887
     56          1           0       -6.252379   -2.480525   -1.828417
     57          1           0        2.723987   -5.548357    0.767445
     58          1           0        3.709576   -5.549881   -0.791636
     59          1           0        2.021951   -5.356164   -0.834923
     60          1           0        5.924559   -4.930810   -0.913448
     61          1           0        5.320236   -4.832822    0.795303
     62          1           0        6.998182   -4.616624    0.434357
     63          1           0        5.174266    2.429876   -0.358707
     64          1           0        3.293406    4.031857    1.283304
     65          1           0        4.469369    1.508455    2.488403
     66          1           0        5.038186    3.067405    2.498953
     67          1           0        6.020831    1.833585    1.680331
     68          1           0        3.052849    5.321378   -0.915020
     69          1           0        4.070616    4.118164   -1.705807
     70          1           0        5.459057    5.085805    0.588682
     71          1           0        4.731737    6.455972   -0.047905
     72          1           0        5.872342    5.641834   -1.090218
     73          1           0       -1.130794    5.397201   -1.045746
     74          1           0       -1.697428    5.522949    0.601849
     75          1           0       -2.920196    5.213012   -0.574510
     76          1           0       -4.725278    0.450859   -1.209118
     77          1           0       -7.139114    1.198388    2.081153
     78          1           0       -7.005620   -0.643929    2.223088
     79          1           0       -8.184909    0.107701    1.169992
 ---------------------------------------------------------------------

 SCF Done:  E(RwB97XD) =  -2035.31818399     A.U. after   20 cycles

 Excitation energies and oscillator strengths:

 Excited State   1:      Singlet-A      1.7222 eV  719.91 nm  f=0.3805  <S**2>=0.000
     155 ->158        -0.20382
     156 ->157         0.67763
     155 <-158        -0.11869
 This state for optimization and/or second-order correction.
 Total Energy, E(TD-HF/TD-DFT) =  -2035.25489403
 Copying the excited state density for this state as the 1-particle RhoCI density.

 Excited State   2:      Singlet-A      2.1613 eV  573.65 nm  f=0.1081  <S**2>=0.000
     155 ->157         0.64086
     156 ->158         0.28346

 Excited State   3:      Singlet-A      3.4552 eV  358.84 nm  f=0.0012  <S**2>=0.000
     152 ->157         0.28153
     152 ->159        -0.15478
     152 ->160         0.10037
     153 ->157         0.39208
     153 ->159        -0.30037
     153 ->160         0.19493
     154 ->157        -0.27303

 Excited State   4:      Singlet-A      3.5089 eV  353.34 nm  f=0.0691  <S**2>=0.000
     151 ->157        -0.11599
     152 ->157        -0.32135
     153 ->157         0.39248
     154 ->157         0.37782
     156 ->158         0.20596

 Excited State   5:      Singlet-A      3.5462 eV  349.62 nm  f=0.3244  <S**2>=0.000
     152 ->157        -0.12044
     154 ->157        -0.36418
     155 ->157        -0.19542
     156 ->158         0.52539

 The electronic state is 1-A.
 Alpha  occ. eigenvalues --  -46.94733 -19.29996 -19.25193 -19.24223 -19.23277
 Alpha  occ. eigenvalues --  -14.46783 -14.46096 -14.44327 -14.43492 -10.42367
 Alpha  occ. eigenvalues --  -10.40259 -10.38768 -10.35923 -10.34977 -10.34800
 Alpha  occ. eigenvalues --  -10.34754 -10.34455 -10.34428 -10.34298 -10.33615
 Alpha  occ. eigenvalues --  -10.33141 -10.33053 -10.32995 -10.32872 -10.32234
 Alpha  occ. eigenvalues --  -10.32124 -10.31836 -10.31723 -10.31630 -10.31575
 Alpha  occ. eigenvalues --  -10.31142 -10.31139 -10.31135 -10.31023 -10.30658
 Alpha  occ. eigenvalues --  -10.30473 -10.30156 -10.30020 -10.29513 -10.29366
 Alpha  occ. eigenvalues --  -10.29188 -10.28458 -10.28449  -3.20776  -1.94360
 Alpha  occ. eigenvalues --   -1.93907  -1.93749  -1.17660  -1.14754  -1.09385
 Alpha  occ. eigenvalues --   -1.08932  -1.07384  -1.06291  -1.05460  -1.02931
 Alpha  occ. eigenvalues --   -0.94480  -0.91183  -0.90261  -0.89710  -0.89377
 Alpha  occ. eigenvalues --   -0.88882  -0.88783  -0.85840  -0.85334  -0.84211
 Alpha  occ. eigenvalues --   -0.83635  -0.82976  -0.82229  -0.80522  -0.79285
 Alpha  occ. eigenvalues --   -0.78277  -0.77650  -0.76756  -0.74179  -0.73432
 Alpha  occ. eigenvalues --   -0.71300  -0.70721  -0.70149  -0.68993  -0.67738
 Alpha  occ. eigenvalues --   -0.67296  -0.66755  -0.66065  -0.63524  -0.62033
 Alpha  occ. eigenvalues --   -0.61355  -0.61072  -0.60253  -0.59842  -0.59614
 Alpha  occ. eigenvalues --   -0.57977  -0.57579  -0.57153  -0.56436  -0.55874
 Alpha  occ. eigenvalues --   -0.55302  -0.55104  -0.54899  -0.54671  -0.54001
 Alpha  occ. eigenvalues --   -0.53790  -0.53236  -0.53061  -0.52839  -0.52644
 Alpha  occ. eigenvalues --   -0.52348  -0.51309  -0.51052  -0.50829  -0.50475
 Alpha  occ. eigenvalues --   -0.50363  -0.50118  -0.49744  -0.49691  -0.48960
 Alpha  occ. eigenvalues --   -0.48562  -0.48357  -0.48141  -0.47948  -0.47525
 Alpha  occ. eigenvalues --   -0.47064  -0.46756  -0.46300  -0.46197  -0.46070
 Alpha  occ. eigenvalues --   -0.45728  -0.45449  -0.45155  -0.44874  -0.44661
 Alpha  occ. eigenvalues --   -0.44544  -0.44203  -0.43647  -0.43619  -0.43373
 Alpha  occ. eigenvalues --   -0.43079  -0.42514  -0.42104  -0.41692  -0.41257
 Alpha  occ. eigenvalues --   -0.40123  -0.39879  -0.39521  -0.39040  -0.38543
 Alpha  occ. eigenvalues --   -0.38222  -0.36279  -0.35860  -0.35606  -0.33807
 Alpha  occ. eigenvalues --   -0.33335  -0.32430  -0.32260  -0.31293  -0.25583
 Alpha  occ. eigenvalues --   -0.23043
 Alpha virt. eigenvalues --   -0.06754   0.00234   0.02038   0.04214   0.05715
 Alpha virt. eigenvalues --    0.07665   0.08301   0.09148   0.09667   0.10978
 Alpha virt. eigenvalues --    0.12132   0.12559   0.13110   0.13242   0.14229

 Mulliken charges:
               1
     1  Mg   0.972857
     2  C    0.036693
     3  C   -0.076494
     4  C   -0.083420
     5  C   -0.099917
     6  N   -0.274924
     7  C   -0.096999
     8  C   -0.014417
     9  C   -0.137540
    10  C    0.065915
    11  C    0.000620
    12  C    0.023596
    13  C   -0.131696
    14  H    0.035225
    15  N   -0.532112
    16  C    0.160578
    17  C   -0.146694
    18  C   -0.100019
    19  C    0.147714
    20  C    0.050153
    21  C    0.084714
    22  O   -0.192555
    23  C   -0.045328
    24  N   -0.332398
    25  C    0.040198
    26  C   -0.054429
    27  C   -0.067562
    28  C    0.054649
    29  C    0.016551
    30  C   -0.022561
    31  C   -0.039104
    32  N   -0.427668
    33  C    0.163822
    34  C   -0.180263
    35  C    0.016124
    36  C    0.116505
    37  C    0.057377
    38  C    0.086162
    39  O   -0.253858
    40  C   -0.075627
    41  C    0.268093
    42  O   -0.262139
    43  O   -0.366901
    44  C    0.144972
    45  H   -0.003051
    46  H    0.012723
    47  H   -0.006254
    48  H    0.049135
    49  H    0.040267
    50  H    0.048186
    51  H    0.038263
    52  H    0.039847
    53  H    0.016300
    54  H    0.039545
    55  H    0.057655
    56  H    0.064730
    57  H    0.067855
    58  H    0.043836
    59  H    0.042720
    60  H    0.070920
    61  H    0.053280
    62  H    0.049671
    63  H    0.038218
    64  H    0.035329
    65  H    0.043609
    66  H    0.034029
    67  H    0.050541
    68  H    0.028778
    69  H    0.032089
    70  H    0.024455
    71  H    0.026118
    72  H    0.050559
    73  H    0.038278
    74  H    0.050032
    75  H    0.057916
    76  H    0.063352
    77  H    0.068102
    78  H    0.056062
    79  H    0.049014
 Sum of Mulliken charges =  -0.00000

 Dipole moment (field-independent basis, Debye):
    X=              1.9005    Y=             -4.2309    Z=             -1.5640  Tot=              4.8948
 Quadrupole moment (field-independent basis, Debye-Ang):
   XX=           -264.5541   YY=           -225.7300   ZZ=           -254.8030
   XY=             23.6138   XZ=             -1.2251   YZ=              3.9975

 Normal termination of Gaussian 16 at Mon Sep 20 11:46:34 2021.
