 Gaussian 16, Revision A.03,
 Gaussian 16:  ES64L-G16RevA.03 25-Dec-2016

 --------------------------------
 #p wB97XD/Def2SVP td=(nstates=5)
 --------------------------------

 --------------------------------
 TDDFT excited states in gaussian
 --------------------------------
 Symbolic Z-matrix:
 Charge =  0 Multiplicity = 1

                         Standard orientation:
 ---------------------------------------------------------------------
 Center     Atomic      Atomic             Coordinates (Angstroms)
 Number     Number       Type             X           Y           Z
 ---------------------------------------------------------------------
      1         12           0        3.830426   -0.973631   -0.910711
      2          6           0        5.956184    1.763768    0.041311
      3          6           0        1.136661    1.315898   -0.641321
      4          6           0        1.569361   -3.519119   -1.688137
      5          6           0        6.382685   -3.123057   -0.748703
      6          7           0        3.610495    1.308447   -0.133447
      7          6           0        4.620221    2.183070    0.063517
      8          6           0        4.041238    3.587577    0.463918
      9          6           0        2.501052    3.282679    0.425057
     10          6           0        2.371523    1.891756   -0.237131
     11          6           0        1.840195    3.367951    1.845116
     12          6           0        4.447815    4.707017   -0.494111
     13          6           0        4.874248    5.992451    0.135504
     14          1           0        5.389560    7.122512   -0.767442
     15          7           0        1.734229   -1.075241   -1.334721
     16          6           0        0.835064   -0.030186   -1.150347
     17          6           0       -0.481004   -0.495043   -1.541322
     18          6           0       -0.389553   -1.818841   -1.938270
     19          6           0        1.011457   -2.229816   -1.586623
     20          6           0       -1.748481    0.295039   -1.385174
     21          6           0       -1.494873   -2.836295   -2.438737
     22          8           0       -1.342477   -3.987038   -2.768403
     23          6           0       -2.889525   -2.313680   -2.707184
     24          7           0        3.888792   -2.993968   -1.032780
     25          6           0        2.896062   -3.880744   -1.359132
     26          6           0        3.348370   -5.350630   -1.195716
     27          6           0        4.930079   -5.221299   -1.142406
     28          6           0        5.078541   -3.659006   -0.994575
     29          6           0        2.689752   -6.059877    0.030558
     30          6           0        5.668141   -5.782071   -2.395971
     31          6           0        5.451503   -5.006840   -3.693621
     32          7           0        5.740559   -0.812393   -0.439186
     33          6           0        6.760596   -1.803660   -0.473952
     34          6           0        8.049711   -1.227330   -0.098124
     35          6           0        7.780436    0.144970    0.051492
     36          6           0        6.395483    0.367042   -0.170122
     37          6           0        9.314056   -1.945549    0.009609
     38          6           0        8.442949    1.403754    0.377437
     39          8           0        9.625458    1.630488    0.571718
     40          6           0        7.267303    2.517587    0.476363
     41          6           0        7.826822    3.565158   -0.489156
     42          8           0        7.897697    3.512774   -1.730268
     43          8           0        8.313934    4.573183    0.213270
     44          6           0        8.669088    5.869349   -0.495068
     45          1           0        0.325979    2.046958   -0.627455
     46          1           0        0.938354   -4.379458   -1.924468
     47          1           0        7.182265   -3.865391   -0.787097
     48          1           0        4.509572    3.804295    1.423431
     49          1           0        1.971644    3.967086   -0.239184
     50          1           0        0.991091    4.045211    1.936978
     51          1           0        2.553334    3.490863    2.660458
     52          1           0        1.303235    2.479689    2.178687
     53          1           0        3.471288    5.046762   -0.839626
     54          1           0        5.065034    4.360194   -1.323614
     55          1           0        5.585062    5.984268    0.963396
     56          1           0        3.947072    6.369615    0.567144
     57          1           0       -1.540887    1.328868   -1.110323
     58          1           0       -2.453067   -0.098092   -0.650646
     59          1           0       -2.352626    0.399679   -2.286521
     60          1           0       -2.901329   -1.533014   -3.467712
     61          1           0       -3.192723   -1.989067   -1.711745
     62          1           0       -3.458268   -3.221270   -2.909536
     63          1           0        2.917672   -5.848923   -2.064936
     64          1           0        5.423727   -5.484687   -0.206709
     65          1           0        1.982246   -6.835451   -0.262621
     66          1           0        2.236715   -5.438691    0.802413
     67          1           0        3.567176   -6.492818    0.511304
     68          1           0        5.534219   -6.863904   -2.395576
     69          1           0        6.737719   -5.690858   -2.207574
     70          1           0        4.717254   -4.203171   -3.651509
     71          1           0        5.078869   -5.738878   -4.409685
     72          1           0        6.305904   -4.433543   -4.051542
     73          1           0       10.166173   -1.336579    0.312200
     74          1           0        9.483319   -2.366056   -0.981586
     75          1           0        9.162026   -2.773297    0.703753
     76          1           0        7.256191    3.023487    1.441769
     77          1           0        8.729500    6.624909    0.288555
     78          1           0        7.885466    6.212537   -1.169856
     79          1           0        9.577839    5.802529   -1.094366
     80         12           0       -3.895328   -0.402688    1.066651
     81          6           0       -5.215105    2.423156   -0.535710
     82          6           0       -1.843135    1.698161    2.863633
     83          6           0       -2.647019   -3.079896    2.538373
     84          6           0       -5.950741   -2.396027   -0.969172
     85          7           0       -3.674787    1.799177    1.169516
     86          6           0       -4.289601    2.800945    0.418198
     87          6           0       -4.058778    4.249900    1.002074
     88          6           0       -2.902921    3.941844    1.934170
     89          6           0       -2.785985    2.363741    2.015780
     90          6           0       -1.527648    4.481260    1.326790
     91          6           0       -5.385788    4.547030    1.832003
     92          6           0       -5.997292    6.012577    1.720947
     93          1           0       -4.884545    7.015002    1.550635
     94          7           0       -2.384041   -0.644360    2.356439
     95          6           0       -1.663707    0.288449    2.972954
     96          6           0       -0.717782   -0.267285    3.904116
     97          6           0       -1.039323   -1.637182    3.976049
     98          6           0       -2.043450   -1.865148    2.869653
     99          6           0        0.300927    0.489941    4.674534
    100          6           0       -0.605087   -2.698326    4.966038
    101          8           0       -1.162543   -3.797848    5.059289
    102          6           0        0.638947   -2.472998    5.829868
    103          7           0       -4.235974   -2.474851    0.762921
    104          6           0       -3.595546   -3.351729    1.606360
    105          6           0       -4.165231   -4.749271    1.372465
    106          6           0       -5.343846   -4.529386    0.303903
    107          6           0       -5.242519   -3.050977    0.034868
    108          6           0       -3.008386   -5.738693    0.989870
    109          6           0       -6.732511   -5.003287    0.703198
    110          6           0       -7.403895   -5.939922   -0.349480
    111          7           0       -5.274499   -0.065462   -0.454547
    112          6           0       -6.038428   -0.997457   -1.224892
    113          6           0       -6.827941   -0.313790   -2.186013
    114          6           0       -6.523728    1.034381   -1.932797
    115          6           0       -5.548071    1.104853   -0.916840
    116          6           0       -7.799063   -0.830780   -3.197983
    117          6           0       -6.805051    2.381709   -2.312967
    118          8           0       -7.513734    2.863701   -3.165138
    119          6           0       -6.040279    3.318519   -1.335580
    120          6           0       -5.335602    4.363222   -2.122334
    121          8           0       -4.354130    4.222102   -2.846373
    122          8           0       -5.940250    5.524073   -1.851743
    123          6           0       -5.369949    6.714881   -2.445959
    124          1           0       -1.240937    2.247557    3.590073
    125          1           0       -2.185071   -3.925288    3.054455
    126          1           0       -6.650571   -2.971574   -1.578736
    127          1           0       -3.992054    4.896062    0.127336
    128          1           0       -3.103401    4.342097    2.927442
    129          1           0       -1.658456    4.945721    0.349214
    130          1           0       -0.843093    3.638706    1.230786
    131          1           0       -1.168124    5.186332    2.076349
    132          1           0       -5.266616    4.394080    2.904210
    133          1           0       -6.114615    3.802153    1.511453
    134          1           0       -6.410141    6.328757    2.678978
    135          1           0       -6.870251    6.033684    1.068055
    136          1           0       -0.006723    0.446416    5.720198
    137          1           0        0.324944    1.538290    4.380342
    138          1           0        1.306633    0.081394    4.580382
    139          1           0        0.856271   -3.504740    6.105281
    140          1           0        0.472285   -1.816151    6.684427
    141          1           0        1.547313   -2.147502    5.323247
    142          1           0       -4.616334   -5.226872    2.242190
    143          1           0       -5.069872   -5.044228   -0.617045
    144          1           0       -3.177259   -6.632747    1.590184
    145          1           0       -2.008763   -5.326136    1.126806
    146          1           0       -3.169093   -6.171226    0.001648
    147          1           0       -7.432639   -4.199671    0.929333
    148          1           0       -6.547123   -5.678268    1.539937
    149          1           0       -6.703138   -6.188961   -1.146528
    150          1           0       -8.180572   -5.421923   -0.911743
    151          1           0       -7.760931   -6.861614    0.110449
    152          1           0       -8.646747   -1.090069   -2.563107
    153          1           0       -7.297832   -1.645112   -3.720716
    154          1           0       -8.139963   -0.056035   -3.883315
    155          1           0       -6.844768    3.837454   -0.812717
    156          1           0       -5.283451    6.587307   -3.525369
    157          1           0       -4.352716    6.973157   -2.149701
    158          1           0       -6.062223    7.525908   -2.219202
 ---------------------------------------------------------------------

 SCF Done:  E(RwB97XD) =  -4070.63918078     A.U. after   19 cycles

 Excitation energies and oscillator strengths:

 Excited State   1:      Singlet-A      1.5803 eV  784.55 nm  f=0.3465  <S**2>=0.000
     310 -> 316       -0.18120
     312 -> 314        0.68061
     310 <- 316       -0.11807
 This state for optimization and/or second-order correction.
 Total Energy, E(TD-HF/TD-DFT) =  -4070.58110486
 Copying the excited state density for this state as the 1-particle RhoCI density.

 Excited State   2:      Singlet-A      1.6700 eV  742.44 nm  f=0.3929  <S**2>=0.000
     309 -> 315        0.15689
     311 -> 313        0.68334
     309 <- 315        0.10147

 Excited State   3:      Singlet-A      2.1539 eV  575.63 nm  f=0.0430  <S**2>=0.000
     309 -> 313       -0.13590
     310 -> 314        0.61002
     312 -> 316        0.30287

 Excited State   4:      Singlet-A      2.2211 eV  558.21 nm  f=0.1229  <S**2>=0.000
     309 -> 313        0.61427
     310 -> 314        0.12646
     311 -> 315       -0.26725

 Excited State   5:      Singlet-A      2.3880 eV  519.19 nm  f=0.0007  <S**2>=0.000
     312 -> 313        0.69673

 The electronic state is 1-A.
 Alpha  occ. eigenvalues --  -46.94607 -46.94531 -19.30920 -19.30169 -19.25329
 Alpha  occ. eigenvalues --  -19.24387 -19.24272 -19.24209 -19.22977 -19.22801
 Alpha  occ. eigenvalues --  -14.47348 -14.47045 -14.46687 -14.46140 -14.45239
 Alpha  occ. eigenvalues --  -14.44672 -14.44282 -14.43513 -10.42663 -10.42336
 Alpha  occ. eigenvalues --  -10.40584 -10.39410 -10.39185 -10.37535 -10.36573
 Alpha  occ. eigenvalues --  -10.36016 -10.35593 -10.35499 -10.35498 -10.35325
 Alpha  occ. eigenvalues --  -10.35259 -10.35243 -10.35195 -10.35134 -10.35127
 Alpha  occ. eigenvalues --  -10.34969 -10.34653 -10.34414 -10.33963 -10.33897
 Alpha  occ. eigenvalues --  -10.33715 -10.33391 -10.33287 -10.33106 -10.33079
 Alpha  occ. eigenvalues --  -10.32952 -10.32885 -10.32806 -10.32786 -10.32562
 Alpha  occ. eigenvalues --  -10.32560 -10.32450 -10.32414 -10.32383 -10.32335
 Alpha  occ. eigenvalues --  -10.32187 -10.32178 -10.32171 -10.31908 -10.31805
 Alpha  occ. eigenvalues --  -10.31583 -10.31554 -10.31531 -10.31302 -10.31294
 Alpha  occ. eigenvalues --  -10.31143 -10.31047 -10.30914 -10.30868 -10.30795
 Alpha  occ. eigenvalues --  -10.30741 -10.30649 -10.30643 -10.30322 -10.30321
 Alpha  occ. eigenvalues --  -10.30303 -10.30062 -10.29957 -10.29941 -10.29863
 Alpha  occ. eigenvalues --  -10.29571 -10.29417 -10.29343 -10.29167 -10.28706
 Alpha  occ. eigenvalues --  -10.27990  -3.20736  -3.20688  -1.94314  -1.94314
 Alpha  occ. eigenvalues --   -1.93877  -1.93796  -1.93708  -1.93688  -1.19752
 Alpha  occ. eigenvalues --   -1.18151  -1.13331  -1.12938  -1.12262  -1.11962
 Alpha  occ. eigenvalues --   -1.09774  -1.07504  -1.07485  -1.06389  -1.05756
 Alpha  occ. eigenvalues --   -1.05410  -1.05133  -1.04818  -1.04212  -1.03711
 Alpha  occ. eigenvalues --   -0.95088  -0.92811  -0.92002  -0.91174  -0.90901
 Alpha  occ. eigenvalues --   -0.90729  -0.90578  -0.90177  -0.89890  -0.89397
 Alpha  occ. eigenvalues --   -0.89267  -0.89035  -0.88834  -0.88365  -0.86365
 Alpha  occ. eigenvalues --   -0.86057  -0.85798  -0.85451  -0.84546  -0.84325
 Alpha  occ. eigenvalues --   -0.84144  -0.83665  -0.83096  -0.82836  -0.82726
 Alpha  occ. eigenvalues --   -0.81925  -0.81301  -0.80026  -0.79657  -0.79220
 Alpha  occ. eigenvalues --   -0.79168  -0.78920  -0.78155  -0.77908  -0.77263
 Alpha  occ. eigenvalues --   -0.77080  -0.75513  -0.74557  -0.73855  -0.73637
 Alpha  occ. eigenvalues --   -0.71960  -0.71622  -0.71040  -0.70731  -0.70005
 Alpha  occ. eigenvalues --   -0.69785  -0.69523  -0.68162  -0.67906  -0.67551
 Alpha  occ. eigenvalues --   -0.67408  -0.67352  -0.67042  -0.66939  -0.66552
 Alpha  occ. eigenvalues --   -0.66050  -0.64858  -0.63781  -0.63207  -0.62065
 Alpha  occ. eigenvalues --   -0.61671  -0.61451  -0.61240  -0.61055  -0.60920
 Alpha  occ. eigenvalues --   -0.60169  -0.59723  -0.59683  -0.59293  -0.59039
 Alpha  occ. eigenvalues --   -0.58202  -0.58031  -0.57744  -0.57607  -0.57409
 Alpha  occ. eigenvalues --   -0.56890  -0.56802  -0.56570  -0.56132  -0.55964
 Alpha  occ. eigenvalues --   -0.55929  -0.55560  -0.55435  -0.55029  -0.54980
 Alpha  occ. eigenvalues --   -0.54906  -0.54869  -0.54684  -0.54313  -0.54254
 Alpha  occ. eigenvalues --   -0.54158  -0.53839  -0.53572  -0.53475  -0.53403
 Alpha  occ. eigenvalues --   -0.53113  -0.52882  -0.52827  -0.52679  -0.52515
 Alpha  occ. eigenvalues --   -0.52326  -0.52205  -0.52101  -0.51845  -0.51684
 Alpha  occ. eigenvalues --   -0.51541  -0.51259  -0.51122  -0.50994  -0.50859
 Alpha  occ. eigenvalues --   -0.50829  -0.50748  -0.50527  -0.50416  -0.50261
 Alpha  occ. eigenvalues --   -0.49958  -0.49903  -0.49719  -0.49491  -0.49374
 Alpha  occ. eigenvalues --   -0.49298  -0.49089  -0.48959  -0.48763  -0.48697
 Alpha  occ. eigenvalues --   -0.48520  -0.48369  -0.48277  -0.48096  -0.47775
 Alpha  occ. eigenvalues --   -0.47670  -0.47407  -0.47349  -0.47221  -0.47004
 Alpha  occ. eigenvalues --   -0.46887  -0.46859  -0.46762  -0.46639  -0.46304
 Alpha  occ. eigenvalues --   -0.46046  -0.45993  -0.45825  -0.45762  -0.45588
 Alpha  occ. eigenvalues --   -0.45538  -0.45293  -0.45181  -0.45134  -0.44961
 Alpha  occ. eigenvalues --   -0.44887  -0.44835  -0.44617  -0.44310  -0.44196
 Alpha  occ. eigenvalues --   -0.44073  -0.43915  -0.43792  -0.43310  -0.43186
 Alpha  occ. eigenvalues --   -0.42973  -0.42821  -0.42513  -0.42320  -0.42241
 Alpha  occ. eigenvalues --   -0.42124  -0.41928  -0.41535  -0.41210  -0.41082
 Alpha  occ. eigenvalues --   -0.40518  -0.40406  -0.40050  -0.39904  -0.39818
 Alpha  occ. eigenvalues --   -0.39590  -0.39313  -0.38930  -0.38772  -0.38703
 Alpha  occ. eigenvalues --   -0.38039  -0.37644  -0.36690  -0.36385  -0.35912
 Alpha  occ. eigenvalues --   -0.35441  -0.35304  -0.34714  -0.34645  -0.33930
 Alpha  occ. eigenvalues --   -0.33576  -0.33528  -0.32847  -0.32676  -0.32330
 Alpha  occ. eigenvalues --   -0.32142  -0.32063  -0.31726  -0.26505  -0.25996
 Alpha  occ. eigenvalues --   -0.23333  -0.22725
 Alpha virt. eigenvalues --   -0.07369  -0.07020  -0.00222  -0.00103   0.02092
 Alpha virt. eigenvalues --    0.02751   0.04480   0.04604   0.06030   0.06491
 Alpha virt. eigenvalues --    0.07437   0.07815   0.07924   0.08099   0.08315

 Mulliken charges:
               1
     1  Mg   0.986017
     2  C    0.030638
     3  C   -0.069903
     4  C   -0.057127
     5  C   -0.105250
     6  N   -0.312231
     7  C   -0.009295
     8  C   -0.088721
     9  C   -0.081385
    10  C    0.046350
    11  C    0.031076
    12  C    0.052300
    13  C   -0.150304
    14  H    0.032504
    15  N   -0.452527
    16  C    0.187313
    17  C   -0.159867
    18  C   -0.074267
    19  C    0.135086
    20  C    0.093588
    21  C    0.054398
    22  O   -0.218930
    23  C   -0.002485
    24  N   -0.398843
    25  C    0.037040
    26  C   -0.083149
    27  C   -0.076247
    28  C    0.059785
    29  C    0.027206
    30  C   -0.005839
    31  C   -0.051560
    32  N   -0.527260
    33  C    0.157627
    34  C   -0.164728
    35  C   -0.042034
    36  C    0.161166
    37  C    0.081560
    38  C    0.127929
    39  O   -0.199471
    40  C   -0.130457
    41  C    0.252227
    42  O   -0.286361
    43  O   -0.342038
    44  C    0.147815
    45  H    0.001697
    46  H    0.022490
    47  H   -0.006396
    48  H    0.036950
    49  H    0.036139
    50  H    0.021143
    51  H    0.031583
    52  H    0.012940
    53  H    0.024444
    54  H    0.070030
    55  H    0.047527
    56  H    0.036279
    57  H    0.037715
    58  H    0.030970
    59  H    0.061382
    60  H    0.078224
    61  H    0.056482
    62  H    0.043217
    63  H    0.041022
    64  H    0.042244
    65  H    0.047901
    66  H    0.046927
    67  H    0.024200
    68  H    0.039184
    69  H    0.022171
    70  H    0.041086
    71  H    0.045515
    72  H    0.042589
    73  H    0.064879
    74  H    0.051921
    75  H    0.043562
    76  H    0.065982
    77  H    0.057160
    78  H    0.052677
    79  H    0.073269
    80  Mg   0.885830
    81  C    0.014855
    82  C   -0.103937
    83  C   -0.068719
    84  C   -0.081216
    85  N   -0.341278
    86  C   -0.064058
    87  C   -0.048463
    88  C   -0.095655
    89  C    0.089781
    90  C    0.014368
    91  C    0.001644
    92  C   -0.114918
    93  H    0.031781
    94  N   -0.461665
    95  C    0.158847
    96  C   -0.171498
    97  C   -0.069747
    98  C    0.143473
    99  C    0.078426
   100  C    0.062809
   101  O   -0.242503
   102  C   -0.046251
   103  N   -0.392703
   104  C    0.119699
   105  C   -0.112122
   106  C   -0.040912
   107  C    0.070063
   108  C    0.010073
   109  C    0.002461
   110  C   -0.072100
   111  N   -0.408257
   112  C    0.082196
   113  C   -0.194061
   114  C   -0.037683
   115  C    0.129605
   116  C    0.089896
   117  C    0.082275
   118  O   -0.203674
   119  C   -0.076233
   120  C    0.226297
   121  O   -0.259435
   122  O   -0.333348
   123  C    0.141944
   124  H   -0.004284
   125  H    0.028521
   126  H   -0.006678
   127  H    0.049041
   128  H    0.041964
   129  H    0.051849
   130  H    0.034485
   131  H    0.052084
   132  H    0.031993
   133  H    0.045271
   134  H    0.044063
   135  H    0.063467
   136  H    0.053699
   137  H    0.039499
   138  H    0.062141
   139  H    0.059221
   140  H    0.065903
   141  H    0.054748
   142  H    0.043683
   143  H    0.033573
   144  H    0.026165
   145  H    0.062109
   146  H    0.033958
   147  H    0.049166
   148  H    0.028283
   149  H    0.023126
   150  H    0.037124
   151  H    0.046228
   152  H    0.055200
   153  H    0.053473
   154  H    0.061562
   155  H    0.068431
   156  H    0.055657
   157  H    0.044602
   158  H    0.058333
 Sum of Mulliken charges =  -0.00000

 Dipole moment (field-independent basis, Debye):
    X=             -1.9307    Y=              0.0791    Z=              6.8190  Tot=              7.0875
 Quadrupole moment (field-independent basis, Debye-Ang):
   XX=           -561.4737   YY=           -455.9290   ZZ=           -523.3593
   XY=             -8.6414   XZ=            -13.0769   YZ=             27.6880

 Normal termination of Gaussian 16 at Sun Sep 19 10:38:13 2021.
