 Gaussian 16, Revision A.03,
 Gaussian 16:  ES64L-G16RevA.03 25-Dec-2016

 --------------------------------
 #p wB97XD/Def2SVP td=(nstates=5)
 --------------------------------

 --------------------------------
 TDDFT excited states in gaussian
 --------------------------------
 Symbolic Z-matrix:
 Charge =  0 Multiplicity = 1

                         Standard orientation:
 ---------------------------------------------------------------------
 Center     Atomic      Atomic             Coordinates (Angstroms)
 Number     Number       Type             X           Y           Z
 ---------------------------------------------------------------------
      1         12           0       31.391196    0.397560   -0.209206
      2          6           0       28.727653   -1.667739    0.889339
      3          6           0       29.423263    3.082966    0.456718
      4          6           0       34.181492    2.323196   -0.465256
      5          6           0       33.397074   -2.426683   -0.322570
      6          7           0       29.348089    0.554730    0.743461
      7          6           0       28.384067   -0.376701    1.024850
      8          6           0       27.099264    0.252587    1.417568
      9          6           0       27.276005    1.769240    0.936726
     10          6           0       28.748458    1.827883    0.712552
     11          6           0       26.445810    2.072258   -0.300182
     12          6           0       26.911330    0.005606    2.922660
     13          6           0       25.558734   -0.679019    3.391367
     14          1           0       24.642822   -0.013779    4.462471
     15          7           0       31.806437    2.413229   -0.085883
     16          6           0       30.805235    3.373602    0.114852
     17          6           0       31.391862    4.663102   -0.094929
     18          6           0       32.797826    4.502014   -0.337697
     19          6           0       32.965555    3.024583   -0.377749
     20          6           0       30.538845    5.924477   -0.053811
     21          6           0       33.853920    5.563446   -0.550503
     22          8           0       33.382605    6.735219   -0.623212
     23          6           0       35.400504    5.405235   -0.579854
     24          7           0       33.532708    0.021445   -0.383826
     25          6           0       34.469110    0.987888   -0.506498
     26          6           0       35.913941    0.430283   -0.602714
     27          6           0       35.638845   -1.111677   -0.668733
     28          6           0       34.064850   -1.178561   -0.384200
     29          6           0       36.598439    0.995341   -1.834425
     30          6           0       36.393976   -1.942246    0.323587
     31          6           0       37.427462   -2.842358   -0.297405
     32          7           0       31.163750   -1.606130    0.003826
     33          6           0       32.031714   -2.699147   -0.113300
     34          6           0       31.358547   -3.896091   -0.097656
     35          6           0       30.040670   -3.543664    0.258179
     36          6           0       29.997733   -2.156938    0.382977
     37          6           0       31.973007   -5.211107   -0.528377
     38          6           0       28.674556   -4.096178    0.458176
     39          8           0       28.295596   -5.222698    0.369725
     40          6           0       27.855715   -2.844696    0.953726
     41          6           0       26.495748   -2.918540    0.294426
     42          8           0       25.461132   -3.269578    0.861690
     43          8           0       26.575432   -2.476969   -1.048674
     44          6           0       25.263833   -2.410178   -1.692475
     45          1           0       28.742415    3.937007    0.452151
     46          1           0       35.088943    2.902415   -0.651501
     47          1           0       33.994353   -3.318291   -0.123903
     48          1           0       26.281466   -0.227180    0.879709
     49          1           0       26.934592    2.421115    1.740396
     50          1           0       26.405542    1.242716   -1.004779
     51          1           0       26.936243    2.874763   -0.852155
     52          1           0       25.441070    2.431860   -0.078298
     53          1           0       26.999552    0.972775    3.417324
     54          1           0       27.735225   -0.536739    3.386519
     55          1           0       25.954885   -1.605726    3.807362
     56          1           0       24.993789   -1.042834    2.533934
     57          1           0       29.932197    5.958321    0.851152
     58          1           0       29.864752    5.859809   -0.907844
     59          1           0       31.057972    6.882695   -0.005721
     60          1           0       35.575711    4.865734   -1.510082
     61          1           0       35.704445    4.811581    0.282370
     62          1           0       35.920533    6.362480   -0.534454
     63          1           0       36.547179    0.686987    0.246153
     64          1           0       35.735465   -1.461869   -1.696095
     65          1           0       36.478917    2.078638   -1.810596
     66          1           0       36.101926    0.586720   -2.715126
     67          1           0       37.634414    0.729010   -2.040563
     68          1           0       35.762897   -2.624576    0.893037
     69          1           0       36.915406   -1.406137    1.116311
     70          1           0       38.381380   -2.639890    0.188011
     71          1           0       37.602814   -2.621112   -1.350213
     72          1           0       37.173576   -3.902494   -0.267556
     73          1           0       31.136307   -5.881662   -0.726942
     74          1           0       32.610260   -5.642638    0.243130
     75          1           0       32.554043   -4.965610   -1.417045
     76          1           0       27.644939   -3.113345    1.989505
     77          1           0       25.266339   -1.664765   -2.487858
     78          1           0       24.508598   -2.013032   -1.015728
     79          1           0       24.916354   -3.377387   -2.056650
     80         12           0      -31.547768    0.032181    0.494633
     81          6           0      -29.249878   -1.591463   -1.672784
     82          6           0      -32.450087    1.977028   -2.318800
     83          6           0      -33.435453    1.849362    2.438556
     84          6           0      -30.267574   -1.815389    3.148720
     85          7           0      -30.901253    0.185416   -1.786175
     86          6           0      -30.017467   -0.678899   -2.384486
     87          6           0      -29.931833   -0.499025   -3.890686
     88          6           0      -30.891728    0.758042   -4.041110
     89          6           0      -31.491575    0.978731   -2.643915
     90          6           0      -30.159253    1.931444   -4.685177
     91          6           0      -30.446455   -1.758138   -4.622346
     92          6           0      -29.743208   -2.189918   -5.965302
     93          1           0      -28.924216   -1.126070   -6.733606
     94          7           0      -32.842571    1.644656    0.110979
     95          6           0      -33.000643    2.336469   -1.090235
     96          6           0      -33.991855    3.402604   -0.875369
     97          6           0      -34.361749    3.304934    0.505696
     98          6           0      -33.551289    2.194886    1.042322
     99          6           0      -34.367455    4.345706   -1.889258
    100          6           0      -35.354910    4.160481    1.285713
    101          8           0      -35.498944    4.017496    2.510278
    102          6           0      -36.296030    5.057171    0.581754
    103          7           0      -31.738037    0.088308    2.529326
    104          6           0      -32.667981    0.865967    3.089992
    105          6           0      -32.662512    0.715955    4.646059
    106          6           0      -31.802596   -0.574831    4.828674
    107          6           0      -31.211137   -0.799219    3.472380
    108          6           0      -32.167378    1.991972    5.417474
    109          6           0      -32.833974   -1.708274    5.198513
    110          6           0      -33.443695   -2.619581    4.078188
    111          7           0      -30.154649   -1.473764    0.728850
    112          6           0      -29.731780   -2.121522    1.903710
    113          6           0      -28.634531   -3.055872    1.549581
    114          6           0      -28.403261   -2.820616    0.199326
    115          6           0      -29.316162   -1.914690   -0.297774
    116          6           0      -27.866399   -3.714295    2.592115
    117          6           0      -27.455362   -3.148089   -0.862885
    118          8           0      -26.466556   -3.869363   -0.794133
    119          6           0      -27.948465   -2.333691   -2.149518
    120          6           0      -26.885392   -1.430273   -2.652946
    121          8           0      -26.745835   -0.244770   -2.366190
    122          8           0      -26.058274   -2.145596   -3.539439
    123          6           0      -24.895466   -1.537508   -4.145598
    124          1           0      -32.958874    2.445542   -3.164304
    125          1           0      -34.059482    2.405162    3.142036
    126          1           0      -29.981944   -2.362464    4.049272
    127          1           0      -28.919962   -0.276739   -4.230504
    128          1           0      -31.625043    0.481940   -4.798323
    129          1           0      -30.631868    2.332478   -5.581099
    130          1           0      -29.115192    1.760682   -4.947734
    131          1           0      -30.218507    2.756924   -3.974585
    132          1           0      -31.511800   -1.673554   -4.836450
    133          1           0      -30.319975   -2.505000   -3.837803
    134          1           0      -30.487920   -2.482243   -6.704853
    135          1           0      -29.269616   -3.145527   -5.740358
    136          1           0      -35.456177    4.319929   -1.939661
    137          1           0      -33.763870    4.214812   -2.786879
    138          1           0      -33.959429    5.260305   -1.457842
    139          1           0      -35.821825    5.946588    0.165724
    140          1           0      -37.041322    5.423571    1.287464
    141          1           0      -36.666763    4.523423   -0.292855
    142          1           0      -33.736324    0.595876    4.789810
    143          1           0      -31.095916   -0.479097    5.653399
    144          1           0      -33.021563    2.587119    5.740653
    145          1           0      -31.460240    2.498145    4.761118
    146          1           0      -31.626117    1.620951    6.287648
    147          1           0      -33.566065   -1.311296    5.902044
    148          1           0      -32.202401   -2.465835    5.663489
    149          1           0      -34.498587   -2.671013    4.346179
    150          1           0      -33.043252   -3.634131    4.088041
    151          1           0      -33.392052   -2.231153    3.061632
    152          1           0      -27.575657   -2.968384    3.330736
    153          1           0      -26.960653   -4.090717    2.115608
    154          1           0      -28.370599   -4.615513    2.939902
    155          1           0      -28.130727   -3.118234   -2.884593
    156          1           0      -23.968498   -1.751787   -3.614258
    157          1           0      -25.093296   -0.506477   -4.439144
    158          1           0      -24.908335   -2.015673   -5.125450
 ---------------------------------------------------------------------

 SCF Done:  E(RwB97XD) =  -4070.60687337     A.U. after   19 cycles

 Excitation energies and oscillator strengths:

 Excited State   1:      Singlet-A      1.6248 eV  763.07 nm  f=0.3600  <S**2>=0.000
     309 -> 315       -0.17974
     311 -> 313        0.68480
     309 <- 315       -0.11750
 This state for optimization and/or second-order correction.
 Total Energy, E(TD-HF/TD-DFT) =  -4070.54716246
 Copying the excited state density for this state as the 1-particle RhoCI density.

 Excited State   2:      Singlet-A      1.6997 eV  729.44 nm  f=0.3727  <S**2>=0.000
     310 -> 316       -0.19454
     312 -> 314        0.67892
     310 <- 316       -0.11677

 Excited State   3:      Singlet-A      2.1634 eV  573.11 nm  f=0.1555  <S**2>=0.000
     309 -> 313        0.64646
     311 -> 315        0.27021

 Excited State   4:      Singlet-A      2.2204 eV  558.39 nm  f=0.0705  <S**2>=0.000
     310 -> 314        0.62144
     312 -> 316        0.32315

 Excited State   5:      Singlet-A      3.2310 eV  383.74 nm  f=0.0021  <S**2>=0.000
     306 -> 313        0.24958
     306 -> 317        0.10024
     307 -> 313        0.63527

 The electronic state is 1-A.
 Alpha  occ. eigenvalues --  -46.95367 -46.94818 -19.30864 -19.29203 -19.25971
 Alpha  occ. eigenvalues --  -19.24886 -19.24790 -19.24320 -19.23802 -19.23371
 Alpha  occ. eigenvalues --  -14.46998 -14.46828 -14.46723 -14.45824 -14.44705
 Alpha  occ. eigenvalues --  -14.44274 -14.43617 -14.43505 -10.44254 -10.43306
 Alpha  occ. eigenvalues --  -10.39683 -10.39496 -10.39358 -10.39283 -10.36066
 Alpha  occ. eigenvalues --  -10.35407 -10.35128 -10.35041 -10.34893 -10.34879
 Alpha  occ. eigenvalues --  -10.34743 -10.34741 -10.34718 -10.34559 -10.34523
 Alpha  occ. eigenvalues --  -10.34439 -10.34426 -10.34193 -10.33218 -10.33202
 Alpha  occ. eigenvalues --  -10.33146 -10.33069 -10.32899 -10.32873 -10.32715
 Alpha  occ. eigenvalues --  -10.32594 -10.32583 -10.32450 -10.32434 -10.32372
 Alpha  occ. eigenvalues --  -10.32275 -10.32192 -10.32152 -10.32041 -10.31866
 Alpha  occ. eigenvalues --  -10.31685 -10.31571 -10.31570 -10.31432 -10.31408
 Alpha  occ. eigenvalues --  -10.31401 -10.31400 -10.31339 -10.31263 -10.31179
 Alpha  occ. eigenvalues --  -10.31093 -10.31052 -10.30933 -10.30818 -10.30750
 Alpha  occ. eigenvalues --  -10.30465 -10.30393 -10.30385 -10.30381 -10.30293
 Alpha  occ. eigenvalues --  -10.30184 -10.29879 -10.29598 -10.29358 -10.29323
 Alpha  occ. eigenvalues --  -10.29190 -10.29138 -10.29080 -10.29011 -10.28900
 Alpha  occ. eigenvalues --  -10.28666  -3.21372  -3.20808  -1.94941  -1.94501
 Alpha  occ. eigenvalues --   -1.94403  -1.94346  -1.93942  -1.93766  -1.17759
 Alpha  occ. eigenvalues --   -1.16789  -1.14286  -1.11852  -1.11441  -1.10176
 Alpha  occ. eigenvalues --   -1.09862  -1.09416  -1.07265  -1.06789  -1.06302
 Alpha  occ. eigenvalues --   -1.06078  -1.05403  -1.05064  -1.04814  -1.03349
 Alpha  occ. eigenvalues --   -0.95296  -0.93915  -0.91855  -0.91788  -0.91268
 Alpha  occ. eigenvalues --   -0.90958  -0.90517  -0.90231  -0.89804  -0.89287
 Alpha  occ. eigenvalues --   -0.88975  -0.88622  -0.88080  -0.87918  -0.86783
 Alpha  occ. eigenvalues --   -0.86212  -0.86046  -0.85188  -0.84574  -0.84568
 Alpha  occ. eigenvalues --   -0.83874  -0.83846  -0.82742  -0.82671  -0.82460
 Alpha  occ. eigenvalues --   -0.82395  -0.80946  -0.79781  -0.79386  -0.78996
 Alpha  occ. eigenvalues --   -0.78834  -0.78756  -0.78432  -0.77683  -0.77472
 Alpha  occ. eigenvalues --   -0.76719  -0.75531  -0.74221  -0.74080  -0.73268
 Alpha  occ. eigenvalues --   -0.71386  -0.71119  -0.70929  -0.70851  -0.69818
 Alpha  occ. eigenvalues --   -0.69672  -0.69263  -0.68728  -0.68252  -0.67682
 Alpha  occ. eigenvalues --   -0.67389  -0.66954  -0.66917  -0.66620  -0.66411
 Alpha  occ. eigenvalues --   -0.66161  -0.65121  -0.63503  -0.62538  -0.62350
 Alpha  occ. eigenvalues --   -0.62076  -0.61616  -0.61296  -0.61033  -0.60977
 Alpha  occ. eigenvalues --   -0.60095  -0.60000  -0.59824  -0.59128  -0.58832
 Alpha  occ. eigenvalues --   -0.58261  -0.58239  -0.57796  -0.57639  -0.57451
 Alpha  occ. eigenvalues --   -0.57184  -0.56864  -0.56326  -0.56160  -0.55925
 Alpha  occ. eigenvalues --   -0.55844  -0.55735  -0.55532  -0.55277  -0.55177
 Alpha  occ. eigenvalues --   -0.55086  -0.54691  -0.54642  -0.54250  -0.54171
 Alpha  occ. eigenvalues --   -0.54017  -0.53693  -0.53684  -0.53425  -0.53211
 Alpha  occ. eigenvalues --   -0.53057  -0.52827  -0.52751  -0.52481  -0.52479
 Alpha  occ. eigenvalues --   -0.52257  -0.52006  -0.51881  -0.51838  -0.51692
 Alpha  occ. eigenvalues --   -0.51612  -0.51525  -0.50885  -0.50864  -0.50816
 Alpha  occ. eigenvalues --   -0.50573  -0.50423  -0.50309  -0.50277  -0.50009
 Alpha  occ. eigenvalues --   -0.49943  -0.49682  -0.49532  -0.49285  -0.49171
 Alpha  occ. eigenvalues --   -0.48854  -0.48839  -0.48603  -0.48562  -0.48435
 Alpha  occ. eigenvalues --   -0.48009  -0.47964  -0.47920  -0.47844  -0.47698
 Alpha  occ. eigenvalues --   -0.47447  -0.47274  -0.47262  -0.47139  -0.46918
 Alpha  occ. eigenvalues --   -0.46826  -0.46481  -0.46193  -0.46136  -0.45997
 Alpha  occ. eigenvalues --   -0.45972  -0.45899  -0.45806  -0.45662  -0.45539
 Alpha  occ. eigenvalues --   -0.45358  -0.45270  -0.45212  -0.44889  -0.44638
 Alpha  occ. eigenvalues --   -0.44431  -0.44421  -0.44383  -0.44332  -0.43993
 Alpha  occ. eigenvalues --   -0.43838  -0.43670  -0.43665  -0.43484  -0.43421
 Alpha  occ. eigenvalues --   -0.43332  -0.43045  -0.42870  -0.42574  -0.42193
 Alpha  occ. eigenvalues --   -0.42048  -0.41741  -0.41264  -0.40974  -0.40690
 Alpha  occ. eigenvalues --   -0.40489  -0.40164  -0.39757  -0.39691  -0.39507
 Alpha  occ. eigenvalues --   -0.39345  -0.39278  -0.39086  -0.38603  -0.38383
 Alpha  occ. eigenvalues --   -0.38100  -0.37621  -0.37387  -0.36692  -0.36102
 Alpha  occ. eigenvalues --   -0.35991  -0.35505  -0.35487  -0.33991  -0.33173
 Alpha  occ. eigenvalues --   -0.33133  -0.33126  -0.32766  -0.32561  -0.32371
 Alpha  occ. eigenvalues --   -0.32175  -0.31965  -0.31454  -0.26333  -0.25794
 Alpha  occ. eigenvalues --   -0.23471  -0.22571
 Alpha virt. eigenvalues --   -0.07703  -0.06468   0.00070   0.00223   0.02308
 Alpha virt. eigenvalues --    0.02313   0.04298   0.04427   0.04992   0.06269
 Alpha virt. eigenvalues --    0.06389   0.07099   0.07434   0.07686   0.08150

 Mulliken charges:
               1
     1  Mg   0.971791
     2  C    0.037694
     3  C   -0.077550
     4  C   -0.047430
     5  C   -0.092945
     6  N   -0.359398
     7  C   -0.051832
     8  C   -0.053794
     9  C   -0.081886
    10  C    0.068505
    11  C    0.030577
    12  C    0.005051
    13  C   -0.116262
    14  H    0.047973
    15  N   -0.473418
    16  C    0.150616
    17  C   -0.148668
    18  C   -0.063266
    19  C    0.180319
    20  C    0.070454
    21  C    0.021641
    22  O   -0.276280
    23  C    0.023565
    24  N   -0.303323
    25  C    0.005102
    26  C   -0.045660
    27  C   -0.064987
    28  C    0.055355
    29  C    0.009295
    30  C   -0.002897
    31  C   -0.061506
    32  N   -0.466306
    33  C    0.108657
    34  C   -0.190714
    35  C   -0.079718
    36  C    0.147710
    37  C    0.086710
    38  C    0.122408
    39  O   -0.159440
    40  C   -0.057539
    41  C    0.245477
    42  O   -0.241402
    43  O   -0.390685
    44  C    0.140064
    45  H    0.005725
    46  H   -0.060407
    47  H    0.006926
    48  H    0.035254
    49  H    0.038506
    50  H    0.038031
    51  H    0.024513
    52  H    0.047555
    53  H    0.031354
    54  H    0.047670
    55  H    0.050613
    56  H    0.054833
    57  H    0.034280
    58  H    0.046803
    59  H    0.065079
    60  H    0.062895
    61  H    0.064259
    62  H    0.063541
    63  H    0.043472
    64  H    0.043089
    65  H    0.033489
    66  H    0.024403
    67  H    0.040193
    68  H    0.030961
    69  H    0.026659
    70  H    0.031342
    71  H    0.020864
    72  H    0.039958
    73  H    0.062311
    74  H    0.052061
    75  H    0.046472
    76  H    0.069843
    77  H    0.047277
    78  H    0.043979
    79  H    0.064146
    80  Mg   0.958839
    81  C    0.014175
    82  C   -0.115995
    83  C   -0.071713
    84  C   -0.091825
    85  N   -0.268423
    86  C   -0.050165
    87  C   -0.080586
    88  C   -0.081140
    89  C    0.061293
    90  C    0.017854
    91  C   -0.000783
    92  C   -0.101170
    93  H    0.041873
    94  N   -0.420379
    95  C    0.160607
    96  C   -0.187230
    97  C   -0.089537
    98  C    0.145929
    99  C    0.087495
   100  C    0.060869
   101  O   -0.251534
   102  C   -0.004472
   103  N   -0.411431
   104  C    0.041846
   105  C   -0.106387
   106  C   -0.056862
   107  C    0.053181
   108  C    0.041980
   109  C   -0.057130
   110  C   -0.040267
   111  N   -0.481957
   112  C    0.164287
   113  C   -0.192769
   114  C   -0.021512
   115  C    0.160009
   116  C    0.078023
   117  C    0.119492
   118  O   -0.196979
   119  C   -0.104582
   120  C    0.296027
   121  O   -0.245667
   122  O   -0.393122
   123  C    0.148807
   124  H    0.010772
   125  H    0.016607
   126  H   -0.005073
   127  H    0.045972
   128  H    0.028873
   129  H    0.025211
   130  H    0.045306
   131  H    0.027075
   132  H    0.030843
   133  H    0.034368
   134  H    0.044119
   135  H    0.052226
   136  H    0.062317
   137  H    0.037757
   138  H    0.061561
   139  H    0.050587
   140  H    0.063448
   141  H    0.049851
   142  H    0.039311
   143  H    0.036126
   144  H    0.056260
   145  H    0.049505
   146  H    0.029632
   147  H    0.044650
   148  H    0.027429
   149  H    0.033412
   150  H    0.043542
   151  H    0.047337
   152  H    0.057811
   153  H    0.044333
   154  H    0.045832
   155  H    0.074992
   156  H    0.071696
   157  H    0.047347
   158  H    0.039995
 Sum of Mulliken charges =  -0.00000

 Dipole moment (field-independent basis, Debye):
    X=             -0.2974    Y=              2.9330    Z=             -4.4976  Tot=              5.3777
 Quadrupole moment (field-independent basis, Debye-Ang):
   XX=            -77.1652   YY=           -558.9296   ZZ=           -476.0321
   XY=            -35.9458   XZ=             34.5495   YZ=             -7.0863

 Normal termination of Gaussian 16 at Sun Sep 19 18:51:07 2021.
