 Gaussian 16, Revision A.03,
 Gaussian 16:  ES64L-G16RevA.03 25-Dec-2016

 --------------------------------
 #p wB97XD/Def2SVP td=(nstates=5)
 --------------------------------

 --------------------------------
 TDDFT excited states in gaussian
 --------------------------------
 Symbolic Z-matrix:
 Charge =  0 Multiplicity = 1

                         Standard orientation:
 ---------------------------------------------------------------------
 Center     Atomic      Atomic             Coordinates (Angstroms)
 Number     Number       Type             X           Y           Z
 ---------------------------------------------------------------------
      1         12           0       -0.652438    0.149752    0.261411
      2          6           0        2.808977   -0.125998    0.375593
      3          6           0       -0.801435   -3.267916   -0.004091
      4          6           0       -4.072727    0.420208   -0.117245
      5          6           0       -0.413529    3.614650   -0.035207
      6          7           0        0.843331   -1.489412    0.293544
      7          6           0        2.174035   -1.395882    0.456972
      8          6           0        2.902306   -2.747459    0.642691
      9          6           0        1.741800   -3.767956    0.274351
     10          6           0        0.476673   -2.793746    0.127209
     11          6           0        2.141089   -4.549242   -1.028004
     12          6           0        3.392834   -2.813004    2.179355
     13          6           0        4.903995   -3.104997    2.415428
     14          1           0        5.621954   -3.789098    1.196296
     15          7           0       -2.239389   -1.181781   -0.092507
     16          6           0       -2.081839   -2.583118   -0.081003
     17          6           0       -3.392404   -3.197198   -0.065249
     18          6           0       -4.340388   -2.169529   -0.148578
     19          6           0       -3.571005   -0.874799   -0.042292
     20          6           0       -3.566137   -4.707450   -0.280037
     21          6           0       -5.881660   -2.298332   -0.274208
     22          8           0       -6.677862   -1.343075   -0.338643
     23          6           0       -6.496892   -3.707988   -0.242672
     24          7           0       -1.996437    1.813933   -0.111615
     25          6           0       -3.409698    1.615860   -0.167146
     26          6           0       -4.121731    2.933381   -0.538584
     27          6           0       -2.961825    3.989406   -0.224884
     28          6           0       -1.711189    3.084967   -0.068967
     29          6           0       -4.637229    2.846344   -1.965616
     30          6           0       -3.246176    4.783603    1.119157
     31          6           0       -3.566056    4.129292    2.506292
     32          7           0        0.836615    1.486658    0.104925
     33          6           0        0.814426    2.878308   -0.029043
     34          6           0        2.155390    3.365862   -0.044638
     35          6           0        2.961169    2.258802    0.151336
     36          6           0        2.136359    1.106947    0.135225
     37          6           0        2.614897    4.789300   -0.285560
     38          6           0        4.299850    1.845452    0.302016
     39          8           0        5.276104    2.518312    0.203667
     40          6           0        4.254613    0.261686    0.335018
     41          6           0        4.933647   -0.198736   -0.925184
     42          8           0        4.346635   -0.650479   -1.886142
     43          8           0        6.245144    0.023056   -0.777527
     44          6           0        6.954333    0.055373   -2.033167
     45          1           0       -0.865462   -4.357808   -0.007381
     46          1           0       -5.102738    0.481675   -0.472805
     47          1           0       -0.320951    4.698250   -0.138848
     48          1           0        3.787722   -2.885683    0.022476
     49          1           0        1.495919   -4.484716    1.058206
     50          1           0        1.341646   -4.667625   -1.759811
     51          1           0        2.423592   -5.496463   -0.569460
     52          1           0        3.053382   -4.086120   -1.403202
     53          1           0        2.723990   -3.498406    2.699482
     54          1           0        3.170068   -1.839721    2.617302
     55          1           0        4.851980   -3.765988    3.279899
     56          1           0        5.504299   -2.236635    2.685260
     57          1           0       -4.220501   -4.832888   -1.143062
     58          1           0       -4.102352   -5.132858    0.569322
     59          1           0       -2.592397   -5.177099   -0.415686
     60          1           0       -6.261493   -4.174747   -1.200031
     61          1           0       -7.575965   -3.555133   -0.250314
     62          1           0       -6.262354   -4.186775    0.707725
     63          1           0       -4.887828    3.056062    0.227572
     64          1           0       -2.946125    4.760099   -0.994677
     65          1           0       -4.874591    1.828021   -2.273911
     66          1           0       -3.902385    3.246644   -2.663716
     67          1           0       -5.580391    3.382466   -2.069039
     68          1           0       -4.023700    5.518001    0.908645
     69          1           0       -2.289142    5.269156    1.310179
     70          1           0       -4.643251    3.974474    2.569410
     71          1           0       -3.239462    4.857657    3.249457
     72          1           0       -2.991049    3.238704    2.761913
     73          1           0        2.219991    5.482030    0.457810
     74          1           0        2.198765    5.032748   -1.262931
     75          1           0        3.683205    4.969458   -0.157762
     76          1           0        4.770623   -0.244747    1.150913
     77          1           0        7.821900    0.714825   -2.034134
     78          1           0        6.431277    0.157641   -2.983880
     79          1           0        7.415247   -0.897286   -2.295021
 ---------------------------------------------------------------------

 SCF Done:  E(RwB97XD) =  -2035.30815490     A.U. after   19 cycles

 Excitation energies and oscillator strengths:

 Excited State   1:      Singlet-A      1.6513 eV  750.81 nm  f=0.3885  <S**2>=0.000
     155 ->158        -0.18091
     156 ->157         0.68425
     155 <-158        -0.11558
 This state for optimization and/or second-order correction.
 Total Energy, E(TD-HF/TD-DFT) =  -2035.24746896
 Copying the excited state density for this state as the 1-particle RhoCI density.

 Excited State   2:      Singlet-A      2.1706 eV  571.19 nm  f=0.1245  <S**2>=0.000
     155 ->157         0.64462
     156 ->158         0.27779

 Excited State   3:      Singlet-A      3.4207 eV  362.45 nm  f=0.0253  <S**2>=0.000
     152 ->157         0.50605
     153 ->157        -0.21742
     154 ->157        -0.35985
     156 ->158        -0.19482

 Excited State   4:      Singlet-A      3.4803 eV  356.24 nm  f=0.1428  <S**2>=0.000
     150 ->157         0.18588
     150 ->159        -0.14133
     151 ->157         0.42575
     151 ->159        -0.20675
     152 ->157         0.19175
     154 ->157         0.12200
     155 ->157        -0.13527
     156 ->158         0.32033

 Excited State   5:      Singlet-A      3.5850 eV  345.84 nm  f=0.2308  <S**2>=0.000
     152 ->157         0.14496
     154 ->157         0.46910
     155 ->157         0.16360
     156 ->158        -0.43256

 The electronic state is 1-A.
 Alpha  occ. eigenvalues --  -46.94415 -19.31393 -19.25017 -19.24444 -19.23576
 Alpha  occ. eigenvalues --  -14.46833 -14.46019 -14.44112 -14.43697 -10.43166
 Alpha  occ. eigenvalues --  -10.39044 -10.38862 -10.35666 -10.35105 -10.34690
 Alpha  occ. eigenvalues --  -10.34325 -10.34275 -10.33883 -10.33818 -10.33609
 Alpha  occ. eigenvalues --  -10.33599 -10.32959 -10.32611 -10.32438 -10.32344
 Alpha  occ. eigenvalues --  -10.32202 -10.31907 -10.31752 -10.31704 -10.31626
 Alpha  occ. eigenvalues --  -10.31073 -10.31034 -10.30776 -10.30744 -10.30568
 Alpha  occ. eigenvalues --  -10.30480 -10.30194 -10.29653 -10.29614 -10.29420
 Alpha  occ. eigenvalues --  -10.29175 -10.29077 -10.28777  -3.20447  -1.94039
 Alpha  occ. eigenvalues --   -1.93549  -1.93440  -1.20363  -1.14302  -1.11280
 Alpha  occ. eigenvalues --   -1.10478  -1.06181  -1.05325  -1.04739  -1.03133
 Alpha  occ. eigenvalues --   -0.94820  -0.90428  -0.89983  -0.89623  -0.89019
 Alpha  occ. eigenvalues --   -0.88425  -0.87917  -0.85879  -0.85257  -0.84149
 Alpha  occ. eigenvalues --   -0.83155  -0.82800  -0.81866  -0.79636  -0.79013
 Alpha  occ. eigenvalues --   -0.78654  -0.77780  -0.76881  -0.74960  -0.73137
 Alpha  occ. eigenvalues --   -0.70818  -0.70629  -0.69930  -0.68321  -0.67807
 Alpha  occ. eigenvalues --   -0.66540  -0.66453  -0.65863  -0.64366  -0.61981
 Alpha  occ. eigenvalues --   -0.61410  -0.60901  -0.60383  -0.59993  -0.59236
 Alpha  occ. eigenvalues --   -0.58205  -0.57657  -0.56902  -0.56362  -0.55890
 Alpha  occ. eigenvalues --   -0.55310  -0.55057  -0.54434  -0.54096  -0.53893
 Alpha  occ. eigenvalues --   -0.53823  -0.53676  -0.52861  -0.52577  -0.51844
 Alpha  occ. eigenvalues --   -0.51758  -0.51450  -0.51057  -0.50735  -0.50479
 Alpha  occ. eigenvalues --   -0.50219  -0.49847  -0.49657  -0.49390  -0.49086
 Alpha  occ. eigenvalues --   -0.48577  -0.48178  -0.48085  -0.47745  -0.47481
 Alpha  occ. eigenvalues --   -0.47137  -0.46891  -0.46518  -0.46434  -0.46245
 Alpha  occ. eigenvalues --   -0.45668  -0.45570  -0.45365  -0.44990  -0.44906
 Alpha  occ. eigenvalues --   -0.44567  -0.44283  -0.43794  -0.43701  -0.43261
 Alpha  occ. eigenvalues --   -0.42689  -0.42596  -0.42179  -0.41447  -0.41039
 Alpha  occ. eigenvalues --   -0.39659  -0.39388  -0.39094  -0.38976  -0.38437
 Alpha  occ. eigenvalues --   -0.38148  -0.36751  -0.36080  -0.34927  -0.33804
 Alpha  occ. eigenvalues --   -0.33049  -0.32479  -0.32304  -0.31688  -0.25681
 Alpha  occ. eigenvalues --   -0.22775
 Alpha virt. eigenvalues --   -0.06895   0.00612   0.02620   0.04606   0.05625
 Alpha virt. eigenvalues --    0.07115   0.08329   0.08614   0.10282   0.11082
 Alpha virt. eigenvalues --    0.11968   0.12322   0.12918   0.13154   0.14410

 Mulliken charges:
               1
     1  Mg   0.964206
     2  C   -0.022323
     3  C   -0.067134
     4  C   -0.064536
     5  C   -0.108225
     6  N   -0.333566
     7  C    0.014023
     8  C   -0.076134
     9  C   -0.120492
    10  C    0.066992
    11  C    0.027386
    12  C   -0.000155
    13  C   -0.127123
    14  H    0.034986
    15  N   -0.460928
    16  C    0.133582
    17  C   -0.174333
    18  C   -0.090003
    19  C    0.138166
    20  C    0.086595
    21  C    0.051315
    22  O   -0.252417
    23  C   -0.016462
    24  N   -0.338843
    25  C    0.022128
    26  C   -0.061350
    27  C   -0.072379
    28  C    0.096997
    29  C    0.042019
    30  C   -0.059412
    31  C   -0.054430
    32  N   -0.488492
    33  C    0.148201
    34  C   -0.183962
    35  C   -0.008186
    36  C    0.148276
    37  C    0.079501
    38  C    0.095120
    39  O   -0.162836
    40  C   -0.097283
    41  C    0.245587
    42  O   -0.236997
    43  O   -0.309761
    44  C    0.140922
    45  H   -0.012921
    46  H    0.030855
    47  H    0.003271
    48  H    0.039900
    49  H    0.038827
    50  H    0.052155
    51  H    0.032879
    52  H    0.049457
    53  H    0.033229
    54  H    0.042312
    55  H    0.057012
    56  H    0.070025
    57  H    0.044553
    58  H    0.039322
    59  H    0.041515
    60  H    0.061841
    61  H    0.044478
    62  H    0.064000
    63  H    0.035094
    64  H    0.030283
    65  H    0.046247
    66  H    0.035058
    67  H    0.037256
    68  H    0.038900
    69  H    0.021494
    70  H    0.047718
    71  H    0.037249
    72  H    0.043652
    73  H    0.037568
    74  H    0.056845
    75  H    0.057387
    76  H    0.056383
    77  H    0.058017
    78  H    0.054721
    79  H    0.025176
 Sum of Mulliken charges =  -0.00000

 Dipole moment (field-independent basis, Debye):
    X=              0.9217    Y=             -1.5556    Z=              1.5445  Tot=              2.3780
 Quadrupole moment (field-independent basis, Debye-Ang):
   XX=           -273.4804   YY=           -224.4852   ZZ=           -250.8413
   XY=            -11.5043   XZ=             -2.2496   YZ=             -4.9547

 Normal termination of Gaussian 16 at Sun Sep 19 16:03:30 2021.
