 Gaussian 16, Revision A.03,
 Gaussian 16:  ES64L-G16RevA.03 25-Dec-2016

 --------------------------------
 #p wB97XD/Def2SVP td=(nstates=5)
 --------------------------------

 --------------------------------
 TDDFT excited states in gaussian
 --------------------------------
 Symbolic Z-matrix:
 Charge =  0 Multiplicity = 1

                         Standard orientation:
 ---------------------------------------------------------------------
 Center     Atomic      Atomic             Coordinates (Angstroms)
 Number     Number       Type             X           Y           Z
 ---------------------------------------------------------------------
      1         12           0       19.271272   -0.691894   -0.124922
      2          6           0       21.239120    2.130827    0.362083
      3          6           0       17.216565    0.336030    2.339031
      4          6           0       17.847088   -3.759137   -0.071452
      5          6           0       21.884422   -2.080578   -2.073448
      6          7           0       19.263788    1.071133    1.067173
      7          6           0       20.039434    2.209827    1.050580
      8          6           0       19.545284    3.220427    2.122026
      9          6           0       18.651213    2.304421    3.013510
     10          6           0       18.255576    1.203084    2.040948
     11          6           0       19.375460    1.698841    4.267040
     12          6           0       18.967322    4.442756    1.385502
     13          6           0       19.341707    5.746148    1.981622
     14          1           0       19.210764    6.894118    1.086561
     15          7           0       17.617252   -1.473483    0.825627
     16          6           0       16.869159   -0.848197    1.771070
     17          6           0       15.639243   -1.581259    1.936603
     18          6           0       15.827718   -2.810713    1.207868
     19          6           0       17.192305   -2.753085    0.675652
     20          6           0       14.527051   -1.137999    2.818060
     21          6           0       14.931923   -4.086698    1.089790
     22          8           0       15.245639   -5.063093    0.405889
     23          6           0       13.557618   -4.133193    1.696991
     24          7           0       20.005140   -2.729982   -0.691579
     25          6           0       19.099259   -3.825300   -0.666153
     26          6           0       19.596649   -5.024824   -1.402729
     27          6           0       20.763950   -4.342274   -2.187250
     28          6           0       20.858198   -2.912478   -1.661196
     29          6           0       20.021969   -6.216100   -0.479035
     30          6           0       20.544932   -4.325175   -3.744261
     31          6           0       19.183487   -3.761629   -4.225156
     32          7           0       21.127430   -0.094902   -0.838757
     33          6           0       22.058727   -0.744847   -1.663361
     34          6           0       23.132446    0.158006   -1.848316
     35          6           0       22.825913    1.286682   -1.098409
     36          6           0       21.623615    1.072788   -0.509127
     37          6           0       24.317730   -0.072037   -2.730832
     38          6           0       23.335241    2.507878   -0.680839
     39          8           0       24.421239    3.048533   -0.958590
     40          6           0       22.346308    3.197214    0.306911
     41          6           0       21.987305    4.533424   -0.415049
     42          8           0       21.312691    4.633097   -1.455364
     43          8           0       22.556771    5.577605    0.305629
     44          6           0       22.574368    6.941366   -0.312758
     45          1           0       16.685361    0.725951    3.209888
     46          1           0       17.466485   -4.760983   -0.284352
     47          1           0       22.616700   -2.370467   -2.829955
     48          1           0       20.391292    3.636304    2.668181
     49          1           0       17.746790    2.846978    3.287140
     50          1           0       20.398744    2.033579    4.439546
     51          1           0       19.511391    0.624678    4.148028
     52          1           0       18.824254    1.988231    5.161527
     53          1           0       17.888411    4.379782    1.520152
     54          1           0       19.268995    4.371071    0.340185
     55          1           0       20.402141    5.664545    2.220772
     56          1           0       18.802224    5.863744    2.921220
     57          1           0       14.592647   -0.072547    3.037714
     58          1           0       14.453466   -1.839135    3.650061
     59          1           0       13.583928   -1.234441    2.280064
     60          1           0       13.368268   -5.195346    1.853825
     61          1           0       12.810654   -3.760402    0.995777
     62          1           0       13.519191   -3.629253    2.663238
     63          1           0       18.887242   -5.423043   -2.129524
     64          1           0       21.691784   -4.867752   -1.958914
     65          1           0       20.220558   -5.832854    0.522222
     66          1           0       20.911695   -6.772649   -0.773977
     67          1           0       19.284112   -7.008848   -0.352355
     68          1           0       20.737995   -5.343890   -4.080921
     69          1           0       21.392040   -3.744266   -4.108869
     70          1           0       19.294630   -2.898363   -4.881600
     71          1           0       18.619924   -3.501706   -3.328656
     72          1           0       18.599730   -4.492672   -4.783734
     73          1           0       25.190304    0.046425   -2.088491
     74          1           0       24.269206    0.650761   -3.545256
     75          1           0       24.405666   -1.076384   -3.145331
     76          1           0       22.888093    3.426382    1.224160
     77          1           0       23.143832    6.845306   -1.236917
     78          1           0       23.015666    7.754100    0.264064
     79          1           0       21.497503    7.032864   -0.454779
     80         12           0      -19.862445   -0.443794    0.144770
     81          6           0      -19.551508    2.655045   -1.223300
     82          6           0      -19.471655    0.844406    3.310953
     83          6           0      -20.008092   -3.604828    1.347856
     84          6           0      -19.778748   -1.773553   -3.128835
     85          7           0      -19.323167    1.516209    0.933282
     86          6           0      -19.580335    2.639181    0.210892
     87          6           0      -19.691754    3.869607    1.045851
     88          6           0      -19.394863    3.232796    2.500963
     89          6           0      -19.392358    1.758981    2.259295
     90          6           0      -18.012987    3.732810    3.122604
     91          6           0      -21.182060    4.439116    0.929704
     92          6           0      -21.393060    5.921650    1.244637
     93          1           0      -20.351895    6.821776    1.955446
     94          7           0      -19.860120   -1.306165    2.050212
     95          6           0      -19.660751   -0.584306    3.238344
     96          6           0      -19.677815   -1.540548    4.320939
     97          6           0      -19.862334   -2.825329    3.770802
     98          6           0      -19.965460   -2.585092    2.338018
     99          6           0      -19.569071   -1.082528    5.794101
    100          6           0      -19.853714   -4.243395    4.549028
    101          8           0      -20.164923   -5.308288    4.000740
    102          6           0      -19.505334   -4.409815    6.018949
    103          7           0      -19.959235   -2.437229   -0.812744
    104          6           0      -19.971081   -3.559244   -0.054108
    105          6           0      -19.743675   -4.809205   -0.902646
    106          6           0      -20.006150   -4.232685   -2.411027
    107          6           0      -20.026391   -2.718723   -2.148105
    108          6           0      -18.376770   -5.594514   -0.646759
    109          6           0      -21.434997   -4.577767   -3.073508
    110          6           0      -21.498028   -5.138162   -4.482456
    111          7           0      -19.753198    0.225059   -1.830969
    112          6           0      -19.715420   -0.387028   -3.027522
    113          6           0      -19.719218    0.635617   -4.120132
    114          6           0      -19.710822    1.852029   -3.397125
    115          6           0      -19.604499    1.511313   -2.026518
    116          6           0      -19.770879    0.484812   -5.599369
    117          6           0      -19.712510    3.248651   -3.623592
    118          8           0      -19.736828    3.892771   -4.692466
    119          6           0      -19.604485    3.840742   -2.220640
    120          6           0      -18.394228    4.625991   -2.137921
    121          8           0      -17.260144    4.334248   -2.356691
    122          8           0      -18.768225    5.858696   -1.611219
    123          6           0      -17.761505    6.948107   -1.312766
    124          1           0      -19.581193    1.195150    4.338886
    125          1           0      -19.957192   -4.623321    1.739297
    126          1           0      -19.554434   -2.110401   -4.142475
    127          1           0      -19.041919    4.729691    0.885602
    128          1           0      -20.182870    3.483067    3.211226
    129          1           0      -18.001902    3.877902    4.202599
    130          1           0      -17.665101    4.601665    2.564095
    131          1           0      -17.288698    2.940521    2.930654
    132          1           0      -21.873282    3.881976    1.562387
    133          1           0      -21.474157    4.255960   -0.104645
    134          1           0      -22.323239    5.968763    1.812311
    135          1           0      -21.635931    6.440127    0.317896
    136          1           0      -19.535830   -0.001189    5.926492
    137          1           0      -18.676766   -1.557226    6.200866
    138          1           0      -20.425030   -1.503445    6.322113
    139          1           0      -20.335029   -3.942629    6.548172
    140          1           0      -18.699938   -3.746664    6.335287
    141          1           0      -19.196432   -5.434694    6.223610
    142          1           0      -20.555396   -5.505085   -0.687271
    143          1           0      -19.229747   -4.570092   -3.097934
    144          1           0      -17.784027   -5.665655   -1.559038
    145          1           0      -18.584664   -6.588054   -0.251209
    146          1           0      -17.743730   -5.046132    0.051243
    147          1           0      -22.124563   -3.736055   -3.011009
    148          1           0      -21.902338   -5.307386   -2.412872
    149          1           0      -22.130916   -4.460970   -5.054953
    150          1           0      -21.867308   -6.162732   -4.517358
    151          1           0      -20.511786   -5.078812   -4.944913
    152          1           0      -19.886189   -0.539738   -5.952686
    153          1           0      -18.858209    0.862878   -6.060751
    154          1           0      -20.612212    1.068063   -5.973103
    155          1           0      -20.454714    4.477970   -1.975687
    156          1           0      -16.749920    6.596176   -1.516258
    157          1           0      -17.792506    7.192837   -0.250205
    158          1           0      -18.037987    7.781189   -1.958956
 ---------------------------------------------------------------------

 SCF Done:  E(RwB97XD) =  -4070.61393932     A.U. after   19 cycles

 Excitation energies and oscillator strengths:

 Excited State   1:      Singlet-A      1.6038 eV  773.06 nm  f=0.3761  <S**2>=0.000
     309 -> 316        0.16815
     311 -> 313        0.68668
     309 <- 316        0.11353
 This state for optimization and/or second-order correction.
 Total Energy, E(TD-HF/TD-DFT) =  -4070.55500024
 Copying the excited state density for this state as the 1-particle RhoCI density.

 Excited State   2:      Singlet-A      1.6817 eV  737.26 nm  f=0.3952  <S**2>=0.000
     310 -> 315       -0.19775
     312 -> 314        0.68064
     310 <- 315       -0.11935

 Excited State   3:      Singlet-A      2.1619 eV  573.49 nm  f=0.1219  <S**2>=0.000
     309 -> 313        0.64147
     311 -> 316       -0.27557

 Excited State   4:      Singlet-A      2.1739 eV  570.33 nm  f=0.1009  <S**2>=0.000
     310 -> 314        0.63665
     312 -> 315        0.29858

 Excited State   5:      Singlet-A      3.2511 eV  381.36 nm  f=0.0002  <S**2>=0.000
     306 -> 313        0.18386
     306 -> 318       -0.10938
     306 -> 320       -0.12653
     307 -> 313        0.55404
     308 -> 313       -0.31601

 The electronic state is 1-A.
 Alpha  occ. eigenvalues --  -46.95754 -46.94657 -19.29982 -19.28955 -19.24976
 Alpha  occ. eigenvalues --  -19.24549 -19.24230 -19.23921 -19.23730 -19.22747
 Alpha  occ. eigenvalues --  -14.47068 -14.46553 -14.46296 -14.46067 -14.44150
 Alpha  occ. eigenvalues --  -14.44004 -14.43908 -14.43104 -10.43934 -10.42508
 Alpha  occ. eigenvalues --  -10.40240 -10.39228 -10.38553 -10.37662 -10.35819
 Alpha  occ. eigenvalues --  -10.35722 -10.35685 -10.35006 -10.34692 -10.34684
 Alpha  occ. eigenvalues --  -10.34550 -10.34329 -10.34229 -10.34223 -10.34208
 Alpha  occ. eigenvalues --  -10.34061 -10.33912 -10.33745 -10.33362 -10.33154
 Alpha  occ. eigenvalues --  -10.33082 -10.33011 -10.32819 -10.32406 -10.32397
 Alpha  occ. eigenvalues --  -10.32363 -10.32349 -10.32336 -10.32330 -10.32310
 Alpha  occ. eigenvalues --  -10.32201 -10.32045 -10.32035 -10.31967 -10.31886
 Alpha  occ. eigenvalues --  -10.31813 -10.31794 -10.31619 -10.31596 -10.31581
 Alpha  occ. eigenvalues --  -10.31451 -10.31424 -10.31335 -10.31239 -10.31048
 Alpha  occ. eigenvalues --  -10.30904 -10.30780 -10.30540 -10.30520 -10.30491
 Alpha  occ. eigenvalues --  -10.30321 -10.30240 -10.30138 -10.30065 -10.30048
 Alpha  occ. eigenvalues --  -10.29977 -10.29955 -10.29935 -10.29774 -10.29681
 Alpha  occ. eigenvalues --  -10.29663 -10.29630 -10.29389 -10.29182 -10.28856
 Alpha  occ. eigenvalues --  -10.27809  -3.21609  -3.20687  -1.95218  -1.94712
 Alpha  occ. eigenvalues --   -1.94590  -1.94256  -1.93816  -1.93660  -1.17810
 Alpha  occ. eigenvalues --   -1.16591  -1.11738  -1.11652  -1.10616  -1.10184
 Alpha  occ. eigenvalues --   -1.09440  -1.08860  -1.07643  -1.06852  -1.06493
 Alpha  occ. eigenvalues --   -1.05914  -1.05607  -1.05514  -1.04669  -1.04226
 Alpha  occ. eigenvalues --   -0.95535  -0.94539  -0.91008  -0.90909  -0.90562
 Alpha  occ. eigenvalues --   -0.90446  -0.90151  -0.89698  -0.89454  -0.89067
 Alpha  occ. eigenvalues --   -0.89011  -0.88812  -0.88464  -0.88180  -0.86482
 Alpha  occ. eigenvalues --   -0.86296  -0.85435  -0.85374  -0.84270  -0.84047
 Alpha  occ. eigenvalues --   -0.83540  -0.83509  -0.83150  -0.82929  -0.82339
 Alpha  occ. eigenvalues --   -0.82289  -0.80391  -0.80141  -0.79424  -0.79081
 Alpha  occ. eigenvalues --   -0.78976  -0.78850  -0.78147  -0.77950  -0.77383
 Alpha  occ. eigenvalues --   -0.77126  -0.75233  -0.74627  -0.73992  -0.73979
 Alpha  occ. eigenvalues --   -0.71696  -0.71299  -0.70740  -0.70584  -0.70180
 Alpha  occ. eigenvalues --   -0.69510  -0.68477  -0.67983  -0.67318  -0.67270
 Alpha  occ. eigenvalues --   -0.67185  -0.66580  -0.66534  -0.66443  -0.66268
 Alpha  occ. eigenvalues --   -0.66031  -0.63859  -0.63587  -0.62486  -0.61909
 Alpha  occ. eigenvalues --   -0.61864  -0.61749  -0.61197  -0.61125  -0.60822
 Alpha  occ. eigenvalues --   -0.60458  -0.60425  -0.59759  -0.59551  -0.58953
 Alpha  occ. eigenvalues --   -0.58038  -0.57935  -0.57554  -0.57533  -0.57257
 Alpha  occ. eigenvalues --   -0.57257  -0.56961  -0.56715  -0.56164  -0.55725
 Alpha  occ. eigenvalues --   -0.55431  -0.54979  -0.54956  -0.54917  -0.54885
 Alpha  occ. eigenvalues --   -0.54758  -0.54725  -0.54370  -0.54132  -0.54099
 Alpha  occ. eigenvalues --   -0.53845  -0.53624  -0.53613  -0.53571  -0.53385
 Alpha  occ. eigenvalues --   -0.53369  -0.52781  -0.52502  -0.52408  -0.52265
 Alpha  occ. eigenvalues --   -0.51746  -0.51628  -0.51547  -0.51387  -0.51326
 Alpha  occ. eigenvalues --   -0.51087  -0.51085  -0.50838  -0.50809  -0.50676
 Alpha  occ. eigenvalues --   -0.50441  -0.50263  -0.50112  -0.50017  -0.49904
 Alpha  occ. eigenvalues --   -0.49894  -0.49628  -0.49571  -0.49312  -0.49262
 Alpha  occ. eigenvalues --   -0.48992  -0.48892  -0.48522  -0.48508  -0.48415
 Alpha  occ. eigenvalues --   -0.48195  -0.48165  -0.48108  -0.47880  -0.47634
 Alpha  occ. eigenvalues --   -0.47534  -0.47382  -0.47153  -0.46657  -0.46535
 Alpha  occ. eigenvalues --   -0.46394  -0.46289  -0.46253  -0.46065  -0.45925
 Alpha  occ. eigenvalues --   -0.45848  -0.45674  -0.45670  -0.45370  -0.45366
 Alpha  occ. eigenvalues --   -0.45108  -0.45091  -0.44991  -0.44610  -0.44588
 Alpha  occ. eigenvalues --   -0.44340  -0.44291  -0.43848  -0.43743  -0.43698
 Alpha  occ. eigenvalues --   -0.43586  -0.43499  -0.43319  -0.43085  -0.43046
 Alpha  occ. eigenvalues --   -0.42943  -0.42797  -0.42773  -0.42597  -0.42145
 Alpha  occ. eigenvalues --   -0.42125  -0.41855  -0.41671  -0.41361  -0.41045
 Alpha  occ. eigenvalues --   -0.40341  -0.40171  -0.39958  -0.39766  -0.39547
 Alpha  occ. eigenvalues --   -0.39276  -0.38878  -0.38785  -0.38591  -0.38530
 Alpha  occ. eigenvalues --   -0.38140  -0.38074  -0.36487  -0.36245  -0.36156
 Alpha  occ. eigenvalues --   -0.36093  -0.35459  -0.35427  -0.33527  -0.33407
 Alpha  occ. eigenvalues --   -0.33155  -0.33039  -0.32725  -0.32382  -0.32248
 Alpha  occ. eigenvalues --   -0.32038  -0.31904  -0.31527  -0.26148  -0.25772
 Alpha  occ. eigenvalues --   -0.22989  -0.22958
 Alpha virt. eigenvalues --   -0.07344  -0.06883   0.00171   0.00443   0.02020
 Alpha virt. eigenvalues --    0.02616   0.04421   0.04475   0.05413   0.05806
 Alpha virt. eigenvalues --    0.07145   0.07298   0.07437   0.07991   0.08346

 Mulliken charges:
               1
     1  Mg   0.955839
     2  C   -0.066818
     3  C   -0.119205
     4  C   -0.021085
     5  C   -0.102655
     6  N   -0.406669
     7  C    0.019946
     8  C   -0.101629
     9  C   -0.087826
    10  C    0.034043
    11  C    0.034883
    12  C    0.039841
    13  C   -0.123639
    14  H    0.052842
    15  N   -0.463889
    16  C    0.229575
    17  C   -0.175579
    18  C   -0.078354
    19  C    0.188420
    20  C    0.069187
    21  C    0.055856
    22  O   -0.248545
    23  C   -0.006300
    24  N   -0.316629
    25  C   -0.057300
    26  C   -0.058043
    27  C   -0.099818
    28  C    0.111882
    29  C    0.018230
    30  C   -0.021932
    31  C   -0.053887
    32  N   -0.434929
    33  C    0.116751
    34  C   -0.197843
    35  C    0.053952
    36  C    0.194415
    37  C    0.092940
    38  C    0.016659
    39  O   -0.242782
    40  C   -0.028785
    41  C    0.287637
    42  O   -0.268736
    43  O   -0.389818
    44  C    0.142332
    45  H   -0.000927
    46  H    0.018655
    47  H    0.002552
    48  H    0.020106
    49  H    0.019448
    50  H    0.035601
    51  H    0.053066
    52  H    0.043446
    53  H    0.021647
    54  H    0.065577
    55  H    0.039910
    56  H    0.040143
    57  H    0.041071
    58  H    0.067688
    59  H    0.043167
    60  H    0.054700
    61  H    0.075097
    62  H    0.027219
    63  H    0.045781
    64  H    0.030919
    65  H    0.039580
    66  H    0.032770
    67  H    0.042653
    68  H    0.031253
    69  H    0.022911
    70  H    0.046471
    71  H    0.045749
    72  H    0.042298
    73  H    0.058139
    74  H    0.068015
    75  H    0.019631
    76  H    0.066919
    77  H    0.068317
    78  H    0.069543
    79  H    0.058350
    80  Mg   0.951054
    81  C   -0.080335
    82  C   -0.065151
    83  C   -0.054588
    84  C   -0.099686
    85  N   -0.357910
    86  C    0.029468
    87  C   -0.079498
    88  C   -0.109797
    89  C    0.090156
    90  C    0.022796
    91  C   -0.013560
    92  C   -0.098890
    93  H    0.035596
    94  N   -0.438909
    95  C    0.108513
    96  C   -0.179280
    97  C   -0.083546
    98  C    0.122431
    99  C    0.062367
   100  C    0.076020
   101  O   -0.249641
   102  C    0.010378
   103  N   -0.332121
   104  C    0.030929
   105  C   -0.062515
   106  C   -0.122913
   107  C    0.110912
   108  C    0.017287
   109  C   -0.023506
   110  C   -0.037692
   111  N   -0.390540
   112  C    0.092558
   113  C   -0.157203
   114  C   -0.058406
   115  C    0.195129
   116  C    0.082426
   117  C    0.129104
   118  O   -0.229517
   119  C   -0.055390
   120  C    0.260448
   121  O   -0.202729
   122  O   -0.416600
   123  C    0.130324
   124  H   -0.007801
   125  H    0.015257
   126  H    0.000071
   127  H    0.042222
   128  H    0.032273
   129  H    0.044427
   130  H    0.032992
   131  H    0.038505
   132  H    0.033250
   133  H    0.032486
   134  H    0.043013
   135  H    0.053481
   136  H    0.042686
   137  H    0.051383
   138  H    0.048488
   139  H    0.054889
   140  H    0.026317
   141  H    0.075597
   142  H    0.037505
   143  H    0.035307
   144  H    0.033690
   145  H    0.050463
   146  H    0.045451
   147  H    0.038404
   148  H    0.020864
   149  H    0.037113
   150  H    0.048356
   151  H    0.024423
   152  H    0.023647
   153  H    0.065355
   154  H    0.063760
   155  H    0.069663
   156  H    0.065927
   157  H    0.053323
   158  H    0.069243
 Sum of Mulliken charges =  -0.00000

 Dipole moment (field-independent basis, Debye):
    X=             -3.8557    Y=             -0.1088    Z=              6.1937  Tot=              7.2966
 Quadrupole moment (field-independent basis, Debye-Ang):
   XX=           -580.2521   YY=           -495.5032   ZZ=           -487.8231
   XY=            -30.2322   XZ=            -30.5969   YZ=             53.3431

 Normal termination of Gaussian 16 at Sun Sep 19 09:20:26 2021.
