 Gaussian 16, Revision A.03,
 Gaussian 16:  ES64L-G16RevA.03 25-Dec-2016

 --------------------------------
 #p wB97XD/Def2SVP td=(nstates=5)
 --------------------------------

 --------------------------------
 TDDFT excited states in gaussian
 --------------------------------
 Symbolic Z-matrix:
 Charge =  0 Multiplicity = 1

                         Standard orientation:
 ---------------------------------------------------------------------
 Center     Atomic      Atomic             Coordinates (Angstroms)
 Number     Number       Type             X           Y           Z
 ---------------------------------------------------------------------
      1         12           0       20.350249   -0.780933    0.014875
      2          6           0       19.531491    2.479217   -1.257761
      3          6           0       21.707326    0.901586    2.825276
      4          6           0       21.357169   -3.835299    1.376224
      5          6           0       19.403004   -2.227849   -2.843353
      6          7           0       20.756044    1.539122    0.574398
      7          6           0       20.223856    2.612847   -0.047853
      8          6           0       20.655132    3.929202    0.693359
      9          6           0       21.522221    3.329830    1.857643
     10          6           0       21.266386    1.805639    1.821222
     11          6           0       23.037181    3.717120    1.733260
     12          6           0       19.473150    4.755387    1.199923
     13          6           0       19.554385    6.229903    0.976752
     14          1           0       18.355721    7.104409    1.372154
     15          7           0       21.178159   -1.419619    1.883242
     16          6           0       21.665134   -0.567540    2.868863
     17          6           0       22.144675   -1.380236    3.969115
     18          6           0       21.973415   -2.716543    3.647674
     19          6           0       21.549865   -2.714228    2.206845
     20          6           0       22.851599   -0.846744    5.181862
     21          6           0       22.332037   -4.035687    4.446836
     22          8           0       22.155447   -5.178181    4.100953
     23          6           0       22.802959   -3.907188    5.879304
     24          7           0       20.529832   -2.687087   -0.644211
     25          6           0       20.948564   -3.808701    0.022900
     26          6           0       21.059041   -5.036871   -0.910505
     27          6           0       20.207912   -4.588226   -2.173702
     28          6           0       20.005719   -3.059568   -1.846626
     29          6           0       22.536730   -5.448270   -1.206720
     30          6           0       18.859945   -5.351382   -2.350348
     31          6           0       17.797725   -5.073175   -1.289170
     32          7           0       19.654946   -0.108782   -1.706086
     33          6           0       19.215303   -0.840808   -2.844131
     34          6           0       18.721064    0.065628   -3.878211
     35          6           0       18.780698    1.335681   -3.276954
     36          6           0       19.330980    1.200880   -1.974824
     37          6           0       18.220825   -0.320175   -5.192338
     38          6           0       18.486856    2.738229   -3.553026
     39          8           0       17.956900    3.242311   -4.529002
     40          6           0       19.046176    3.573428   -2.279386
     41          6           0       17.784565    4.360580   -1.916863
     42          8           0       16.737342    3.942796   -1.390643
     43          8           0       17.934663    5.611390   -2.316537
     44          6           0       16.958272    6.668941   -1.830565
     45          1           0       22.054226    1.426307    3.717562
     46          1           0       21.645459   -4.833215    1.715723
     47          1           0       19.043903   -2.772820   -3.718519
     48          1           0       21.148219    4.519311   -0.078396
     49          1           0       21.165581    3.657329    2.835116
     50          1           0       23.477490    4.208274    2.601012
     51          1           0       23.291314    4.223714    0.802004
     52          1           0       23.744348    2.887638    1.711393
     53          1           0       19.677940    4.772374    2.270524
     54          1           0       18.506183    4.298359    0.986802
     55          1           0       19.840311    6.617922   -0.002235
     56          1           0       20.362368    6.531272    1.643507
     57          1           0       22.802251    0.241017    5.224064
     58          1           0       23.903329   -1.124803    5.265957
     59          1           0       22.431651   -1.146644    6.142108
     60          1           0       22.066355   -3.417781    6.516390
     61          1           0       23.735527   -3.357707    5.750510
     62          1           0       23.091923   -4.926310    6.136257
     63          1           0       20.662518   -5.853710   -0.306447
     64          1           0       20.741595   -4.447230   -3.113857
     65          1           0       22.807707   -6.399934   -0.749621
     66          1           0       23.323351   -4.721359   -1.007467
     67          1           0       22.511850   -5.529784   -2.293534
     68          1           0       19.101300   -6.384345   -2.601410
     69          1           0       18.408546   -4.997488   -3.277068
     70          1           0       18.114270   -4.457102   -0.448318
     71          1           0       17.530552   -6.048808   -0.883903
     72          1           0       16.943661   -4.481706   -1.617068
     73          1           0       17.903284    0.507874   -5.826381
     74          1           0       17.380607   -0.983986   -4.989031
     75          1           0       19.000958   -0.906181   -5.680297
     76          1           0       19.764631    4.339922   -2.569865
     77          1           0       17.449810    7.625755   -2.008003
     78          1           0       16.786260    6.625549   -0.755526
     79          1           0       15.975321    6.600986   -2.298156
     80         12           0      -20.584579   -0.682042   -0.201302
     81          6           0      -18.497153    2.114292    0.035565
     82          6           0      -23.190872    1.435428    0.671366
     83          6           0      -22.454887   -3.333730    0.003076
     84          6           0      -17.713040   -2.650995   -0.850272
     85          7           0      -20.754873    1.491866    0.702014
     86          6           0      -19.810014    2.421556    0.527833
     87          6           0      -20.393451    3.740001    0.912486
     88          6           0      -21.772875    3.405057    1.531010
     89          6           0      -21.964985    2.030795    0.920843
     90          6           0      -21.951561    3.422902    3.050126
     91          6           0      -20.523751    4.700114   -0.312286
     92          6           0      -19.985261    6.162173   -0.189850
     93          1           0      -19.991073    6.860806    1.205600
     94          7           0      -22.629350   -0.902862    0.136205
     95          6           0      -23.529702    0.143210    0.288724
     96          6           0      -24.828360   -0.444768    0.346594
     97          6           0      -24.646864   -1.884424    0.283403
     98          6           0      -23.219911   -2.121692    0.124046
     99          6           0      -26.137817    0.340443    0.578680
    100          6           0      -25.693193   -3.027524    0.421399
    101          8           0      -25.433876   -4.188063    0.373248
    102          6           0      -27.138276   -2.591039    0.561411
    103          7           0      -20.114044   -2.677636   -0.413257
    104          6           0      -21.076330   -3.605924   -0.214090
    105          6           0      -20.585116   -5.069881   -0.384710
    106          6           0      -19.115267   -4.802039   -0.925750
    107          6           0      -18.942591   -3.296820   -0.760404
    108          6           0      -20.692990   -5.883397    1.030630
    109          6           0      -18.851206   -5.392642   -2.346407
    110          6           0      -18.961348   -4.456176   -3.536301
    111          7           0      -18.487724   -0.399535   -0.426739
    112          6           0      -17.484662   -1.264873   -0.771143
    113          6           0      -16.203920   -0.480599   -0.870817
    114          6           0      -16.579366    0.845990   -0.560310
    115          6           0      -17.979513    0.866092   -0.250161
    116          6           0      -14.809333   -1.013044   -1.059034
    117          6           0      -16.091243    2.213812   -0.402640
    118          8           0      -14.935795    2.627540   -0.534329
    119          6           0      -17.333590    3.070944   -0.179130
    120          6           0      -17.037327    3.907957    1.032194
    121          8           0      -17.086930    3.517214    2.184093
    122          8           0      -16.542813    5.045284    0.571788
    123          6           0      -15.788944    5.888069    1.486625
    124          1           0      -23.984824    2.061401    1.082848
    125          1           0      -23.091628   -4.212979   -0.112301
    126          1           0      -16.830376   -3.257343   -1.065504
    127          1           0      -19.731443    4.214485    1.636161
    128          1           0      -22.456580    4.173913    1.170902
    129          1           0      -21.082880    3.722580    3.636645
    130          1           0      -22.266251    2.440751    3.404006
    131          1           0      -22.757788    4.128744    3.248612
    132          1           0      -21.528862    4.735996   -0.731963
    133          1           0      -19.917749    4.145197   -1.028344
    134          1           0      -20.635610    6.726033   -0.859776
    135          1           0      -18.964121    6.188114   -0.569390
    136          1           0      -26.729520   -0.044483    1.409292
    137          1           0      -26.834914    0.237699   -0.253090
    138          1           0      -26.001669    1.412597    0.726327
    139          1           0      -27.442614   -1.882393   -0.209126
    140          1           0      -27.274387   -2.200980    1.570164
    141          1           0      -27.795391   -3.460283    0.587507
    142          1           0      -21.169907   -5.624438   -1.118390
    143          1           0      -18.346112   -5.300839   -0.336258
    144          1           0      -19.658096   -6.000088    1.352588
    145          1           0      -21.035529   -6.911998    0.915562
    146          1           0      -21.187246   -5.326641    1.827568
    147          1           0      -19.674550   -6.092070   -2.492012
    148          1           0      -17.915987   -5.949550   -2.400287
    149          1           0      -19.862974   -3.877488   -3.331902
    150          1           0      -19.068834   -5.167730   -4.354647
    151          1           0      -18.207111   -3.690723   -3.716995
    152          1           0      -14.657490   -2.092450   -1.063633
    153          1           0      -14.171304   -0.633451   -0.260830
    154          1           0      -14.447961   -0.539193   -1.971165
    155          1           0      -17.505583    3.833521   -0.938988
    156          1           0      -15.560254    5.535531    2.491860
    157          1           0      -16.461202    6.733592    1.635639
    158          1           0      -15.060805    6.452909    0.904368
 ---------------------------------------------------------------------

 SCF Done:  E(RwB97XD) =  -4070.59304096     A.U. after   19 cycles

 Excitation energies and oscillator strengths:

 Excited State   1:      Singlet-A      1.5888 eV  780.34 nm  f=0.3689  <S**2>=0.000
     309 -> 315       -0.18992
     312 -> 313        0.68307
     309 <- 315       -0.12270
 This state for optimization and/or second-order correction.
 Total Energy, E(TD-HF/TD-DFT) =  -4070.53465214
 Copying the excited state density for this state as the 1-particle RhoCI density.

 Excited State   2:      Singlet-A      1.6773 eV  739.21 nm  f=0.3952  <S**2>=0.000
     310 -> 316        0.19186
     311 -> 314        0.68164
     310 <- 316        0.11863

 Excited State   3:      Singlet-A      2.1588 eV  574.31 nm  f=0.0707  <S**2>=0.000
     309 -> 313        0.62123
     312 -> 315        0.32056

 Excited State   4:      Singlet-A      2.1599 eV  574.02 nm  f=0.1158  <S**2>=0.000
     310 -> 314        0.63695
     311 -> 316       -0.28366

 Excited State   5:      Singlet-A      3.3636 eV  368.61 nm  f=0.0023  <S**2>=0.000
     307 -> 314       -0.35689
     308 -> 314        0.57930

 The electronic state is 1-A.
 Alpha  occ. eigenvalues --  -46.95102 -46.94609 -19.31480 -19.30125 -19.24609
 Alpha  occ. eigenvalues --  -19.24524 -19.24523 -19.24386 -19.23538 -19.22950
 Alpha  occ. eigenvalues --  -14.47053 -14.46334 -14.46160 -14.46119 -14.44715
 Alpha  occ. eigenvalues --  -14.44284 -14.43923 -14.43271 -10.43011 -10.42305
 Alpha  occ. eigenvalues --  -10.39560 -10.39531 -10.39402 -10.38365 -10.35966
 Alpha  occ. eigenvalues --  -10.35792 -10.35450 -10.35366 -10.35296 -10.35252
 Alpha  occ. eigenvalues --  -10.35120 -10.35113 -10.35111 -10.34758 -10.34726
 Alpha  occ. eigenvalues --  -10.34681 -10.34016 -10.33925 -10.33672 -10.33601
 Alpha  occ. eigenvalues --  -10.33507 -10.33457 -10.33323 -10.32917 -10.32887
 Alpha  occ. eigenvalues --  -10.32880 -10.32712 -10.32644 -10.32488 -10.32462
 Alpha  occ. eigenvalues --  -10.32451 -10.32410 -10.32397 -10.32381 -10.32376
 Alpha  occ. eigenvalues --  -10.32357 -10.32216 -10.32106 -10.31636 -10.31595
 Alpha  occ. eigenvalues --  -10.31323 -10.31163 -10.31093 -10.31016 -10.30835
 Alpha  occ. eigenvalues --  -10.30752 -10.30690 -10.30663 -10.30600 -10.30575
 Alpha  occ. eigenvalues --  -10.30393 -10.30310 -10.30242 -10.30076 -10.30006
 Alpha  occ. eigenvalues --  -10.29921 -10.29912 -10.29908 -10.29862 -10.29777
 Alpha  occ. eigenvalues --  -10.29586 -10.29445 -10.29195 -10.29187 -10.29014
 Alpha  occ. eigenvalues --  -10.28866  -3.21009  -3.20738  -1.94604  -1.94316
 Alpha  occ. eigenvalues --   -1.94166  -1.93937  -1.93878  -1.93711  -1.20537
 Alpha  occ. eigenvalues --   -1.18111  -1.13668  -1.13493  -1.12255  -1.11893
 Alpha  occ. eigenvalues --   -1.10868  -1.07456  -1.06998  -1.05764  -1.05754
 Alpha  occ. eigenvalues --   -1.05106  -1.04649  -1.04247  -1.03830  -1.03728
 Alpha  occ. eigenvalues --   -0.95379  -0.92805  -0.91082  -0.90590  -0.90565
 Alpha  occ. eigenvalues --   -0.90461  -0.89915  -0.89908  -0.89283  -0.89002
 Alpha  occ. eigenvalues --   -0.88880  -0.88382  -0.88205  -0.87406  -0.86355
 Alpha  occ. eigenvalues --   -0.86023  -0.85591  -0.85449  -0.84480  -0.84253
 Alpha  occ. eigenvalues --   -0.83425  -0.83323  -0.82956  -0.82677  -0.82115
 Alpha  occ. eigenvalues --   -0.81935  -0.80088  -0.79849  -0.79282  -0.79198
 Alpha  occ. eigenvalues --   -0.78883  -0.78865  -0.78202  -0.77882  -0.77051
 Alpha  occ. eigenvalues --   -0.77009  -0.74666  -0.74565  -0.73667  -0.73609
 Alpha  occ. eigenvalues --   -0.71954  -0.71435  -0.70862  -0.70715  -0.69975
 Alpha  occ. eigenvalues --   -0.69483  -0.68240  -0.68039  -0.67410  -0.67220
 Alpha  occ. eigenvalues --   -0.67051  -0.66880  -0.66602  -0.66582  -0.66311
 Alpha  occ. eigenvalues --   -0.66057  -0.64786  -0.63759  -0.61809  -0.61627
 Alpha  occ. eigenvalues --   -0.61586  -0.61277  -0.61153  -0.60901  -0.60455
 Alpha  occ. eigenvalues --   -0.60077  -0.59694  -0.59351  -0.59277  -0.58810
 Alpha  occ. eigenvalues --   -0.58173  -0.57976  -0.57627  -0.57397  -0.57026
 Alpha  occ. eigenvalues --   -0.56890  -0.56718  -0.56619  -0.56567  -0.55879
 Alpha  occ. eigenvalues --   -0.55564  -0.55261  -0.55184  -0.55137  -0.54818
 Alpha  occ. eigenvalues --   -0.54805  -0.54633  -0.54423  -0.54314  -0.54041
 Alpha  occ. eigenvalues --   -0.53872  -0.53581  -0.53445  -0.53313  -0.53119
 Alpha  occ. eigenvalues --   -0.52968  -0.52884  -0.52823  -0.52104  -0.52045
 Alpha  occ. eigenvalues --   -0.51731  -0.51597  -0.51543  -0.51296  -0.51201
 Alpha  occ. eigenvalues --   -0.51147  -0.51079  -0.50894  -0.50733  -0.50602
 Alpha  occ. eigenvalues --   -0.50549  -0.50349  -0.50286  -0.50058  -0.49990
 Alpha  occ. eigenvalues --   -0.49863  -0.49428  -0.49347  -0.49230  -0.48790
 Alpha  occ. eigenvalues --   -0.48659  -0.48564  -0.48296  -0.48275  -0.48105
 Alpha  occ. eigenvalues --   -0.47902  -0.47806  -0.47766  -0.47732  -0.47571
 Alpha  occ. eigenvalues --   -0.47509  -0.47413  -0.47295  -0.47194  -0.46928
 Alpha  occ. eigenvalues --   -0.46816  -0.46720  -0.46400  -0.46321  -0.46052
 Alpha  occ. eigenvalues --   -0.45876  -0.45679  -0.45579  -0.45449  -0.45300
 Alpha  occ. eigenvalues --   -0.45143  -0.45051  -0.45003  -0.44939  -0.44887
 Alpha  occ. eigenvalues --   -0.44875  -0.44610  -0.44494  -0.44079  -0.44046
 Alpha  occ. eigenvalues --   -0.43766  -0.43685  -0.43521  -0.43284  -0.43082
 Alpha  occ. eigenvalues --   -0.42926  -0.42812  -0.42571  -0.42253  -0.42140
 Alpha  occ. eigenvalues --   -0.42092  -0.41512  -0.41451  -0.41170  -0.41068
 Alpha  occ. eigenvalues --   -0.40515  -0.40260  -0.39962  -0.39526  -0.39163
 Alpha  occ. eigenvalues --   -0.38996  -0.38760  -0.38697  -0.38398  -0.38121
 Alpha  occ. eigenvalues --   -0.38018  -0.37634  -0.36387  -0.36062  -0.35884
 Alpha  occ. eigenvalues --   -0.35322  -0.35315  -0.34696  -0.33586  -0.33420
 Alpha  occ. eigenvalues --   -0.32976  -0.32973  -0.32789  -0.32494  -0.32253
 Alpha  occ. eigenvalues --   -0.32135  -0.32124  -0.31049  -0.26008  -0.25693
 Alpha  occ. eigenvalues --   -0.22854  -0.22741
 Alpha virt. eigenvalues --   -0.07048  -0.06805  -0.00109   0.00422   0.02243
 Alpha virt. eigenvalues --    0.02722   0.04498   0.05012   0.05915   0.06525
 Alpha virt. eigenvalues --    0.07611   0.07719   0.07893   0.07991   0.08221

 Mulliken charges:
               1
     1  Mg   0.987946
     2  C    0.030654
     3  C   -0.071715
     4  C   -0.057300
     5  C   -0.105008
     6  N   -0.311592
     7  C   -0.008612
     8  C   -0.088451
     9  C   -0.082898
    10  C    0.047696
    11  C    0.016124
    12  C    0.051525
    13  C   -0.150349
    14  H    0.031609
    15  N   -0.450188
    16  C    0.180655
    17  C   -0.160796
    18  C   -0.081863
    19  C    0.134179
    20  C    0.055037
    21  C    0.057008
    22  O   -0.216005
    23  C   -0.009332
    24  N   -0.398473
    25  C    0.036550
    26  C   -0.083126
    27  C   -0.076544
    28  C    0.060762
    29  C    0.027330
    30  C   -0.006059
    31  C   -0.051465
    32  N   -0.527426
    33  C    0.158704
    34  C   -0.163636
    35  C   -0.041776
    36  C    0.162132
    37  C    0.081437
    38  C    0.128555
    39  O   -0.198781
    40  C   -0.130096
    41  C    0.252265
    42  O   -0.286961
    43  O   -0.341676
    44  C    0.147828
    45  H   -0.001390
    46  H    0.022947
    47  H   -0.006069
    48  H    0.039116
    49  H    0.035203
    50  H    0.033063
    51  H    0.038305
    52  H    0.025647
    53  H    0.023405
    54  H    0.069076
    55  H    0.048338
    56  H    0.037553
    57  H    0.022375
    58  H    0.055803
    59  H    0.037860
    60  H    0.076500
    61  H    0.035028
    62  H    0.053183
    63  H    0.040841
    64  H    0.042977
    65  H    0.048276
    66  H    0.047188
    67  H    0.024248
    68  H    0.039491
    69  H    0.022299
    70  H    0.040678
    71  H    0.045473
    72  H    0.042438
    73  H    0.065304
    74  H    0.051824
    75  H    0.044425
    76  H    0.067545
    77  H    0.057675
    78  H    0.052456
    79  H    0.073049
    80  Mg   0.943842
    81  C   -0.009999
    82  C   -0.053720
    83  C   -0.049937
    84  C   -0.089508
    85  N   -0.281463
    86  C    0.032778
    87  C   -0.102537
    88  C   -0.079017
    89  C   -0.023193
    90  C    0.044057
    91  C   -0.008000
    92  C   -0.108854
    93  H    0.034705
    94  N   -0.486535
    95  C    0.194359
    96  C   -0.162035
    97  C   -0.110874
    98  C    0.127548
    99  C    0.066691
   100  C    0.057564
   101  O   -0.197982
   102  C   -0.025004
   103  N   -0.388514
   104  C    0.068241
   105  C   -0.106263
   106  C   -0.052066
   107  C    0.081496
   108  C    0.014966
   109  C   -0.034377
   110  C   -0.035123
   111  N   -0.430956
   112  C    0.126472
   113  C   -0.181516
   114  C   -0.031532
   115  C    0.144865
   116  C    0.071981
   117  C    0.142849
   118  O   -0.213802
   119  C   -0.092570
   120  C    0.223698
   121  O   -0.247843
   122  O   -0.327074
   123  C    0.146639
   124  H   -0.006255
   125  H    0.024669
   126  H   -0.006507
   127  H    0.040514
   128  H    0.020966
   129  H    0.046970
   130  H    0.041484
   131  H    0.029927
   132  H    0.038441
   133  H    0.025615
   134  H    0.052985
   135  H    0.060565
   136  H    0.037180
   137  H    0.040631
   138  H    0.034216
   139  H    0.057399
   140  H    0.052130
   141  H    0.039879
   142  H    0.049999
   143  H    0.031442
   144  H    0.019133
   145  H    0.045870
   146  H    0.058974
   147  H    0.022745
   148  H    0.029654
   149  H    0.030051
   150  H    0.044294
   151  H    0.041702
   152  H    0.038425
   153  H    0.061938
   154  H    0.059461
   155  H    0.073384
   156  H    0.085496
   157  H    0.026920
   158  H    0.057245
 Sum of Mulliken charges =  -0.00000

 Dipole moment (field-independent basis, Debye):
    X=              2.3824    Y=              2.0820    Z=              0.8873  Tot=              3.2860
 Quadrupole moment (field-independent basis, Debye-Ang):
   XX=           -328.4958   YY=           -468.3313   ZZ=           -508.1276
   XY=            -50.9223   XZ=             69.5462   YZ=             37.8287

 Normal termination of Gaussian 16 at Sun Sep 19 11:46:38 2021.
