 Gaussian 16, Revision A.03,
 Gaussian 16:  ES64L-G16RevA.03 25-Dec-2016

 --------------------------------
 #p wB97XD/Def2SVP td=(nstates=5)
 --------------------------------

 --------------------------------
 TDDFT excited states in gaussian
 --------------------------------
 Symbolic Z-matrix:
 Charge =  0 Multiplicity = 1

                         Standard orientation:
 ---------------------------------------------------------------------
 Center     Atomic      Atomic             Coordinates (Angstroms)
 Number     Number       Type             X           Y           Z
 ---------------------------------------------------------------------
      1         12           0       19.466482    0.179451    0.548659
      2          6           0       17.294754   -1.281799   -1.684266
      3          6           0       20.467960    2.354895   -2.005373
      4          6           0       21.690799    1.609263    2.646858
      5          6           0       18.722262   -2.192842    2.858553
      6          7           0       19.101173    0.303039   -1.699725
      7          6           0       17.975693   -0.269304   -2.305514
      8          6           0       17.649894    0.388863   -3.660830
      9          6           0       18.785504    1.474833   -3.736403
     10          6           0       19.496257    1.448004   -2.400328
     11          6           0       19.740597    1.260659   -4.903824
     12          6           0       16.225389    1.002799   -3.901517
     13          6           0       15.280459    0.271486   -5.001504
     14          1           0       14.895986    1.233429   -6.129930
     15          7           0       20.929460    1.657932    0.341958
     16          6           0       21.087787    2.520779   -0.754570
     17          6           0       21.969867    3.645476   -0.425976
     18          6           0       22.449739    3.429248    0.976669
     19          6           0       21.648395    2.225299    1.435796
     20          6           0       22.310519    4.744223   -1.408459
     21          6           0       23.398195    4.168917    1.796679
     22          8           0       23.714082    3.735220    2.914443
     23          6           0       24.090965    5.435177    1.324483
     24          7           0       20.127424   -0.299206    2.380632
     25          6           0       20.976904    0.512421    3.155125
     26          6           0       21.128763    0.070677    4.666697
     27          6           0       20.144856   -1.210080    4.655982
     28          6           0       19.618309   -1.220026    3.203020
     29          6           0       22.633245   -0.280114    5.112482
     30          6           0       19.007736   -1.076879    5.726533
     31          6           0       18.584514   -2.311984    6.458216
     32          7           0       18.303652   -1.504563    0.532270
     33          6           0       18.048500   -2.371371    1.598793
     34          6           0       17.007607   -3.285561    1.273504
     35          6           0       16.598997   -2.815007   -0.029036
     36          6           0       17.480192   -1.799060   -0.420330
     37          6           0       16.370460   -4.352699    2.060442
     38          6           0       15.743446   -3.117297   -1.133548
     39          8           0       14.828896   -3.923525   -1.336515
     40          6           0       16.281532   -2.201050   -2.324318
     41          6           0       16.800211   -3.079317   -3.406233
     42          8           0       17.906330   -3.373353   -3.638934
     43          8           0       15.764163   -3.456020   -4.257665
     44          6           0       16.170220   -3.789795   -5.607054
     45          1           0       20.710041    3.085460   -2.780090
     46          1           0       22.319508    2.020910    3.439067
     47          1           0       18.371885   -2.862480    3.646715
     48          1           0       17.830915   -0.338695   -4.451293
     49          1           0       18.382709    2.466303   -3.945249
     50          1           0       20.726535    1.017731   -4.508479
     51          1           0       19.757946    2.240883   -5.378697
     52          1           0       19.413885    0.547721   -5.660548
     53          1           0       16.357704    2.042879   -4.200603
     54          1           0       15.625388    0.978314   -2.991739
     55          1           0       14.379971    0.063381   -4.423380
     56          1           0       15.776224   -0.612849   -5.401221
     57          1           0       22.995009    4.307816   -2.136921
     58          1           0       22.811034    5.540868   -0.860207
     59          1           0       21.458885    5.074589   -2.003559
     60          1           0       24.947637    5.560983    1.986908
     61          1           0       23.448178    6.316094    1.326382
     62          1           0       24.612487    5.393300    0.368464
     63          1           0       20.659699    0.809588    5.315572
     64          1           0       20.619424   -2.156467    4.916288
     65          1           0       22.601246   -1.143842    5.776926
     66          1           0       23.140584    0.449656    5.742294
     67          1           0       23.291351   -0.485663    4.268004
     68          1           0       18.104406   -0.593851    5.354359
     69          1           0       19.301700   -0.454173    6.571256
     70          1           0       17.568003   -2.498658    6.112233
     71          1           0       18.395720   -2.282142    7.531331
     72          1           0       19.239275   -3.141750    6.189987
     73          1           0       16.456686   -4.097327    3.116950
     74          1           0       16.983111   -5.230823    1.856699
     75          1           0       15.384079   -4.552463    1.641385
     76          1           0       15.469208   -1.595621   -2.725642
     77          1           0       16.598227   -4.786971   -5.510145
     78          1           0       16.945128   -3.068352   -5.865669
     79          1           0       15.318405   -3.818960   -6.287114
     80         12           0      -19.493659   -0.516389   -0.619785
     81          6           0      -18.769397    2.969378   -0.574949
     82          6           0      -16.258225   -1.151187   -1.548088
     83          6           0      -19.917840   -3.848810    0.361082
     84          6           0      -22.591018    0.176510    0.888433
     85          7           0      -17.631688    0.885523   -0.759731
     86          6           0      -17.626155    2.216402   -0.939943
     87          6           0      -16.363714    2.617899   -1.680623
     88          6           0      -15.496162    1.294935   -1.945305
     89          6           0      -16.641216    0.252217   -1.497914
     90          6           0      -15.141143    1.224908   -3.447582
     91          6           0      -15.586625    3.664529   -0.898457
     92          6           0      -15.557709    3.507547    0.640475
     93          1           0      -14.220705    3.031612    1.271495
     94          7           0      -18.268566   -2.319119   -0.676038
     95          6           0      -16.954787   -2.299537   -1.091119
     96          6           0      -16.548209   -3.668322   -1.155121
     97          6           0      -17.537594   -4.511928   -0.520234
     98          6           0      -18.680158   -3.595420   -0.276639
     99          6           0      -15.159705   -4.086298   -1.580631
    100          6           0      -17.382247   -5.964267   -0.066393
    101          8           0      -16.314974   -6.531906   -0.197637
    102          6           0      -18.438849   -6.720168    0.536592
    103          7           0      -20.980902   -1.664029    0.558345
    104          6           0      -20.979178   -2.984530    0.665478
    105          6           0      -22.171932   -3.528719    1.434711
    106          6           0      -22.826901   -2.160894    1.909768
    107          6           0      -22.163180   -1.151644    1.043985
    108          6           0      -23.161012   -4.431315    0.547409
    109          6           0      -22.640559   -1.969013    3.485100
    110          6           0      -23.826429   -2.024787    4.406033
    111          7           0      -20.567582    1.131743   -0.207764
    112          6           0      -21.878657    1.261567    0.293952
    113          6           0      -22.302560    2.674083    0.281971
    114          6           0      -21.116633    3.316964   -0.072485
    115          6           0      -20.027883    2.393400   -0.249805
    116          6           0      -23.728604    3.291694    0.489138
    117          6           0      -20.560781    4.656621   -0.288640
    118          8           0      -21.051900    5.796803   -0.247491
    119          6           0      -19.043329    4.502235   -0.636079
    120          6           0      -18.446386    5.222995    0.523056
    121          8           0      -18.615503    4.939078    1.681151
    122          8           0      -17.801006    6.307107    0.102457
    123          6           0      -17.043316    7.146668    1.094916
    124          1           0      -15.349911   -1.351289   -2.120000
    125          1           0      -20.212858   -4.858158    0.654768
    126          1           0      -23.513387    0.282635    1.464184
    127          1           0      -16.832567    3.057572   -2.560974
    128          1           0      -14.604624    1.246862   -1.319480
    129          1           0      -14.055176    1.222449   -3.539067
    130          1           0      -15.490435    2.074091   -4.035501
    131          1           0      -15.530991    0.270241   -3.799733
    132          1           0      -15.996298    4.652917   -1.106863
    133          1           0      -14.534034    3.650671   -1.182724
    134          1           0      -16.192354    2.740529    1.084118
    135          1           0      -15.826448    4.494529    1.017144
    136          1           0      -14.522105   -3.226052   -1.786053
    137          1           0      -15.266967   -4.787502   -2.408933
    138          1           0      -14.755210   -4.714764   -0.787985
    139          1           0      -18.785717   -6.351888    1.502312
    140          1           0      -18.103062   -7.744962    0.694013
    141          1           0      -19.247031   -6.620529   -0.188796
    142          1           0      -21.907090   -4.051075    2.353658
    143          1           0      -23.886942   -2.384786    1.788894
    144          1           0      -22.747122   -4.546195   -0.454815
    145          1           0      -24.099619   -3.884260    0.456798
    146          1           0      -23.426111   -5.403759    0.965207
    147          1           0      -22.287112   -0.965230    3.721168
    148          1           0      -21.922148   -2.684258    3.883260
    149          1           0      -24.182605   -1.045917    4.727150
    150          1           0      -23.375996   -2.557889    5.243946
    151          1           0      -24.610624   -2.718641    4.102753
    152          1           0      -23.949750    3.260090    1.555651
    153          1           0      -24.416652    2.722797   -0.136413
    154          1           0      -23.687848    4.346253    0.217077
    155          1           0      -18.913181    4.961008   -1.616915
    156          1           0      -17.674628    7.879396    1.598080
    157          1           0      -16.228515    7.687753    0.612128
    158          1           0      -16.622325    6.428457    1.798484
 ---------------------------------------------------------------------

 SCF Done:  E(RwB97XD) =  -4070.55746540     A.U. after   20 cycles

 Excitation energies and oscillator strengths:

 Excited State   1:      Singlet-A      1.6220 eV  764.39 nm  f=0.3797  <S**2>=0.000
     309 -> 316       -0.16102
     311 -> 313        0.68051
     309 <- 316       -0.10482
 This state for optimization and/or second-order correction.
 Total Energy, E(TD-HF/TD-DFT) =  -4070.49785789
 Copying the excited state density for this state as the 1-particle RhoCI density.

 Excited State   2:      Singlet-A      1.6287 eV  761.25 nm  f=0.3796  <S**2>=0.000
     310 -> 315       -0.20521
     312 -> 314        0.67296
     310 <- 315       -0.12420

 Excited State   3:      Singlet-A      2.1350 eV  580.72 nm  f=0.1229  <S**2>=0.000
     309 -> 313        0.64272
     311 -> 316        0.25989

 Excited State   4:      Singlet-A      2.1415 eV  578.95 nm  f=0.0706  <S**2>=0.000
     310 -> 314        0.61689
     312 -> 315        0.33155

 Excited State   5:      Singlet-A      3.1851 eV  389.26 nm  f=0.0153  <S**2>=0.000
     308 -> 314        0.65695
     308 -> 318       -0.10731
     312 -> 315       -0.20170

 The electronic state is 1-A.
 Alpha  occ. eigenvalues --  -46.96534 -46.94311 -19.30283 -19.27382 -19.24447
 Alpha  occ. eigenvalues --  -19.23955 -19.23895 -19.23781 -19.23069 -19.22969
 Alpha  occ. eigenvalues --  -14.47195 -14.46999 -14.46620 -14.46547 -14.44957
 Alpha  occ. eigenvalues --  -14.44735 -14.44140 -14.43147 -10.42558 -10.41898
 Alpha  occ. eigenvalues --  -10.39354 -10.38989 -10.38245 -10.38191 -10.36217
 Alpha  occ. eigenvalues --  -10.36100 -10.35933 -10.35383 -10.35363 -10.35178
 Alpha  occ. eigenvalues --  -10.35166 -10.34998 -10.34996 -10.34755 -10.34746
 Alpha  occ. eigenvalues --  -10.34714 -10.34703 -10.34341 -10.34229 -10.33952
 Alpha  occ. eigenvalues --  -10.33899 -10.33527 -10.33329 -10.33253 -10.32988
 Alpha  occ. eigenvalues --  -10.32932 -10.32794 -10.32756 -10.32427 -10.32368
 Alpha  occ. eigenvalues --  -10.32319 -10.32313 -10.32207 -10.32203 -10.32181
 Alpha  occ. eigenvalues --  -10.31884 -10.31863 -10.31813 -10.31710 -10.31659
 Alpha  occ. eigenvalues --  -10.31621 -10.31455 -10.31435 -10.31380 -10.31180
 Alpha  occ. eigenvalues --  -10.31129 -10.30975 -10.30852 -10.30666 -10.30596
 Alpha  occ. eigenvalues --  -10.30530 -10.30507 -10.30374 -10.30370 -10.30325
 Alpha  occ. eigenvalues --  -10.30109 -10.30062 -10.29884 -10.29809 -10.29808
 Alpha  occ. eigenvalues --  -10.29751 -10.29484 -10.29305 -10.29144 -10.28967
 Alpha  occ. eigenvalues --  -10.28487  -3.22327  -3.20480  -1.95871  -1.95474
 Alpha  occ. eigenvalues --   -1.95260  -1.94044  -1.93617  -1.93474  -1.19223
 Alpha  occ. eigenvalues --   -1.18884  -1.12408  -1.11831  -1.11027  -1.10304
 Alpha  occ. eigenvalues --   -1.09906  -1.09890  -1.06629  -1.06582  -1.05660
 Alpha  occ. eigenvalues --   -1.05453  -1.04414  -1.04073  -1.03646  -1.02714
 Alpha  occ. eigenvalues --   -0.94543  -0.93907  -0.91116  -0.90818  -0.90663
 Alpha  occ. eigenvalues --   -0.90503  -0.90395  -0.90150  -0.89284  -0.89139
 Alpha  occ. eigenvalues --   -0.89009  -0.88667  -0.88056  -0.87317  -0.86584
 Alpha  occ. eigenvalues --   -0.86155  -0.85906  -0.85360  -0.84765  -0.84513
 Alpha  occ. eigenvalues --   -0.84346  -0.83846  -0.83042  -0.82799  -0.82196
 Alpha  occ. eigenvalues --   -0.82192  -0.80778  -0.79826  -0.79330  -0.79278
 Alpha  occ. eigenvalues --   -0.78607  -0.78323  -0.78196  -0.77218  -0.77159
 Alpha  occ. eigenvalues --   -0.76900  -0.75065  -0.74834  -0.73703  -0.73682
 Alpha  occ. eigenvalues --   -0.71356  -0.70838  -0.70603  -0.70433  -0.70080
 Alpha  occ. eigenvalues --   -0.69897  -0.69554  -0.68674  -0.67600  -0.67477
 Alpha  occ. eigenvalues --   -0.67250  -0.67142  -0.67012  -0.66760  -0.66015
 Alpha  occ. eigenvalues --   -0.65902  -0.64406  -0.62843  -0.62234  -0.62225
 Alpha  occ. eigenvalues --   -0.61349  -0.61241  -0.61007  -0.60990  -0.60625
 Alpha  occ. eigenvalues --   -0.60436  -0.60255  -0.59800  -0.59658  -0.59238
 Alpha  occ. eigenvalues --   -0.58519  -0.58207  -0.57803  -0.57501  -0.57253
 Alpha  occ. eigenvalues --   -0.56956  -0.56862  -0.56463  -0.55856  -0.55802
 Alpha  occ. eigenvalues --   -0.55577  -0.55378  -0.55255  -0.54998  -0.54932
 Alpha  occ. eigenvalues --   -0.54597  -0.54562  -0.54441  -0.54258  -0.54087
 Alpha  occ. eigenvalues --   -0.53950  -0.53666  -0.53515  -0.53442  -0.53272
 Alpha  occ. eigenvalues --   -0.53095  -0.52675  -0.52590  -0.52504  -0.52138
 Alpha  occ. eigenvalues --   -0.52056  -0.51961  -0.51720  -0.51690  -0.51603
 Alpha  occ. eigenvalues --   -0.51579  -0.51374  -0.51150  -0.50937  -0.50908
 Alpha  occ. eigenvalues --   -0.50569  -0.50465  -0.50462  -0.50168  -0.50007
 Alpha  occ. eigenvalues --   -0.49940  -0.49698  -0.49229  -0.49214  -0.48957
 Alpha  occ. eigenvalues --   -0.48895  -0.48821  -0.48768  -0.48518  -0.48404
 Alpha  occ. eigenvalues --   -0.48188  -0.48063  -0.47917  -0.47726  -0.47531
 Alpha  occ. eigenvalues --   -0.47335  -0.47222  -0.47214  -0.47074  -0.47019
 Alpha  occ. eigenvalues --   -0.46890  -0.46784  -0.46625  -0.46250  -0.46085
 Alpha  occ. eigenvalues --   -0.45902  -0.45623  -0.45588  -0.45479  -0.45477
 Alpha  occ. eigenvalues --   -0.45286  -0.45113  -0.45004  -0.44861  -0.44843
 Alpha  occ. eigenvalues --   -0.44549  -0.44325  -0.43981  -0.43953  -0.43624
 Alpha  occ. eigenvalues --   -0.43435  -0.43335  -0.43316  -0.43242  -0.43072
 Alpha  occ. eigenvalues --   -0.42914  -0.42760  -0.42589  -0.42053  -0.41980
 Alpha  occ. eigenvalues --   -0.41948  -0.41831  -0.41710  -0.41017  -0.40626
 Alpha  occ. eigenvalues --   -0.40529  -0.39887  -0.39797  -0.39615  -0.39370
 Alpha  occ. eigenvalues --   -0.39248  -0.39124  -0.38831  -0.38320  -0.38030
 Alpha  occ. eigenvalues --   -0.37668  -0.36874  -0.36442  -0.36180  -0.36069
 Alpha  occ. eigenvalues --   -0.36058  -0.35597  -0.35399  -0.33675  -0.33577
 Alpha  occ. eigenvalues --   -0.33516  -0.32743  -0.32585  -0.32368  -0.32208
 Alpha  occ. eigenvalues --   -0.31840  -0.31379  -0.31101  -0.26314  -0.26184
 Alpha  occ. eigenvalues --   -0.23278  -0.23103
 Alpha virt. eigenvalues --   -0.07646  -0.07104  -0.00646  -0.00239   0.01785
 Alpha virt. eigenvalues --    0.02363   0.04157   0.04303   0.04594   0.05243
 Alpha virt. eigenvalues --    0.07195   0.07542   0.07609   0.07900   0.08561

 Mulliken charges:
               1
     1  Mg   0.967428
     2  C    0.011692
     3  C   -0.103196
     4  C   -0.069884
     5  C   -0.098355
     6  N   -0.364170
     7  C   -0.034227
     8  C   -0.002624
     9  C   -0.138131
    10  C    0.093069
    11  C    0.019364
    12  C   -0.009146
    13  C   -0.148525
    14  H    0.036353
    15  N   -0.481829
    16  C    0.200719
    17  C   -0.180088
    18  C   -0.027792
    19  C    0.193812
    20  C    0.079773
    21  C    0.021649
    22  O   -0.252858
    23  C   -0.034251
    24  N   -0.410826
    25  C    0.038657
    26  C   -0.045300
    27  C   -0.088439
    28  C    0.134102
    29  C   -0.000915
    30  C   -0.040883
    31  C   -0.058079
    32  N   -0.418739
    33  C    0.119498
    34  C   -0.179102
    35  C   -0.042546
    36  C    0.138675
    37  C    0.103216
    38  C    0.092987
    39  O   -0.217647
    40  C   -0.114302
    41  C    0.257016
    42  O   -0.187468
    43  O   -0.389589
    44  C    0.148269
    45  H   -0.010859
    46  H    0.025985
    47  H   -0.021851
    48  H    0.032309
    49  H    0.032466
    50  H    0.050129
    51  H    0.027187
    52  H    0.046200
    53  H    0.042840
    54  H    0.040640
    55  H    0.074248
    56  H    0.060457
    57  H    0.058512
    58  H    0.036769
    59  H    0.054099
    60  H    0.050786
    61  H    0.073244
    62  H    0.053546
    63  H    0.052012
    64  H    0.039623
    65  H    0.033986
    66  H    0.046061
    67  H    0.057346
    68  H    0.033693
    69  H    0.029695
    70  H    0.026219
    71  H    0.038846
    72  H    0.035112
    73  H    0.041493
    74  H    0.054396
    75  H    0.067165
    76  H    0.052239
    77  H    0.050861
    78  H    0.037023
    79  H    0.060157
    80  Mg   0.942123
    81  C   -0.038299
    82  C   -0.073542
    83  C   -0.078304
    84  C   -0.055667
    85  N   -0.320086
    86  C   -0.052659
    87  C   -0.003291
    88  C   -0.147401
    89  C    0.056854
    90  C    0.022570
    91  C   -0.011314
    92  C   -0.138120
    93  H    0.013823
    94  N   -0.462354
    95  C    0.168175
    96  C   -0.175003
    97  C   -0.086709
    98  C    0.201788
    99  C    0.084729
   100  C    0.035933
   101  O   -0.235928
   102  C    0.005185
   103  N   -0.322776
   104  C    0.047416
   105  C   -0.151694
   106  C   -0.062454
   107  C    0.046653
   108  C    0.017245
   109  C   -0.028923
   110  C   -0.050498
   111  N   -0.501257
   112  C    0.150919
   113  C   -0.184807
   114  C   -0.035107
   115  C    0.186966
   116  C    0.087877
   117  C    0.097767
   118  O   -0.231149
   119  C   -0.050366
   120  C    0.237858
   121  O   -0.235865
   122  O   -0.346736
   123  C    0.130820
   124  H    0.013671
   125  H   -0.019896
   126  H    0.003306
   127  H    0.035216
   128  H    0.061612
   129  H    0.033431
   130  H    0.044460
   131  H    0.040392
   132  H    0.041061
   133  H    0.041290
   134  H    0.087268
   135  H    0.047434
   136  H    0.029864
   137  H    0.048616
   138  H    0.062159
   139  H    0.066403
   140  H    0.056774
   141  H    0.054700
   142  H    0.040397
   143  H    0.018066
   144  H    0.043573
   145  H    0.031188
   146  H    0.046347
   147  H    0.037479
   148  H    0.032164
   149  H    0.053189
   150  H    0.028094
   151  H    0.026644
   152  H    0.054263
   153  H    0.056607
   154  H    0.062980
   155  H    0.067900
   156  H    0.072743
   157  H    0.059122
   158  H    0.067089
 Sum of Mulliken charges =  -0.00000

 Dipole moment (field-independent basis, Debye):
    X=             -0.0382    Y=              4.4437    Z=             -0.9812  Tot=              4.5509
 Quadrupole moment (field-independent basis, Debye-Ang):
   XX=           -400.7112   YY=           -527.9668   ZZ=           -471.8738
   XY=            159.5190   XZ=              8.7523   YZ=            -35.5440

 Normal termination of Gaussian 16 at Mon Sep 20 12:09:52 2021.
