 Gaussian 16, Revision A.03,
 Gaussian 16:  ES64L-G16RevA.03 25-Dec-2016

 --------------------------------
 #p wB97XD/Def2SVP td=(nstates=5)
 --------------------------------

 --------------------------------
 TDDFT excited states in gaussian
 --------------------------------
 Symbolic Z-matrix:
 Charge =  0 Multiplicity = 1

                         Standard orientation:
 ---------------------------------------------------------------------
 Center     Atomic      Atomic             Coordinates (Angstroms)
 Number     Number       Type             X           Y           Z
 ---------------------------------------------------------------------
      1         12           0      -19.348358    0.410233    0.150474
      2          6           0      -17.922727   -2.664905   -0.722670
      3          6           0      -16.135547    1.681612    0.001770
      4          6           0      -20.646261    3.447290    0.633936
      5          6           0      -22.515791   -0.875046   -0.581518
      6          7           0      -17.195875   -0.469668   -0.542718
      7          6           0      -16.890581   -1.769097   -0.722029
      8          6           0      -15.424870   -2.013989   -0.989133
      9          6           0      -14.908207   -0.629018   -0.441916
     10          6           0      -16.109694    0.306286   -0.352614
     11          6           0      -14.319541   -0.808833    0.982842
     12          6           0      -15.181564   -2.406864   -2.451811
     13          6           0      -15.969416   -1.703743   -3.576707
     14          1           0      -15.141914   -1.187482   -4.747859
     15          7           0      -18.527119    2.277224    0.307515
     16          6           0      -17.185357    2.550957    0.336886
     17          6           0      -16.982493    3.867770    0.954926
     18          6           0      -18.288166    4.500512    1.015882
     19          6           0      -19.212160    3.381860    0.656322
     20          6           0      -15.559855    4.530607    1.104757
     21          6           0      -18.587476    5.958874    1.371779
     22          8           0      -17.717084    6.680968    1.771471
     23          6           0      -19.989830    6.485092    1.267029
     24          7           0      -21.347401    1.194973   -0.186515
     25          6           0      -21.692111    2.504129    0.197711
     26          6           0      -23.246781    2.797742    0.070898
     27          6           0      -23.813258    1.337133   -0.267211
     28          6           0      -22.475019    0.466488   -0.312176
     29          6           0      -24.035312    3.537000    1.264014
     30          6           0      -24.718193    1.182358   -1.573397
     31          6           0      -25.846652    0.058754   -1.349566
     32          7           0      -20.148570   -1.417304   -0.471800
     33          6           0      -21.462311   -1.806809   -0.636011
     34          6           0      -21.504806   -3.235251   -0.924144
     35          6           0      -20.160390   -3.688503   -0.916167
     36          6           0      -19.354439   -2.511091   -0.710536
     37          6           0      -22.737490   -4.095989   -1.016341
     38          6           0      -19.192676   -4.811994   -1.137795
     39          8           0      -19.384916   -5.947925   -1.510361
     40          6           0      -17.755276   -4.162078   -0.957813
     41          6           0      -17.109689   -4.864483    0.204902
     42          8           0      -16.609714   -6.015442    0.140732
     43          8           0      -17.025301   -3.996725    1.284087
     44          6           0      -16.231858   -4.451931    2.376447
     45          1           0      -15.114242    2.065836    0.045740
     46          1           0      -21.190980    4.332078    0.970598
     47          1           0      -23.519672   -1.304153   -0.609807
     48          1           0      -15.010836   -2.762004   -0.313266
     49          1           0      -14.147060   -0.104705   -1.018125
     50          1           0      -14.541068    0.116999    1.514303
     51          1           0      -13.267221   -1.084449    0.930263
     52          1           0      -14.784966   -1.521595    1.664338
     53          1           0      -15.497628   -3.446584   -2.530792
     54          1           0      -14.112746   -2.325223   -2.649826
     55          1           0      -16.464459   -0.825234   -3.163613
     56          1           0      -16.667556   -2.424766   -4.000970
     57          1           0      -15.146947    4.951108    0.187410
     58          1           0      -14.858751    3.799812    1.508000
     59          1           0      -15.473096    5.312686    1.858152
     60          1           0      -20.030879    7.566663    1.400015
     61          1           0      -20.673676    6.030404    1.984046
     62          1           0      -20.210478    6.316125    0.212718
     63          1           0      -23.234083    3.430715   -0.815596
     64          1           0      -24.395378    0.942030    0.564835
     65          1           0      -23.985656    4.606783    1.064407
     66          1           0      -23.600182    3.304128    2.235492
     67          1           0      -25.063395    3.174389    1.272855
     68          1           0      -24.141200    0.774688   -2.403372
     69          1           0      -25.135706    2.142247   -1.878368
     70          1           0      -25.728201   -0.760496   -2.058836
     71          1           0      -26.831525    0.501619   -1.494969
     72          1           0      -25.855779   -0.503410   -0.416398
     73          1           0      -23.371447   -3.702937   -1.810422
     74          1           0      -23.287671   -4.048049   -0.076361
     75          1           0      -22.504784   -5.127716   -1.279439
     76          1           0      -17.209758   -4.489568   -1.842554
     77          1           0      -16.156094   -3.658329    3.119435
     78          1           0      -15.279970   -4.856482    2.031993
     79          1           0      -16.733004   -5.232435    2.948893
     80         12           0       19.414972   -0.020613   -0.685427
     81          6           0       16.866864    0.307256    1.744511
     82          6           0       20.484126   -2.830197    0.955371
     83          6           0       22.151481    0.047721   -2.549474
     84          6           0       18.487374    3.113200   -1.938518
     85          7           0       18.841677   -1.040862    1.242933
     86          6           0       17.690100   -0.768709    1.986267
     87          6           0       17.406217   -1.935074    2.964656
     88          6           0       18.600320   -2.923886    2.702348
     89          6           0       19.378167   -2.277698    1.522568
     90          6           0       19.386680   -3.397452    3.912256
     91          6           0       16.030821   -2.610095    2.846837
     92          6           0       15.229929   -2.644933    4.177417
     93          1           0       14.787710   -4.017296    4.634622
     94          7           0       21.043909   -1.298370   -0.820031
     95          6           0       21.348312   -2.384750   -0.053520
     96          6           0       22.500729   -3.026175   -0.640281
     97          6           0       23.098046   -2.098009   -1.596506
     98          6           0       22.078824   -1.060984   -1.645475
     99          6           0       23.131352   -4.390068   -0.046446
    100          6           0       24.456408   -1.995911   -2.143914
    101          8           0       24.864515   -1.196850   -2.937767
    102          6           0       25.461570   -3.020695   -1.626721
    103          7           0       20.303903    1.519199   -1.914378
    104          6           0       21.417847    1.255735   -2.624951
    105          6           0       21.645323    2.328546   -3.692496
    106          6           0       20.301266    3.073968   -3.716722
    107          6           0       19.614831    2.532878   -2.482462
    108          6           0       22.863348    3.287078   -3.306151
    109          6           0       19.495746    2.632343   -5.042479
    110          6           0       18.912415    1.192983   -5.028490
    111          7           0       17.914400    1.431223   -0.338313
    112          6           0       17.673464    2.613597   -0.927502
    113          6           0       16.520194    3.200746   -0.300006
    114          6           0       16.152668    2.319575    0.699540
    115          6           0       17.066560    1.262232    0.703446
    116          6           0       15.830331    4.516791   -0.604795
    117          6           0       15.175804    2.189065    1.783977
    118          8           0       14.308091    2.840057    2.294123
    119          6           0       15.545095    0.841952    2.459482
    120          6           0       15.827399    1.172832    3.878351
    121          8           0       16.639678    2.011144    4.178997
    122          8           0       15.015108    0.498300    4.775633
    123          6           0       15.031653    0.994231    6.192505
    124          1           0       20.684566   -3.826111    1.356219
    125          1           0       22.972705    0.060237   -3.269661
    126          1           0       18.000706    3.978204   -2.393970
    127          1           0       17.547968   -1.576123    3.984261
    128          1           0       18.180378   -3.873157    2.369158
    129          1           0       19.198617   -2.763079    4.777194
    130          1           0       20.460916   -3.465886    3.738844
    131          1           0       18.970909   -4.370448    4.172793
    132          1           0       15.998335   -3.656252    2.542487
    133          1           0       15.418174   -2.108262    2.098228
    134          1           0       14.411091   -1.925600    4.169735
    135          1           0       15.898417   -2.309680    4.969384
    136          1           0       23.298959   -5.069679   -0.881919
    137          1           0       22.503012   -4.951349    0.644080
    138          1           0       24.042611   -4.330242    0.548593
    139          1           0       25.038456   -3.971249   -1.952408
    140          1           0       25.441442   -2.904686   -0.543560
    141          1           0       26.456090   -2.946898   -2.067794
    142          1           0       21.791315    1.922874   -4.694167
    143          1           0       20.271070    4.159172   -3.616645
    144          1           0       23.292039    3.644342   -4.242837
    145          1           0       23.696503    2.870225   -2.739288
    146          1           0       22.388787    4.115368   -2.780235
    147          1           0       20.082800    2.752622   -5.952764
    148          1           0       18.568877    3.202030   -5.110755
    149          1           0       18.521444    0.836871   -5.981015
    150          1           0       18.084758    1.183157   -4.319092
    151          1           0       19.694499    0.526292   -4.663755
    152          1           0       15.397366    4.576807   -1.603056
    153          1           0       16.634517    5.248437   -0.531330
    154          1           0       15.102523    4.796977    0.156691
    155          1           0       14.618591    0.271477    2.396803
    156          1           0       15.079935    0.031949    6.702191
    157          1           0       14.115730    1.513357    6.474196
    158          1           0       15.826554    1.656740    6.534104
 ---------------------------------------------------------------------

 SCF Done:  E(RwB97XD) =  -4070.61705026     A.U. after   20 cycles

 Excitation energies and oscillator strengths:

 Excited State   1:      Singlet-A      1.6442 eV  754.08 nm  f=0.3993  <S**2>=0.000
     309 -> 316        0.18143
     311 -> 313        0.68497
     309 <- 316        0.11693
 This state for optimization and/or second-order correction.
 Total Energy, E(TD-HF/TD-DFT) =  -4070.55662788
 Copying the excited state density for this state as the 1-particle RhoCI density.

 Excited State   2:      Singlet-A      1.6941 eV  731.84 nm  f=0.3597  <S**2>=0.000
     310 -> 315        0.19917
     312 -> 314        0.67855
     310 <- 315        0.11860

 Excited State   3:      Singlet-A      2.1359 eV  580.48 nm  f=0.1351  <S**2>=0.000
     309 -> 313        0.65464
     311 -> 316       -0.25217

 Excited State   4:      Singlet-A      2.1843 eV  567.62 nm  f=0.1017  <S**2>=0.000
     310 -> 314        0.63339
     312 -> 315       -0.30085

 Excited State   5:      Singlet-A      3.3973 eV  364.95 nm  f=0.0013  <S**2>=0.000
     305 -> 313        0.14197
     306 -> 313        0.57563
     307 -> 313       -0.34388

 The electronic state is 1-A.
 Alpha  occ. eigenvalues --  -46.96738 -46.95885 -19.31245 -19.30379 -19.24985
 Alpha  occ. eigenvalues --  -19.24663 -19.24567 -19.24219 -19.24070 -19.23410
 Alpha  occ. eigenvalues --  -14.46840 -14.46729 -14.46523 -14.46411 -14.45125
 Alpha  occ. eigenvalues --  -14.44363 -14.44039 -14.43829 -10.43847 -10.42646
 Alpha  occ. eigenvalues --  -10.39805 -10.39282 -10.39189 -10.38312 -10.36952
 Alpha  occ. eigenvalues --  -10.35947 -10.35702 -10.35584 -10.35573 -10.35180
 Alpha  occ. eigenvalues --  -10.34956 -10.34800 -10.34776 -10.34765 -10.34557
 Alpha  occ. eigenvalues --  -10.34264 -10.34194 -10.33983 -10.33954 -10.33818
 Alpha  occ. eigenvalues --  -10.33796 -10.33554 -10.33373 -10.33246 -10.33198
 Alpha  occ. eigenvalues --  -10.33017 -10.32828 -10.32587 -10.32500 -10.32480
 Alpha  occ. eigenvalues --  -10.32444 -10.32269 -10.32161 -10.32138 -10.32099
 Alpha  occ. eigenvalues --  -10.32061 -10.32035 -10.32031 -10.31944 -10.31917
 Alpha  occ. eigenvalues --  -10.31902 -10.31812 -10.31730 -10.31622 -10.31548
 Alpha  occ. eigenvalues --  -10.31363 -10.31082 -10.30999 -10.30815 -10.30681
 Alpha  occ. eigenvalues --  -10.30577 -10.30478 -10.30360 -10.30325 -10.30273
 Alpha  occ. eigenvalues --  -10.30149 -10.30112 -10.30111 -10.30083 -10.29929
 Alpha  occ. eigenvalues --  -10.29828 -10.29811 -10.29783 -10.29465 -10.29108
 Alpha  occ. eigenvalues --  -10.28927  -3.22583  -3.21748  -1.96126  -1.95716
 Alpha  occ. eigenvalues --   -1.95534  -1.95316  -1.94882  -1.94707  -1.18627
 Alpha  occ. eigenvalues --   -1.17854  -1.13930  -1.13745  -1.13278  -1.12881
 Alpha  occ. eigenvalues --   -1.09833  -1.09246  -1.07212  -1.06794  -1.06337
 Alpha  occ. eigenvalues --   -1.05958  -1.05873  -1.04948  -1.04012  -1.03903
 Alpha  occ. eigenvalues --   -0.94463  -0.94352  -0.90892  -0.90777  -0.90679
 Alpha  occ. eigenvalues --   -0.90295  -0.90157  -0.89679  -0.89585  -0.89260
 Alpha  occ. eigenvalues --   -0.88517  -0.88276  -0.87976  -0.87664  -0.86758
 Alpha  occ. eigenvalues --   -0.86344  -0.85398  -0.85246  -0.84611  -0.84398
 Alpha  occ. eigenvalues --   -0.83802  -0.83153  -0.82826  -0.82749  -0.82340
 Alpha  occ. eigenvalues --   -0.82117  -0.80329  -0.79492  -0.79359  -0.79219
 Alpha  occ. eigenvalues --   -0.78710  -0.78630  -0.78321  -0.78083  -0.77277
 Alpha  occ. eigenvalues --   -0.77160  -0.75106  -0.74789  -0.74037  -0.73751
 Alpha  occ. eigenvalues --   -0.71857  -0.71332  -0.71290  -0.71209  -0.70220
 Alpha  occ. eigenvalues --   -0.70065  -0.69243  -0.69203  -0.67824  -0.67426
 Alpha  occ. eigenvalues --   -0.67292  -0.67147  -0.66850  -0.66841  -0.66618
 Alpha  occ. eigenvalues --   -0.66458  -0.65690  -0.64292  -0.62421  -0.62075
 Alpha  occ. eigenvalues --   -0.61698  -0.61291  -0.61266  -0.60938  -0.60737
 Alpha  occ. eigenvalues --   -0.60152  -0.60106  -0.59712  -0.59544  -0.59333
 Alpha  occ. eigenvalues --   -0.58263  -0.58018  -0.57986  -0.57474  -0.57346
 Alpha  occ. eigenvalues --   -0.57167  -0.57002  -0.56595  -0.56209  -0.56119
 Alpha  occ. eigenvalues --   -0.55651  -0.55367  -0.55135  -0.55013  -0.54935
 Alpha  occ. eigenvalues --   -0.54758  -0.54607  -0.54336  -0.54069  -0.53846
 Alpha  occ. eigenvalues --   -0.53835  -0.53620  -0.53475  -0.53351  -0.53220
 Alpha  occ. eigenvalues --   -0.53026  -0.52686  -0.52643  -0.52476  -0.52007
 Alpha  occ. eigenvalues --   -0.52004  -0.51903  -0.51747  -0.51677  -0.51495
 Alpha  occ. eigenvalues --   -0.51442  -0.51300  -0.51239  -0.50979  -0.50883
 Alpha  occ. eigenvalues --   -0.50592  -0.50345  -0.50295  -0.50198  -0.49875
 Alpha  occ. eigenvalues --   -0.49536  -0.49504  -0.49411  -0.49266  -0.49171
 Alpha  occ. eigenvalues --   -0.48964  -0.48879  -0.48626  -0.48373  -0.48256
 Alpha  occ. eigenvalues --   -0.48071  -0.48049  -0.48003  -0.47825  -0.47619
 Alpha  occ. eigenvalues --   -0.47494  -0.47450  -0.47245  -0.47240  -0.47111
 Alpha  occ. eigenvalues --   -0.47049  -0.46827  -0.46481  -0.46175  -0.45998
 Alpha  occ. eigenvalues --   -0.45893  -0.45807  -0.45601  -0.45598  -0.45386
 Alpha  occ. eigenvalues --   -0.45363  -0.45289  -0.45228  -0.44999  -0.44928
 Alpha  occ. eigenvalues --   -0.44847  -0.44697  -0.44396  -0.44302  -0.44241
 Alpha  occ. eigenvalues --   -0.44166  -0.44033  -0.43946  -0.43924  -0.43631
 Alpha  occ. eigenvalues --   -0.43373  -0.43302  -0.43122  -0.42800  -0.42260
 Alpha  occ. eigenvalues --   -0.42233  -0.41818  -0.41648  -0.41004  -0.40986
 Alpha  occ. eigenvalues --   -0.40850  -0.40233  -0.40074  -0.40019  -0.39811
 Alpha  occ. eigenvalues --   -0.39348  -0.39227  -0.39153  -0.38789  -0.38360
 Alpha  occ. eigenvalues --   -0.38243  -0.38218  -0.36673  -0.36408  -0.36401
 Alpha  occ. eigenvalues --   -0.36045  -0.35651  -0.35384  -0.33833  -0.33554
 Alpha  occ. eigenvalues --   -0.33251  -0.33221  -0.32925  -0.32811  -0.32562
 Alpha  occ. eigenvalues --   -0.32378  -0.32220  -0.31856  -0.26108  -0.25954
 Alpha  occ. eigenvalues --   -0.23397  -0.23211
 Alpha virt. eigenvalues --   -0.07537  -0.06984  -0.00173   0.00479   0.02187
 Alpha virt. eigenvalues --    0.02591   0.03931   0.04149   0.04575   0.04798
 Alpha virt. eigenvalues --    0.06661   0.07551   0.07903   0.07908   0.08650

 Mulliken charges:
               1
     1  Mg   0.954818
     2  C    0.126656
     3  C   -0.086846
     4  C   -0.102646
     5  C   -0.086864
     6  N   -0.280281
     7  C   -0.106224
     8  C    0.024733
     9  C   -0.115381
    10  C    0.019656
    11  C    0.018036
    12  C    0.021107
    13  C   -0.133106
    14  H    0.032696
    15  N   -0.458843
    16  C    0.175505
    17  C   -0.148442
    18  C   -0.099883
    19  C    0.211564
    20  C    0.047956
    21  C    0.038165
    22  O   -0.200589
    23  C   -0.012732
    24  N   -0.368082
    25  C    0.007612
    26  C   -0.062963
    27  C   -0.084201
    28  C    0.069796
    29  C    0.005018
    30  C   -0.009890
    31  C   -0.094070
    32  N   -0.439720
    33  C    0.138903
    34  C   -0.213524
    35  C   -0.016356
    36  C    0.078939
    37  C    0.071692
    38  C    0.139932
    39  O   -0.173474
    40  C   -0.210943
    41  C    0.295921
    42  O   -0.266966
    43  O   -0.352082
    44  C    0.141314
    45  H    0.007275
    46  H   -0.025122
    47  H   -0.020862
    48  H    0.029499
    49  H    0.028343
    50  H    0.024582
    51  H    0.050189
    52  H    0.027414
    53  H    0.036964
    54  H    0.046194
    55  H    0.070695
    56  H    0.060445
    57  H    0.063288
    58  H    0.025803
    59  H    0.056100
    60  H    0.046999
    61  H    0.080123
    62  H    0.053711
    63  H    0.053698
    64  H    0.040276
    65  H    0.049448
    66  H    0.047516
    67  H    0.050470
    68  H    0.049742
    69  H    0.043980
    70  H    0.038414
    71  H    0.044438
    72  H    0.040055
    73  H    0.037439
    74  H    0.051950
    75  H    0.058863
    76  H    0.085079
    77  H    0.049535
    78  H    0.054958
    79  H    0.046587
    80  Mg   0.946225
    81  C   -0.040932
    82  C   -0.093325
    83  C   -0.065117
    84  C   -0.068567
    85  N   -0.372202
    86  C    0.009201
    87  C   -0.037822
    88  C   -0.103041
    89  C    0.075388
    90  C    0.021434
    91  C    0.015418
    92  C   -0.141972
    93  H    0.025729
    94  N   -0.445345
    95  C    0.174533
    96  C   -0.128393
    97  C   -0.081795
    98  C    0.149751
    99  C    0.018186
   100  C    0.023449
   101  O   -0.210400
   102  C   -0.006061
   103  N   -0.331169
   104  C    0.048490
   105  C   -0.089196
   106  C   -0.066740
   107  C    0.055903
   108  C    0.021709
   109  C   -0.041476
   110  C   -0.066433
   111  N   -0.411963
   112  C    0.080641
   113  C   -0.175951
   114  C   -0.085131
   115  C    0.178311
   116  C    0.073487
   117  C    0.147791
   118  O   -0.174307
   119  C   -0.066686
   120  C    0.252282
   121  O   -0.231233
   122  O   -0.382081
   123  C    0.126257
   124  H   -0.009986
   125  H    0.025890
   126  H   -0.003895
   127  H    0.040943
   128  H    0.033982
   129  H    0.030234
   130  H    0.043349
   131  H    0.031398
   132  H    0.042765
   133  H    0.032984
   134  H    0.067812
   135  H    0.036356
   136  H    0.048966
   137  H    0.027014
   138  H    0.053794
   139  H    0.041801
   140  H    0.056572
   141  H    0.049671
   142  H    0.042186
   143  H    0.039934
   144  H    0.039825
   145  H    0.057664
   146  H    0.036721
   147  H    0.045256
   148  H    0.027645
   149  H    0.048348
   150  H    0.041035
   151  H    0.039382
   152  H    0.051875
   153  H    0.041781
   154  H    0.060816
   155  H    0.062946
   156  H    0.053006
   157  H    0.061550
   158  H    0.073526
 Sum of Mulliken charges =  -0.00000

 Dipole moment (field-independent basis, Debye):
    X=             -2.5880    Y=              0.9058    Z=              1.5832  Tot=              3.1662
 Quadrupole moment (field-independent basis, Debye-Ang):
   XX=           -410.6335   YY=           -558.2794   ZZ=           -493.2707
   XY=           -150.7063   XZ=            -53.1817   YZ=            -40.1460

 Normal termination of Gaussian 16 at Sun Sep 19 20:05:20 2021.
