 Gaussian 16, Revision A.03,
 Gaussian 16:  ES64L-G16RevA.03 25-Dec-2016

 --------------------------------
 #p wB97XD/Def2SVP td=(nstates=5)
 --------------------------------

 --------------------------------
 TDDFT excited states in gaussian
 --------------------------------
 Symbolic Z-matrix:
 Charge =  0 Multiplicity = 1

                         Standard orientation:
 ---------------------------------------------------------------------
 Center     Atomic      Atomic             Coordinates (Angstroms)
 Number     Number       Type             X           Y           Z
 ---------------------------------------------------------------------
      1         12           0       -0.735630   -0.041839   -0.238721
      2          6           0        2.726129    0.059198    0.155699
      3          6           0       -0.667150   -3.430677    0.390300
      4          6           0       -3.998896    0.111192   -0.548524
      5          6           0       -0.773542    3.577891    0.183962
      6          7           0        0.961181   -1.541217    0.172767
      7          6           0        2.293715   -1.276338    0.320472
      8          6           0        3.062229   -2.528320    0.554281
      9          6           0        1.952111   -3.647460    0.672205
     10          6           0        0.615153   -2.856379    0.391928
     11          6           0        2.218102   -4.916212   -0.176538
     12          6           0        3.951989   -2.466195    1.819548
     13          6           0        5.389921   -2.863580    1.490469
     14          1           0        6.041987   -3.984665    2.354750
     15          7           0       -2.143005   -1.482493   -0.128046
     16          6           0       -1.943763   -2.844083    0.095339
     17          6           0       -3.261419   -3.454044   -0.027810
     18          6           0       -4.270239   -2.429788   -0.342939
     19          6           0       -3.475401   -1.163998   -0.428277
     20          6           0       -3.516092   -4.838332    0.304951
     21          6           0       -5.713027   -2.723616   -0.359471
     22          8           0       -6.187142   -3.827117   -0.187919
     23          6           0       -6.770530   -1.683693   -0.490292
     24          7           0       -2.108663    1.561186   -0.143561
     25          6           0       -3.389663    1.362010   -0.592367
     26          6           0       -4.158662    2.666128   -0.569218
     27          6           0       -3.251294    3.611823    0.124731
     28          6           0       -1.992420    2.897156    0.132793
     29          6           0       -4.725735    3.137114   -1.970795
     30          6           0       -3.639688    3.852685    1.623912
     31          6           0       -3.301436    5.155097    2.187033
     32          7           0        0.665751    1.555869    0.074365
     33          6           0        0.525482    2.947428    0.156758
     34          6           0        1.815798    3.552760    0.049384
     35          6           0        2.710577    2.489961    0.088850
     36          6           0        1.955460    1.264495    0.145269
     37          6           0        2.040928    5.018325   -0.015672
     38          6           0        4.077677    2.152664    0.132028
     39          8           0        5.057092    2.864450    0.120280
     40          6           0        4.150476    0.609435    0.119700
     41          6           0        4.958702    0.176038   -1.031124
     42          8           0        4.535944   -0.006126   -2.185287
     43          8           0        6.288366    0.154979   -0.677536
     44          6           0        7.288086   -0.337009   -1.611494
     45          1           0       -0.562763   -4.507468    0.535133
     46          1           0       -5.071438    0.313571   -0.603821
     47          1           0       -0.831835    4.664060    0.280594
     48          1           0        3.503288   -2.754727   -0.416853
     49          1           0        1.861960   -4.067536    1.673487
     50          1           0        3.287263   -4.839368   -0.377926
     51          1           0        1.592273   -5.054773   -1.058213
     52          1           0        2.054266   -5.807196    0.429111
     53          1           0        3.679744   -3.187376    2.589965
     54          1           0        3.876283   -1.445245    2.193315
     55          1           0        5.895915   -1.945699    1.789378
     56          1           0        5.441973   -3.024583    0.414692
     57          1           0       -2.565286   -5.300464    0.571334
     58          1           0       -3.883124   -5.465801   -0.507804
     59          1           0       -4.168406   -4.885091    1.177669
     60          1           0       -6.361314   -1.128736   -1.334507
     61          1           0       -6.776643   -1.077581    0.416012
     62          1           0       -7.736237   -2.128926   -0.730598
     63          1           0       -5.035327    2.420646    0.029067
     64          1           0       -3.009991    4.548768   -0.377378
     65          1           0       -4.625843    2.341968   -2.709858
     66          1           0       -4.363821    4.108056   -2.310812
     67          1           0       -5.811743    3.224820   -1.985871
     68          1           0       -3.202199    3.064828    2.237212
     69          1           0       -4.715805    3.750105    1.762848
     70          1           0       -4.116041    5.848154    1.974026
     71          1           0       -2.343977    5.528180    1.821968
     72          1           0       -3.376590    5.114578    3.274164
     73          1           0        1.276358    5.508013   -0.618629
     74          1           0        3.034768    5.298607   -0.365073
     75          1           0        1.842795    5.351174    1.003222
     76          1           0        4.740968    0.206278    0.942538
     77          1           0        7.549855    0.271327   -2.477295
     78          1           0        7.016280   -1.340185   -1.939289
     79          1           0        8.207580   -0.348620   -1.027439
 ---------------------------------------------------------------------

 SCF Done:  E(RwB97XD) =  -2035.27526143     A.U. after   20 cycles

 Excitation energies and oscillator strengths:

 Excited State   1:      Singlet-A      1.6143 eV  768.02 nm  f=0.3663  <S**2>=0.000
     155 ->158        -0.19434
     156 ->157         0.68133
     155 <-158        -0.12118
 This state for optimization and/or second-order correction.
 Total Energy, E(TD-HF/TD-DFT) =  -2035.21593546
 Copying the excited state density for this state as the 1-particle RhoCI density.

 Excited State   2:      Singlet-A      2.1298 eV  582.14 nm  f=0.0994  <S**2>=0.000
     155 ->157         0.63357
     156 ->158         0.30007

 Excited State   3:      Singlet-A      3.2693 eV  379.24 nm  f=0.0023  <S**2>=0.000
     152 ->157        -0.24372
     153 ->157         0.52207
     154 ->157        -0.35684

 Excited State   4:      Singlet-A      3.3255 eV  372.83 nm  f=0.0043  <S**2>=0.000
     152 ->157        -0.14062
     153 ->157         0.28045
     153 ->159        -0.11919
     154 ->157         0.45223
     154 ->158         0.14894
     154 ->159        -0.26213
     154 ->160        -0.20557

 Excited State   5:      Singlet-A      3.3564 eV  369.39 nm  f=0.0675  <S**2>=0.000
     151 ->157        -0.13741
     152 ->157         0.48501
     153 ->157         0.27817
     156 ->158        -0.33930

 The electronic state is 1-A.
 Alpha  occ. eigenvalues --  -46.95291 -19.30104 -19.24324 -19.23405 -19.22412
 Alpha  occ. eigenvalues --  -14.46933 -14.46557 -14.44916 -14.43768 -10.42948
 Alpha  occ. eigenvalues --  -10.38207 -10.37656 -10.35687 -10.35657 -10.35594
 Alpha  occ. eigenvalues --  -10.35414 -10.35154 -10.35090 -10.34464 -10.33895
 Alpha  occ. eigenvalues --  -10.33102 -10.32973 -10.32715 -10.32710 -10.32435
 Alpha  occ. eigenvalues --  -10.32382 -10.32277 -10.32211 -10.32075 -10.31864
 Alpha  occ. eigenvalues --  -10.31416 -10.31348 -10.31328 -10.31210 -10.31133
 Alpha  occ. eigenvalues --  -10.30677 -10.30363 -10.30339 -10.30099 -10.29366
 Alpha  occ. eigenvalues --  -10.29067 -10.28791 -10.28759  -3.21228  -1.94820
 Alpha  occ. eigenvalues --   -1.94361  -1.94184  -1.17635  -1.12294  -1.12066
 Alpha  occ. eigenvalues --   -1.08905  -1.06993  -1.05823  -1.05014  -1.03635
 Alpha  occ. eigenvalues --   -0.94641  -0.92656  -0.91464  -0.90998  -0.89652
 Alpha  occ. eigenvalues --   -0.89194  -0.88278  -0.87173  -0.86458  -0.85382
 Alpha  occ. eigenvalues --   -0.84507  -0.83384  -0.82796  -0.80596  -0.79921
 Alpha  occ. eigenvalues --   -0.79073  -0.78250  -0.77347  -0.75407  -0.74032
 Alpha  occ. eigenvalues --   -0.71324  -0.71035  -0.69951  -0.69481  -0.68415
 Alpha  occ. eigenvalues --   -0.67899  -0.67297  -0.66701  -0.64026  -0.62723
 Alpha  occ. eigenvalues --   -0.61481  -0.61460  -0.60981  -0.59937  -0.59388
 Alpha  occ. eigenvalues --   -0.58406  -0.57828  -0.57422  -0.57143  -0.56375
 Alpha  occ. eigenvalues --   -0.56179  -0.55150  -0.54752  -0.54499  -0.54240
 Alpha  occ. eigenvalues --   -0.54038  -0.53688  -0.53594  -0.53222  -0.53195
 Alpha  occ. eigenvalues --   -0.52366  -0.51970  -0.51624  -0.51356  -0.51067
 Alpha  occ. eigenvalues --   -0.50782  -0.50489  -0.50418  -0.49520  -0.49086
 Alpha  occ. eigenvalues --   -0.48950  -0.48728  -0.48576  -0.48252  -0.48175
 Alpha  occ. eigenvalues --   -0.47679  -0.47248  -0.46892  -0.46528  -0.46469
 Alpha  occ. eigenvalues --   -0.45981  -0.45597  -0.45424  -0.45172  -0.44991
 Alpha  occ. eigenvalues --   -0.44867  -0.44473  -0.43994  -0.43656  -0.43547
 Alpha  occ. eigenvalues --   -0.43375  -0.43092  -0.42595  -0.42173  -0.41117
 Alpha  occ. eigenvalues --   -0.40458  -0.39658  -0.39308  -0.39077  -0.38379
 Alpha  occ. eigenvalues --   -0.38307  -0.36355  -0.35744  -0.35207  -0.33607
 Alpha  occ. eigenvalues --   -0.32670  -0.32049  -0.31697  -0.31546  -0.26237
 Alpha  occ. eigenvalues --   -0.23384
 Alpha virt. eigenvalues --   -0.07526  -0.00604   0.02307   0.04455   0.05828
 Alpha virt. eigenvalues --    0.06484   0.07445   0.07928   0.09108   0.10247
 Alpha virt. eigenvalues --    0.10974   0.12382   0.12709   0.12798   0.13693

 Mulliken charges:
               1
     1  Mg   0.953187
     2  C    0.048261
     3  C   -0.057482
     4  C   -0.121933
     5  C   -0.096326
     6  N   -0.342790
     7  C   -0.024040
     8  C   -0.029566
     9  C   -0.145890
    10  C    0.045665
    11  C    0.012161
    12  C    0.023805
    13  C   -0.137405
    14  H    0.039233
    15  N   -0.537398
    16  C    0.202157
    17  C   -0.171391
    18  C   -0.064005
    19  C    0.269744
    20  C    0.097311
    21  C   -0.011487
    22  O   -0.239008
    23  C    0.006749
    24  N   -0.368881
    25  C    0.069723
    26  C   -0.083373
    27  C   -0.081730
    28  C    0.063216
    29  C    0.032043
    30  C    0.003078
    31  C   -0.018631
    32  N   -0.407014
    33  C    0.111844
    34  C   -0.185393
    35  C   -0.015213
    36  C    0.112781
    37  C    0.089616
    38  C    0.108565
    39  O   -0.187616
    40  C   -0.127774
    41  C    0.253716
    42  O   -0.269047
    43  O   -0.361200
    44  C    0.149011
    45  H    0.001525
    46  H   -0.005737
    47  H   -0.002774
    48  H    0.049532
    49  H    0.042579
    50  H    0.038434
    51  H    0.051710
    52  H    0.032390
    53  H    0.051886
    54  H    0.051970
    55  H    0.064261
    56  H    0.053290
    57  H    0.001059
    58  H    0.057496
    59  H    0.064879
    60  H    0.039563
    61  H    0.062490
    62  H    0.058216
    63  H    0.032788
    64  H    0.027099
    65  H    0.034028
    66  H    0.045459
    67  H    0.027824
    68  H    0.039416
    69  H    0.019992
    70  H    0.027123
    71  H    0.029229
    72  H    0.034561
    73  H    0.036185
    74  H    0.067942
    75  H    0.051135
    76  H    0.050919
    77  H    0.058136
    78  H    0.047287
    79  H    0.050832
 Sum of Mulliken charges =  -0.00000

 Dipole moment (field-independent basis, Debye):
    X=             -1.3757    Y=              0.9969    Z=              1.0692  Tot=              2.0074
 Quadrupole moment (field-independent basis, Debye-Ang):
   XX=           -263.2811   YY=           -245.1636   ZZ=           -257.2346
   XY=            -49.1927   XZ=              1.5776   YZ=             -2.3402

 Normal termination of Gaussian 16 at Sun Sep 19 15:16:18 2021.
