 Gaussian 16, Revision A.03,
 Gaussian 16:  ES64L-G16RevA.03 25-Dec-2016

 --------------------------------
 #p wB97XD/Def2SVP td=(nstates=5)
 --------------------------------

 --------------------------------
 TDDFT excited states in gaussian
 --------------------------------
 Symbolic Z-matrix:
 Charge =  0 Multiplicity = 1

                         Standard orientation:
 ---------------------------------------------------------------------
 Center     Atomic      Atomic             Coordinates (Angstroms)
 Number     Number       Type             X           Y           Z
 ---------------------------------------------------------------------
      1         12           0       -4.584685   -0.533642    1.010269
      2          6           0       -5.541098    2.427302   -0.446405
      3          6           0       -2.774775    1.359178    3.418813
      4          6           0       -3.127189   -3.329609    2.230080
      5          6           0       -6.013397   -2.308847   -1.451045
      6          7           0       -4.203670    1.656693    1.426695
      7          6           0       -4.713033    2.666177    0.654781
      8          6           0       -4.377808    4.035880    1.249320
      9          6           0       -3.321103    3.620709    2.374207
     10          6           0       -3.427724    2.124430    2.418286
     11          6           0       -1.872356    4.185204    2.137190
     12          6           0       -5.642951    4.799132    1.854826
     13          6           0       -5.889018    6.271881    1.631549
     14          1           0       -4.756056    7.216062    1.825150
     15          7           0       -3.173254   -0.972313    2.650821
     16          6           0       -2.716627   -0.114273    3.589412
     17          6           0       -2.037932   -0.800746    4.637066
     18          6           0       -2.150599   -2.194547    4.334960
     19          6           0       -2.783688   -2.190676    2.982362
     20          6           0       -1.376243    0.003593    5.709085
     21          6           0       -1.551438   -3.379481    5.073112
     22          8           0       -1.478724   -4.504628    4.569291
     23          6           0       -0.994230   -3.205232    6.475034
     24          7           0       -4.440149   -2.561465    0.375425
     25          6           0       -3.882915   -3.544671    1.130286
     26          6           0       -4.212358   -4.920512    0.553605
     27          6           0       -5.296668   -4.572338   -0.535809
     28          6           0       -5.263208   -3.056752   -0.542062
     29          6           0       -3.088729   -5.882705    0.066947
     30          6           0       -6.735628   -5.208985   -0.339635
     31          6           0       -7.817162   -4.447668    0.397267
     32          7           0       -5.483794   -0.084998   -0.660919
     33          6           0       -6.170416   -0.873257   -1.549219
     34          6           0       -6.767159   -0.142244   -2.606926
     35          6           0       -6.592004    1.175371   -2.195729
     36          6           0       -5.828728    1.154189   -1.000091
     37          6           0       -7.546230   -0.553399   -3.849480
     38          6           0       -6.821515    2.518474   -2.504813
     39          8           0       -7.372558    2.981329   -3.486580
     40          6           0       -6.123594    3.471986   -1.381223
     41          6           0       -5.138763    4.308975   -2.055319
     42          8           0       -4.102672    3.908009   -2.621646
     43          8           0       -5.468434    5.627675   -2.069388
     44          6           0       -4.745357    6.529258   -2.973303
     45          1           0       -2.332654    2.041686    4.147116
     46          1           0       -2.911627   -4.260382    2.758508
     47          1           0       -6.775168   -2.829388   -2.033911
     48          1           0       -4.008570    4.676771    0.447663
     49          1           0       -3.588759    4.038982    3.344668
     50          1           0       -1.614078    4.802368    2.997031
     51          1           0       -1.930417    4.689717    1.172568
     52          1           0       -1.074427    3.442135    2.150587
     53          1           0       -5.502381    4.622658    2.921366
     54          1           0       -6.557088    4.229126    1.692246
     55          1           0       -6.770556    6.590571    2.187765
     56          1           0       -6.090486    6.371446    0.565578
     57          1           0       -1.653491   -0.492393    6.638548
     58          1           0       -1.800555    1.006719    5.758217
     59          1           0       -0.291842    0.098014    5.642578
     60          1           0       -1.612147   -2.584435    7.124468
     61          1           0        0.067708   -2.961985    6.419346
     62          1           0       -1.049713   -4.204819    6.907198
     63          1           0       -4.597623   -5.460817    1.418592
     64          1           0       -5.068967   -5.003184   -1.510086
     65          1           0       -3.105453   -5.963436   -1.019835
     66          1           0       -3.317639   -6.857954    0.496262
     67          1           0       -2.157503   -5.461842    0.444554
     68          1           0       -6.584914   -6.152104    0.183875
     69          1           0       -7.172374   -5.437193   -1.312151
     70          1           0       -8.260051   -5.043083    1.196009
     71          1           0       -8.622408   -4.096908   -0.249583
     72          1           0       -7.308271   -3.578949    0.814990
     73          1           0       -7.656614   -1.638445   -3.857344
     74          1           0       -7.016501   -0.202949   -4.735657
     75          1           0       -8.526620   -0.079150   -3.814365
     76          1           0       -6.978868    4.084752   -1.094925
     77          1           0       -5.297313    7.431906   -3.235717
     78          1           0       -4.307201    6.060378   -3.853855
     79          1           0       -3.949303    6.954963   -2.362226
     80         12           0        3.918081   -0.636067   -1.007459
     81          6           0        6.591321    1.315250   -0.154180
     82          6           0        1.815886    1.911052   -0.565570
     83          6           0        1.485668   -2.714878   -1.627502
     84          6           0        6.167296   -3.396757   -0.858560
     85          7           0        4.150832    1.383446   -0.247545
     86          6           0        5.355098    2.007547   -0.231487
     87          6           0        5.211576    3.504635   -0.259813
     88          6           0        3.645394    3.655540   -0.101401
     89          6           0        3.152051    2.230462   -0.227665
     90          6           0        3.193655    4.387973    1.184848
     91          6           0        5.904033    4.229396   -1.568482
     92          6           0        6.787461    5.465574   -1.341184
     93          1           0        6.527503    6.290485   -0.041630
     94          7           0        2.026217   -0.403916   -1.248493
     95          6           0        1.273038    0.705185   -1.028687
     96          6           0       -0.143526    0.467069   -1.162383
     97          6           0       -0.237056   -0.796245   -1.663217
     98          6           0        1.111571   -1.391633   -1.409139
     99          6           0       -1.078223    1.578662   -0.721620
    100          6           0       -1.487622   -1.549596   -2.158359
    101          8           0       -1.482370   -2.699545   -2.531601
    102          6           0       -2.747237   -0.736500   -2.105216
    103          7           0        3.852527   -2.792513   -1.037619
    104          6           0        2.703963   -3.357300   -1.451599
    105          6           0        2.881719   -4.863557   -1.666874
    106          6           0        4.438424   -5.025639   -1.731423
    107          6           0        4.870406   -3.664860   -1.147536
    108          6           0        2.191861   -5.860052   -0.640802
    109          6           0        5.064688   -5.203319   -3.165769
    110          6           0        4.892471   -4.186197   -4.263059
    111          7           0        5.980041   -1.057165   -0.687640
    112          6           0        6.754879   -2.214804   -0.562562
    113          6           0        8.154494   -1.897878   -0.251095
    114          6           0        8.140352   -0.504404   -0.089027
    115          6           0        6.802296   -0.085358   -0.372240
    116          6           0        9.333477   -2.834443   -0.184991
    117          6           0        8.900345    0.618024    0.223703
    118          8           0       10.063600    0.770644    0.562293
    119          6           0        8.007464    1.859875   -0.031493
    120          6           0        8.242464    2.676627    1.181267
    121          8           0        7.712809    2.494431    2.280128
    122          8           0        9.219338    3.605654    0.968355
    123          6           0        9.808482    4.307860    2.112875
    124          1           0        1.187801    2.803852   -0.601936
    125          1           0        0.732961   -3.459794   -1.891147
    126          1           0        6.745247   -4.323583   -0.889051
    127          1           0        5.625169    3.947359    0.646363
    128          1           0        3.252622    4.174575   -0.975450
    129          1           0        2.827826    3.651009    1.899692
    130          1           0        2.369735    5.054796    0.930628
    131          1           0        4.071749    4.906791    1.569585
    132          1           0        5.063894    4.502580   -2.207062
    133          1           0        6.561726    3.532253   -2.086685
    134          1           0        6.605160    6.206260   -2.119351
    135          1           0        7.837369    5.192761   -1.447125
    136          1           0       -1.007765    1.853597    0.330897
    137          1           0       -2.154945    1.413882   -0.686089
    138          1           0       -0.824062    2.356419   -1.441784
    139          1           0       -2.632742    0.187835   -2.670934
    140          1           0       -2.910641   -0.651864   -1.031061
    141          1           0       -3.650632   -1.136134   -2.564558
    142          1           0        2.374024   -5.008407   -2.621146
    143          1           0        4.738430   -5.794585   -1.019165
    144          1           0        1.647364   -5.287541    0.109716
    145          1           0        2.941354   -6.386409   -0.050969
    146          1           0        1.543160   -6.626352   -1.067880
    147          1           0        4.617899   -6.160101   -3.437254
    148          1           0        6.146772   -5.325371   -3.129972
    149          1           0        4.160895   -3.438161   -3.954760
    150          1           0        4.495528   -4.657628   -5.161980
    151          1           0        5.770947   -3.594324   -4.519317
    152          1           0        9.673779   -3.002848    0.835779
    153          1           0       10.152201   -2.438660   -0.786186
    154          1           0        8.913072   -3.779043   -0.530998
    155          1           0        8.252370    2.350378   -0.973760
    156          1           0       10.820963    4.656293    1.905571
    157          1           0        9.683316    3.752215    3.040967
    158          1           0        9.250812    5.203541    2.385868
 ---------------------------------------------------------------------

 SCF Done:  E(RwB97XD) =  -4070.64386709     A.U. after   19 cycles

 Excitation energies and oscillator strengths:

 Excited State   1:      Singlet-A      1.6501 eV  751.39 nm  f=0.3372  <S**2>=0.000
     309 -> 315       -0.17980
     311 -> 313        0.68321
     309 <- 315       -0.11499
 This state for optimization and/or second-order correction.
 Total Energy, E(TD-HF/TD-DFT) =  -4070.58322836
 Copying the excited state density for this state as the 1-particle RhoCI density.

 Excited State   2:      Singlet-A      1.7347 eV  714.73 nm  f=0.4431  <S**2>=0.000
     310 -> 316        0.19153
     312 -> 314        0.67854
     310 <- 316        0.11191

 Excited State   3:      Singlet-A      2.1226 eV  584.12 nm  f=0.1217  <S**2>=0.000
     309 -> 313        0.65795
     311 -> 315        0.23569

 Excited State   4:      Singlet-A      2.2353 eV  554.66 nm  f=0.0594  <S**2>=0.000
     310 -> 314        0.60224
     312 -> 313       -0.10320
     312 -> 316       -0.33559

 Excited State   5:      Singlet-A      2.2376 eV  554.09 nm  f=0.0007  <S**2>=0.000
     312 -> 313        0.69681

 The electronic state is 1-A.
 Alpha  occ. eigenvalues --  -46.96136 -46.93810 -19.30980 -19.28872 -19.24312
 Alpha  occ. eigenvalues --  -19.24285 -19.24201 -19.24190 -19.23002 -19.22238
 Alpha  occ. eigenvalues --  -14.47401 -14.46679 -14.45832 -14.45128 -14.44773
 Alpha  occ. eigenvalues --  -14.44665 -14.44086 -14.42847 -10.43551 -10.41811
 Alpha  occ. eigenvalues --  -10.39701 -10.39109 -10.39042 -10.37090 -10.35987
 Alpha  occ. eigenvalues --  -10.35727 -10.35610 -10.34857 -10.34770 -10.34700
 Alpha  occ. eigenvalues --  -10.34656 -10.34426 -10.34417 -10.34225 -10.34201
 Alpha  occ. eigenvalues --  -10.33973 -10.33860 -10.33725 -10.33592 -10.33196
 Alpha  occ. eigenvalues --  -10.33044 -10.33028 -10.32939 -10.32764 -10.32752
 Alpha  occ. eigenvalues --  -10.32714 -10.32654 -10.32406 -10.32379 -10.32373
 Alpha  occ. eigenvalues --  -10.32122 -10.32114 -10.31709 -10.31577 -10.31542
 Alpha  occ. eigenvalues --  -10.31504 -10.31405 -10.31364 -10.31346 -10.31258
 Alpha  occ. eigenvalues --  -10.31226 -10.31220 -10.31178 -10.31170 -10.31169
 Alpha  occ. eigenvalues --  -10.30979 -10.30936 -10.30767 -10.30735 -10.30436
 Alpha  occ. eigenvalues --  -10.30338 -10.30268 -10.30064 -10.29803 -10.29755
 Alpha  occ. eigenvalues --  -10.29745 -10.29489 -10.29469 -10.29330 -10.29209
 Alpha  occ. eigenvalues --  -10.29092 -10.29071 -10.29033 -10.28639 -10.28493
 Alpha  occ. eigenvalues --  -10.27546  -3.22214  -3.20068  -1.95804  -1.95294
 Alpha  occ. eigenvalues --   -1.95222  -1.93631  -1.93214  -1.93078  -1.18749
 Alpha  occ. eigenvalues --   -1.16739  -1.12939  -1.12684  -1.12034  -1.10787
 Alpha  occ. eigenvalues --   -1.08800  -1.08008  -1.07826  -1.07280  -1.07144
 Alpha  occ. eigenvalues --   -1.06734  -1.06271  -1.06145  -1.05613  -1.04518
 Alpha  occ. eigenvalues --   -0.95214  -0.93866  -0.91431  -0.90919  -0.90733
 Alpha  occ. eigenvalues --   -0.90339  -0.90297  -0.89818  -0.89753  -0.89560
 Alpha  occ. eigenvalues --   -0.89386  -0.88952  -0.88932  -0.87978  -0.86791
 Alpha  occ. eigenvalues --   -0.86095  -0.85852  -0.85026  -0.85003  -0.84156
 Alpha  occ. eigenvalues --   -0.84124  -0.83678  -0.83621  -0.82758  -0.82517
 Alpha  occ. eigenvalues --   -0.81945  -0.80818  -0.80169  -0.79834  -0.79605
 Alpha  occ. eigenvalues --   -0.78906  -0.78680  -0.78531  -0.77827  -0.77286
 Alpha  occ. eigenvalues --   -0.76692  -0.76063  -0.74130  -0.74062  -0.73213
 Alpha  occ. eigenvalues --   -0.71888  -0.71706  -0.71110  -0.70658  -0.70468
 Alpha  occ. eigenvalues --   -0.69698  -0.69604  -0.68728  -0.68198  -0.67648
 Alpha  occ. eigenvalues --   -0.67121  -0.66977  -0.66706  -0.66442  -0.66269
 Alpha  occ. eigenvalues --   -0.65327  -0.64834  -0.63343  -0.62660  -0.62484
 Alpha  occ. eigenvalues --   -0.62357  -0.61647  -0.60899  -0.60849  -0.60777
 Alpha  occ. eigenvalues --   -0.60477  -0.59653  -0.59509  -0.59342  -0.59025
 Alpha  occ. eigenvalues --   -0.58738  -0.57935  -0.57687  -0.57467  -0.57111
 Alpha  occ. eigenvalues --   -0.56837  -0.56603  -0.56468  -0.56141  -0.55940
 Alpha  occ. eigenvalues --   -0.55629  -0.55513  -0.55223  -0.55171  -0.54803
 Alpha  occ. eigenvalues --   -0.54749  -0.54632  -0.54579  -0.54284  -0.54152
 Alpha  occ. eigenvalues --   -0.53970  -0.53730  -0.53562  -0.53171  -0.52920
 Alpha  occ. eigenvalues --   -0.52890  -0.52713  -0.52634  -0.52205  -0.52132
 Alpha  occ. eigenvalues --   -0.51972  -0.51811  -0.51728  -0.51642  -0.51398
 Alpha  occ. eigenvalues --   -0.51371  -0.51062  -0.50879  -0.50838  -0.50795
 Alpha  occ. eigenvalues --   -0.50630  -0.50542  -0.50321  -0.50201  -0.49963
 Alpha  occ. eigenvalues --   -0.49847  -0.49559  -0.49500  -0.49473  -0.49231
 Alpha  occ. eigenvalues --   -0.49185  -0.48990  -0.48610  -0.48596  -0.48308
 Alpha  occ. eigenvalues --   -0.48252  -0.48197  -0.48094  -0.47957  -0.47731
 Alpha  occ. eigenvalues --   -0.47530  -0.47132  -0.47060  -0.46886  -0.46661
 Alpha  occ. eigenvalues --   -0.46375  -0.46355  -0.46226  -0.45978  -0.45877
 Alpha  occ. eigenvalues --   -0.45774  -0.45685  -0.45582  -0.45423  -0.45346
 Alpha  occ. eigenvalues --   -0.45172  -0.44861  -0.44691  -0.44616  -0.44444
 Alpha  occ. eigenvalues --   -0.44324  -0.44196  -0.44116  -0.43993  -0.43820
 Alpha  occ. eigenvalues --   -0.43720  -0.43648  -0.43494  -0.43292  -0.43139
 Alpha  occ. eigenvalues --   -0.42980  -0.42663  -0.42579  -0.42269  -0.42250
 Alpha  occ. eigenvalues --   -0.42084  -0.42025  -0.41866  -0.41115  -0.40838
 Alpha  occ. eigenvalues --   -0.40693  -0.40545  -0.39945  -0.39793  -0.39627
 Alpha  occ. eigenvalues --   -0.39126  -0.38718  -0.38544  -0.38400  -0.38005
 Alpha  occ. eigenvalues --   -0.37873  -0.37108  -0.36893  -0.36161  -0.35859
 Alpha  occ. eigenvalues --   -0.35712  -0.34977  -0.34603  -0.34048  -0.33974
 Alpha  occ. eigenvalues --   -0.33649  -0.33510  -0.33004  -0.32769  -0.32500
 Alpha  occ. eigenvalues --   -0.32457  -0.31642  -0.31386  -0.26333  -0.25290
 Alpha  occ. eigenvalues --   -0.23841  -0.21943
 Alpha virt. eigenvalues --   -0.08026  -0.05594   0.00128   0.00655   0.01795
 Alpha virt. eigenvalues --    0.02895   0.04019   0.04470   0.05073   0.06145
 Alpha virt. eigenvalues --    0.06355   0.07849   0.07866   0.08831   0.09058

 Mulliken charges:
               1
     1  Mg   0.903568
     2  C    0.003641
     3  C   -0.065310
     4  C   -0.059479
     5  C   -0.070048
     6  N   -0.329747
     7  C   -0.015939
     8  C   -0.079633
     9  C   -0.116147
    10  C    0.039580
    11  C    0.017958
    12  C    0.010687
    13  C   -0.102704
    14  H    0.033326
    15  N   -0.356303
    16  C    0.132899
    17  C   -0.161877
    18  C   -0.072912
    19  C    0.102307
    20  C    0.081629
    21  C    0.044680
    22  O   -0.244866
    23  C   -0.017869
    24  N   -0.353620
    25  C    0.055651
    26  C   -0.082532
    27  C   -0.038974
    28  C    0.067557
    29  C    0.037684
    30  C   -0.058921
    31  C   -0.043838
    32  N   -0.473592
    33  C    0.078460
    34  C   -0.191878
    35  C    0.045348
    36  C    0.129405
    37  C    0.100189
    38  C    0.036673
    39  O   -0.206124
    40  C   -0.058184
    41  C    0.262035
    42  O   -0.286880
    43  O   -0.358518
    44  C    0.145968
    45  H   -0.008811
    46  H    0.019031
    47  H    0.001824
    48  H    0.047019
    49  H    0.044954
    50  H    0.035603
    51  H    0.047681
    52  H    0.045675
    53  H    0.013651
    54  H    0.033785
    55  H    0.057683
    56  H    0.054146
    57  H    0.032215
    58  H    0.036938
    59  H    0.068249
    60  H    0.053960
    61  H    0.074815
    62  H    0.051716
    63  H    0.036045
    64  H    0.043445
    65  H    0.045167
    66  H    0.037592
    67  H    0.052078
    68  H    0.030544
    69  H    0.030211
    70  H    0.039035
    71  H    0.037328
    72  H    0.036536
    73  H    0.028591
    74  H    0.065875
    75  H    0.061631
    76  H    0.062338
    77  H    0.055691
    78  H    0.075372
    79  H    0.036408
    80  Mg   0.991952
    81  C    0.010438
    82  C   -0.117840
    83  C   -0.080485
    84  C   -0.117833
    85  N   -0.330220
    86  C   -0.018590
    87  C   -0.036784
    88  C   -0.153368
    89  C    0.075946
    90  C    0.047156
    91  C    0.007490
    92  C   -0.125241
    93  H    0.024296
    94  N   -0.511070
    95  C    0.177589
    96  C   -0.126744
    97  C   -0.117386
    98  C    0.185047
    99  C    0.055599
   100  C    0.077125
   101  O   -0.206045
   102  C   -0.021797
   103  N   -0.321866
   104  C    0.022511
   105  C   -0.086470
   106  C   -0.049612
   107  C   -0.008669
   108  C    0.022919
   109  C   -0.010171
   110  C   -0.046617
   111  N   -0.398482
   112  C    0.158783
   113  C   -0.188965
   114  C    0.034090
   115  C    0.090819
   116  C    0.104826
   117  C    0.049528
   118  O   -0.216931
   119  C   -0.074474
   120  C    0.264513
   121  O   -0.269619
   122  O   -0.355740
   123  C    0.152534
   124  H   -0.007241
   125  H    0.014876
   126  H   -0.012198
   127  H    0.041429
   128  H    0.032934
   129  H    0.042853
   130  H    0.037825
   131  H    0.044889
   132  H    0.033492
   133  H    0.041394
   134  H    0.048567
   135  H    0.062304
   136  H    0.050708
   137  H    0.039047
   138  H    0.071764
   139  H    0.078234
   140  H    0.082820
   141  H    0.055633
   142  H    0.033868
   143  H    0.028332
   144  H    0.042909
   145  H    0.025809
   146  H    0.047890
   147  H    0.030916
   148  H    0.031534
   149  H    0.029331
   150  H    0.040133
   151  H    0.043519
   152  H    0.057655
   153  H    0.062655
   154  H    0.018974
   155  H    0.071834
   156  H    0.061023
   157  H    0.056362
   158  H    0.028416
 Sum of Mulliken charges =  -0.00000

 Dipole moment (field-independent basis, Debye):
    X=             -6.5934    Y=              1.7927    Z=              1.8033  Tot=              7.0668
 Quadrupole moment (field-independent basis, Debye-Ang):
   XX=           -554.2913   YY=           -464.2428   ZZ=           -499.6556
   XY=              9.8029   XZ=            -40.5298   YZ=             15.4924

 Normal termination of Gaussian 16 at Mon Sep 20 18:51:42 2021.
