 Gaussian 16, Revision A.03,
 Gaussian 16:  ES64L-G16RevA.03 25-Dec-2016

 --------------------------------
 #p wB97XD/Def2SVP td=(nstates=5)
 --------------------------------

 --------------------------------
 TDDFT excited states in gaussian
 --------------------------------
 Symbolic Z-matrix:
 Charge =  0 Multiplicity = 1

                         Standard orientation:
 ---------------------------------------------------------------------
 Center     Atomic      Atomic             Coordinates (Angstroms)
 Number     Number       Type             X           Y           Z
 ---------------------------------------------------------------------
      1         12           0        3.830140   -0.786308   -0.926582
      2          6           0        6.101660    1.840089   -0.057992
      3          6           0        1.303250    1.257348    0.113302
      4          6           0        1.853030   -3.243659   -1.256857
      5          6           0        6.544329   -2.969614   -0.816969
      6          7           0        3.828970    1.266937   -0.099038
      7          6           0        4.761537    2.186703    0.127947
      8          6           0        4.176014    3.579023    0.510025
      9          6           0        2.759735    3.110654    1.072859
     10          6           0        2.602696    1.818633    0.290591
     11          6           0        2.773909    2.784163    2.562726
     12          6           0        4.016511    4.518234   -0.732622
     13          6           0        3.762743    5.993321   -0.408469
     14          1           0        4.340485    7.010049   -1.274394
     15          7           0        1.861404   -0.834612   -1.083407
     16          6           0        0.988876    0.090719   -0.616777
     17          6           0       -0.358000   -0.398483   -0.981862
     18          6           0       -0.208854   -1.774935   -1.530704
     19          6           0        1.189425   -2.019342   -1.284818
     20          6           0       -1.599128    0.428837   -0.844403
     21          6           0       -1.175753   -2.724039   -2.165086
     22          8           0       -0.891901   -3.955379   -2.359512
     23          6           0       -2.513498   -2.188675   -2.476319
     24          7           0        4.101338   -2.852797   -0.809496
     25          6           0        3.091752   -3.696072   -1.051584
     26          6           0        3.580230   -5.107682   -1.188282
     27          6           0        5.174158   -5.021780   -1.230319
     28          6           0        5.334005   -3.496362   -1.016269
     29          6           0        3.150432   -6.075186   -0.076877
     30          6           0        5.881767   -5.674378   -2.444331
     31          6           0        5.550990   -4.906795   -3.704689
     32          7           0        5.979821   -0.602520   -0.689645
     33          6           0        6.916172   -1.645834   -0.652009
     34          6           0        8.228790   -1.038132   -0.366000
     35          6           0        7.960402    0.323451   -0.239888
     36          6           0        6.564312    0.548637   -0.408756
     37          6           0        9.453955   -1.741722   -0.197579
     38          6           0        8.524582    1.637462    0.022664
     39          8           0        9.666740    2.081282    0.149126
     40          6           0        7.326522    2.656493    0.271768
     41          6           0        7.595808    3.885112   -0.553635
     42          8           0        7.570465    3.836441   -1.800372
     43          8           0        7.604842    4.963707    0.244547
     44          6           0        7.837643    6.220410   -0.516148
     45          1           0        0.455769    1.715708    0.626744
     46          1           0        1.223432   -4.108277   -1.477040
     47          1           0        7.449764   -3.578248   -0.851696
     48          1           0        4.729226    4.107055    1.286918
     49          1           0        1.966316    3.810628    0.811622
     50          1           0        3.786624    2.803360    2.965170
     51          1           0        2.350337    1.783036    2.645345
     52          1           0        2.097771    3.441670    3.109809
     53          1           0        3.085990    4.278609   -1.247180
     54          1           0        4.882256    4.437524   -1.390876
     55          1           0        3.978699    6.214496    0.637167
     56          1           0        2.694954    6.186822   -0.511347
     57          1           0       -1.417181    1.329777   -0.259811
     58          1           0       -2.301337   -0.148058   -0.242902
     59          1           0       -2.046915    0.660671   -1.810877
     60          1           0       -2.979566   -1.828920   -1.558765
     61          1           0       -3.039224   -2.982310   -3.006041
     62          1           0       -2.403709   -1.319553   -3.125566
     63          1           0        3.222229   -5.557509   -2.113440
     64          1           0        5.632598   -5.502114   -0.365573
     65          1           0        2.613453   -6.950928   -0.442163
     66          1           0        2.548270   -5.518306    0.640463
     67          1           0        3.962062   -6.435274    0.554797
     68          1           0        5.526195   -6.694225   -2.587253
     69          1           0        6.966239   -5.712688   -2.340876
     70          1           0        4.591038   -5.327911   -4.001312
     71          1           0        6.308435   -5.085327   -4.468636
     72          1           0        5.392147   -3.848593   -3.496209
     73          1           0       10.208274   -1.175917   -0.744238
     74          1           0        9.378288   -2.763261   -0.569515
     75          1           0        9.564108   -1.698906    0.885883
     76          1           0        7.317186    2.874414    1.339263
     77          1           0        8.702638    6.710585   -0.069218
     78          1           0        6.892077    6.762912   -0.515157
     79          1           0        8.176218    6.104599   -1.546339
     80         12           0       -4.147846   -0.514744    1.023992
     81          6           0       -5.567583    2.238751   -0.656731
     82          6           0       -2.223420    1.763702    2.770386
     83          6           0       -2.598497   -3.087834    2.646740
     84          6           0       -5.826115   -2.623582   -0.977379
     85          7           0       -3.946718    1.775615    1.075571
     86          6           0       -4.718705    2.716695    0.405045
     87          6           0       -4.477507    4.100794    0.973254
     88          6           0       -3.151190    3.933710    1.800366
     89          6           0       -3.122001    2.424816    1.895892
     90          6           0       -1.865549    4.606433    1.177610
     91          6           0       -5.608040    4.582535    1.894654
     92          6           0       -5.931753    6.078117    1.812110
     93          1           0       -4.892041    7.093018    2.363514
     94          7           0       -2.697836   -0.653409    2.556271
     95          6           0       -2.043485    0.416588    3.063641
     96          6           0       -1.039571   -0.049659    3.964014
     97          6           0       -1.171047   -1.474484    4.104095
     98          6           0       -2.130347   -1.787244    3.059584
     99          6           0       -0.085659    0.886269    4.652982
    100          6           0       -0.418176   -2.488964    4.965044
    101          8           0       -0.798620   -3.676180    5.066681
    102          6           0        0.879859   -2.148773    5.688536
    103          7           0       -4.273479   -2.536167    0.918737
    104          6           0       -3.491091   -3.438956    1.632490
    105          6           0       -3.799106   -4.824625    1.165726
    106          6           0       -4.890823   -4.764404    0.037547
    107          6           0       -5.069699   -3.238413   -0.012908
    108          6           0       -2.548377   -5.695008    0.839197
    109          6           0       -6.213729   -5.496656    0.350406
    110          6           0       -6.282550   -6.919731   -0.236598
    111          7           0       -5.379285   -0.313210   -0.510248
    112          6           0       -6.087943   -1.260009   -1.248553
    113          6           0       -7.029701   -0.632212   -2.247926
    114          6           0       -6.785102    0.732329   -2.023564
    115          6           0       -5.845367    0.881250   -0.953441
    116          6           0       -7.956913   -1.356973   -3.206462
    117          6           0       -7.192403    2.047755   -2.493809
    118          8           0       -7.963847    2.380809   -3.394363
    119          6           0       -6.481562    3.070360   -1.509233
    120          6           0       -5.766701    4.083152   -2.425209
    121          8           0       -5.169121    3.831499   -3.451244
    122          8           0       -6.058191    5.369717   -1.975969
    123          6           0       -5.429259    6.413485   -2.785560
    124          1           0       -1.690053    2.512562    3.359284
    125          1           0       -2.174278   -3.983131    3.105525
    126          1           0       -6.235647   -3.369021   -1.661752
    127          1           0       -4.304432    4.874684    0.225835
    128          1           0       -3.180358    4.367978    2.799733
    129          1           0       -2.036787    5.215234    0.289371
    130          1           0       -1.075771    3.933542    0.844446
    131          1           0       -1.419293    5.308931    1.881514
    132          1           0       -5.393363    4.354088    2.938348
    133          1           0       -6.549632    4.098371    1.634866
    134          1           0       -6.901942    6.309156    2.251727
    135          1           0       -6.107076    6.387914    0.782081
    136          1           0        0.271116    1.490879    3.819026
    137          1           0        0.801298    0.455731    5.117564
    138          1           0       -0.545029    1.552152    5.383158
    139          1           0        1.588506   -1.671926    5.011180
    140          1           0        1.210968   -3.130084    6.028069
    141          1           0        0.702451   -1.450347    6.506346
    142          1           0       -4.132622   -5.379472    2.043186
    143          1           0       -4.551462   -5.070606   -0.952826
    144          1           0       -1.666470   -5.066130    0.962994
    145          1           0       -2.603394   -6.011417   -0.202073
    146          1           0       -2.585714   -6.495325    1.579007
    147          1           0       -7.027104   -4.831191    0.061985
    148          1           0       -6.300177   -5.701982    1.417620
    149          1           0       -5.274107   -7.304103   -0.390828
    150          1           0       -6.726584   -7.018668   -1.227301
    151          1           0       -6.763736   -7.563008    0.500719
    152          1           0       -8.771644   -1.771998   -2.612847
    153          1           0       -7.515447   -2.193823   -3.747293
    154          1           0       -8.325127   -0.593504   -3.891579
    155          1           0       -7.142787    3.612060   -0.833150
    156          1           0       -4.433886    6.711704   -2.454942
    157          1           0       -6.137800    7.240142   -2.735412
    158          1           0       -5.241014    6.225702   -3.842620
 ---------------------------------------------------------------------

 SCF Done:  E(RwB97XD) =  -4070.66497687     A.U. after   20 cycles

 Excitation energies and oscillator strengths:

 Excited State   1:      Singlet-A      1.6072 eV  771.41 nm  f=0.5201  <S**2>=0.000
     310 -> 316        0.17450
     311 -> 313        0.11089
     312 -> 314        0.67327
     310 <- 316        0.11150
 This state for optimization and/or second-order correction.
 Total Energy, E(TD-HF/TD-DFT) =  -4070.60591214
 Copying the excited state density for this state as the 1-particle RhoCI density.

 Excited State   2:      Singlet-A      1.6272 eV  761.93 nm  f=0.2562  <S**2>=0.000
     309 -> 315        0.18214
     311 -> 313        0.67199
     312 -> 314       -0.11028
     309 <- 315        0.11432

 Excited State   3:      Singlet-A      2.1257 eV  583.26 nm  f=0.0168  <S**2>=0.000
     309 -> 313        0.29811
     310 -> 314        0.56752
     311 -> 315       -0.12281
     312 -> 316       -0.24139

 Excited State   4:      Singlet-A      2.1646 eV  572.79 nm  f=0.1358  <S**2>=0.000
     309 -> 313        0.55540
     310 -> 314       -0.28945
     311 -> 315       -0.26025
     312 -> 316        0.13673

 Excited State   5:      Singlet-A      2.4654 eV  502.89 nm  f=0.0002  <S**2>=0.000
     312 -> 313        0.69435

 The electronic state is 1-A.
 Alpha  occ. eigenvalues --  -46.94418 -46.94254 -19.31649 -19.31429 -19.25825
 Alpha  occ. eigenvalues --  -19.24573 -19.24550 -19.24131 -19.23938 -19.23354
 Alpha  occ. eigenvalues --  -14.47749 -14.47207 -14.46318 -14.46173 -14.45003
 Alpha  occ. eigenvalues --  -14.44515 -14.44130 -14.43289 -10.44014 -10.43080
 Alpha  occ. eigenvalues --  -10.40138 -10.39540 -10.39413 -10.38546 -10.35981
 Alpha  occ. eigenvalues --  -10.35630 -10.35625 -10.35579 -10.35479 -10.35240
 Alpha  occ. eigenvalues --  -10.35151 -10.35075 -10.34756 -10.34744 -10.34673
 Alpha  occ. eigenvalues --  -10.34637 -10.34307 -10.34194 -10.34002 -10.33909
 Alpha  occ. eigenvalues --  -10.33713 -10.33503 -10.33392 -10.33371 -10.33367
 Alpha  occ. eigenvalues --  -10.33341 -10.33303 -10.33081 -10.33052 -10.33003
 Alpha  occ. eigenvalues --  -10.32717 -10.32500 -10.32468 -10.32087 -10.31993
 Alpha  occ. eigenvalues --  -10.31922 -10.31905 -10.31832 -10.31798 -10.31774
 Alpha  occ. eigenvalues --  -10.31738 -10.31658 -10.31628 -10.31545 -10.31444
 Alpha  occ. eigenvalues --  -10.31427 -10.31343 -10.31188 -10.30856 -10.30620
 Alpha  occ. eigenvalues --  -10.30602 -10.30536 -10.30388 -10.30371 -10.30307
 Alpha  occ. eigenvalues --  -10.30193 -10.30144 -10.30112 -10.29853 -10.29787
 Alpha  occ. eigenvalues --  -10.29334 -10.29309 -10.29055 -10.28996 -10.28919
 Alpha  occ. eigenvalues --  -10.28528  -3.20649  -3.20413  -1.94261  -1.93990
 Alpha  occ. eigenvalues --   -1.93752  -1.93663  -1.93556  -1.93393  -1.18971
 Alpha  occ. eigenvalues --   -1.18922  -1.11886  -1.11436  -1.10984  -1.10846
 Alpha  occ. eigenvalues --   -1.09462  -1.08976  -1.07260  -1.06727  -1.06196
 Alpha  occ. eigenvalues --   -1.05891  -1.05584  -1.05371  -1.04561  -1.03809
 Alpha  occ. eigenvalues --   -0.95031  -0.94073  -0.91862  -0.91515  -0.91332
 Alpha  occ. eigenvalues --   -0.91239  -0.90423  -0.90261  -0.89914  -0.89752
 Alpha  occ. eigenvalues --   -0.89729  -0.89422  -0.89294  -0.88531  -0.87081
 Alpha  occ. eigenvalues --   -0.86842  -0.85895  -0.85628  -0.84868  -0.84656
 Alpha  occ. eigenvalues --   -0.84591  -0.83959  -0.83655  -0.83294  -0.82645
 Alpha  occ. eigenvalues --   -0.82442  -0.80895  -0.80849  -0.79841  -0.79529
 Alpha  occ. eigenvalues --   -0.79318  -0.79024  -0.78586  -0.78096  -0.77230
 Alpha  occ. eigenvalues --   -0.76923  -0.75110  -0.74892  -0.74009  -0.73794
 Alpha  occ. eigenvalues --   -0.71891  -0.71730  -0.71011  -0.70895  -0.70577
 Alpha  occ. eigenvalues --   -0.69740  -0.69695  -0.69306  -0.68244  -0.67693
 Alpha  occ. eigenvalues --   -0.67415  -0.66970  -0.66835  -0.66746  -0.66568
 Alpha  occ. eigenvalues --   -0.66324  -0.64989  -0.64408  -0.62985  -0.62576
 Alpha  occ. eigenvalues --   -0.62418  -0.61984  -0.61384  -0.61092  -0.60795
 Alpha  occ. eigenvalues --   -0.60619  -0.60165  -0.59844  -0.59686  -0.59379
 Alpha  occ. eigenvalues --   -0.58470  -0.58417  -0.58012  -0.57879  -0.57585
 Alpha  occ. eigenvalues --   -0.57437  -0.57365  -0.56974  -0.56578  -0.56306
 Alpha  occ. eigenvalues --   -0.56085  -0.55820  -0.55461  -0.55386  -0.55369
 Alpha  occ. eigenvalues --   -0.55209  -0.55014  -0.54869  -0.54746  -0.54417
 Alpha  occ. eigenvalues --   -0.54388  -0.54274  -0.54070  -0.53948  -0.53698
 Alpha  occ. eigenvalues --   -0.53555  -0.53256  -0.52747  -0.52590  -0.52492
 Alpha  occ. eigenvalues --   -0.52383  -0.52105  -0.52023  -0.51940  -0.51769
 Alpha  occ. eigenvalues --   -0.51445  -0.51435  -0.51296  -0.51234  -0.50939
 Alpha  occ. eigenvalues --   -0.50776  -0.50727  -0.50586  -0.50478  -0.50451
 Alpha  occ. eigenvalues --   -0.50427  -0.50035  -0.49777  -0.49678  -0.49418
 Alpha  occ. eigenvalues --   -0.49338  -0.48935  -0.48876  -0.48800  -0.48699
 Alpha  occ. eigenvalues --   -0.48539  -0.48413  -0.48216  -0.48162  -0.47888
 Alpha  occ. eigenvalues --   -0.47772  -0.47308  -0.47164  -0.47031  -0.46930
 Alpha  occ. eigenvalues --   -0.46661  -0.46624  -0.46606  -0.46543  -0.46199
 Alpha  occ. eigenvalues --   -0.46140  -0.46036  -0.45867  -0.45594  -0.45554
 Alpha  occ. eigenvalues --   -0.45506  -0.45412  -0.45355  -0.45113  -0.45012
 Alpha  occ. eigenvalues --   -0.44796  -0.44730  -0.44632  -0.44141  -0.44079
 Alpha  occ. eigenvalues --   -0.44034  -0.43952  -0.43790  -0.43627  -0.43477
 Alpha  occ. eigenvalues --   -0.43268  -0.43106  -0.42918  -0.42835  -0.42718
 Alpha  occ. eigenvalues --   -0.42564  -0.42473  -0.42282  -0.41628  -0.41458
 Alpha  occ. eigenvalues --   -0.40809  -0.40699  -0.40479  -0.40095  -0.39875
 Alpha  occ. eigenvalues --   -0.39726  -0.39473  -0.39374  -0.39296  -0.39097
 Alpha  occ. eigenvalues --   -0.38839  -0.38313  -0.37552  -0.37421  -0.36414
 Alpha  occ. eigenvalues --   -0.35911  -0.35578  -0.35464  -0.33821  -0.33537
 Alpha  occ. eigenvalues --   -0.33483  -0.33374  -0.33243  -0.33097  -0.32640
 Alpha  occ. eigenvalues --   -0.32135  -0.31720  -0.31603  -0.26327  -0.26129
 Alpha  occ. eigenvalues --   -0.23345  -0.23053
 Alpha virt. eigenvalues --   -0.07401  -0.07238  -0.00397   0.00064   0.01649
 Alpha virt. eigenvalues --    0.01859   0.03421   0.04198   0.06141   0.06373
 Alpha virt. eigenvalues --    0.06654   0.06814   0.07110   0.07277   0.07932

 Mulliken charges:
               1
     1  Mg   0.978176
     2  C   -0.020680
     3  C   -0.099662
     4  C   -0.060607
     5  C   -0.070750
     6  N   -0.323915
     7  C   -0.007832
     8  C   -0.057325
     9  C   -0.141774
    10  C    0.064817
    11  C    0.053804
    12  C    0.014112
    13  C   -0.126899
    14  H    0.053912
    15  N   -0.520000
    16  C    0.188958
    17  C   -0.193220
    18  C   -0.025679
    19  C    0.166394
    20  C    0.105729
    21  C    0.057028
    22  O   -0.285230
    23  C   -0.002019
    24  N   -0.410227
    25  C    0.066232
    26  C   -0.085123
    27  C   -0.063790
    28  C    0.089773
    29  C    0.031114
    30  C   -0.016889
    31  C   -0.058115
    32  N   -0.398634
    33  C    0.097149
    34  C   -0.187770
    35  C   -0.040260
    36  C    0.126422
    37  C    0.081465
    38  C    0.128971
    39  O   -0.224525
    40  C   -0.077044
    41  C    0.275712
    42  O   -0.284002
    43  O   -0.335990
    44  C    0.120448
    45  H   -0.002847
    46  H    0.010784
    47  H   -0.016953
    48  H    0.025426
    49  H    0.022089
    50  H    0.046804
    51  H    0.043723
    52  H    0.039784
    53  H    0.036228
    54  H    0.068787
    55  H    0.038024
    56  H    0.039171
    57  H    0.033933
    58  H    0.023318
    59  H    0.085482
    60  H    0.082065
    61  H    0.056145
    62  H    0.058765
    63  H    0.042955
    64  H    0.035851
    65  H    0.044981
    66  H    0.036235
    67  H    0.026224
    68  H    0.032837
    69  H    0.029503
    70  H    0.029378
    71  H    0.042506
    72  H    0.049618
    73  H    0.071189
    74  H    0.031765
    75  H    0.069219
    76  H    0.064993
    77  H    0.061504
    78  H    0.062378
    79  H    0.070825
    80  Mg   0.890914
    81  C   -0.064902
    82  C   -0.119684
    83  C   -0.073170
    84  C   -0.101255
    85  N   -0.304642
    86  C    0.019713
    87  C   -0.029344
    88  C   -0.094777
    89  C    0.009405
    90  C    0.007086
    91  C    0.022662
    92  C   -0.123884
    93  H    0.017162
    94  N   -0.422301
    95  C    0.226181
    96  C   -0.181292
    97  C   -0.039465
    98  C    0.130027
    99  C    0.070487
   100  C    0.049736
   101  O   -0.255748
   102  C   -0.024273
   103  N   -0.453916
   104  C    0.110501
   105  C   -0.104704
   106  C   -0.047898
   107  C    0.052594
   108  C    0.015617
   109  C    0.000131
   110  C   -0.055885
   111  N   -0.475564
   112  C    0.137884
   113  C   -0.167149
   114  C   -0.069774
   115  C    0.178116
   116  C    0.081566
   117  C    0.160350
   118  O   -0.206630
   119  C   -0.105832
   120  C    0.265188
   121  O   -0.224653
   122  O   -0.369244
   123  C    0.125799
   124  H   -0.010033
   125  H    0.017369
   126  H   -0.009094
   127  H    0.029989
   128  H    0.040779
   129  H    0.036140
   130  H    0.033505
   131  H    0.035611
   132  H    0.041650
   133  H    0.038386
   134  H    0.049892
   135  H    0.050782
   136  H    0.032098
   137  H    0.028921
   138  H    0.058235
   139  H    0.063055
   140  H    0.064715
   141  H    0.063639
   142  H    0.042477
   143  H    0.047555
   144  H    0.048754
   145  H    0.047099
   146  H    0.038536
   147  H    0.035761
   148  H    0.027793
   149  H    0.027712
   150  H    0.041253
   151  H    0.040388
   152  H    0.052003
   153  H    0.048824
   154  H    0.066537
   155  H    0.073891
   156  H    0.042637
   157  H    0.056987
   158  H    0.066073
 Sum of Mulliken charges =  -0.00000

 Dipole moment (field-independent basis, Debye):
    X=             -1.7255    Y=              1.3974    Z=              4.8243  Tot=              5.3107
 Quadrupole moment (field-independent basis, Debye-Ang):
   XX=           -569.2295   YY=           -457.7638   ZZ=           -529.6885
   XY=            -11.8678   XZ=            -10.5464   YZ=             28.2230

 Normal termination of Gaussian 16 at Sun Sep 19 10:38:31 2021.
