 Gaussian 16, Revision A.03,
 Gaussian 16:  ES64L-G16RevA.03 25-Dec-2016

 --------------------------------
 #p wB97XD/Def2SVP td=(nstates=5)
 --------------------------------

 --------------------------------
 TDDFT excited states in gaussian
 --------------------------------
 Symbolic Z-matrix:
 Charge =  0 Multiplicity = 1

                         Standard orientation:
 ---------------------------------------------------------------------
 Center     Atomic      Atomic             Coordinates (Angstroms)
 Number     Number       Type             X           Y           Z
 ---------------------------------------------------------------------
      1         12           0       24.790942    0.390115   -0.344132
      2          6           0       22.737851   -1.590134    2.038503
      3          6           0       23.282382    3.056304    1.084013
      4          6           0       26.366127    1.954415   -2.606737
      5          6           0       25.420599   -2.699933   -1.996117
      6          7           0       23.171852    0.653998    1.315205
      7          6           0       22.658818   -0.256317    2.223661
      8          6           0       21.919195    0.373100    3.409753
      9          6           0       21.722557    1.807562    2.829237
     10          6           0       22.775444    1.885408    1.656897
     11          6           0       20.339632    2.117126    2.349036
     12          6           0       22.613057    0.291664    4.810764
     13          6           0       21.744258    0.230499    6.022444
     14          1           0       22.266845    0.988408    7.238704
     15          7           0       24.873115    2.309191   -0.710301
     16          6           0       24.217868    3.315091    0.030398
     17          6           0       24.707682    4.582744   -0.428953
     18          6           0       25.733802    4.226672   -1.408216
     19          6           0       25.672724    2.820163   -1.580936
     20          6           0       24.317116    5.979076    0.182244
     21          6           0       26.651350    5.195418   -2.089359
     22          8           0       27.470092    4.831984   -2.968554
     23          6           0       26.706074    6.640316   -1.750435
     24          7           0       25.628632   -0.201323   -2.143716
     25          6           0       26.271065    0.655827   -2.939658
     26          6           0       26.943555   -0.013874   -4.180755
     27          6           0       26.978356   -1.498857   -3.659623
     28          6           0       25.900782   -1.497860   -2.540980
     29          6           0       26.073393    0.124388   -5.471298
     30          6           0       28.390788   -1.892254   -3.053830
     31          6           0       29.663560   -1.685697   -3.901641
     32          7           0       24.256832   -1.720769   -0.045268
     33          6           0       24.660455   -2.830912   -0.778344
     34          6           0       24.064713   -4.022663   -0.221083
     35          6           0       23.341493   -3.588523    0.897164
     36          6           0       23.406398   -2.168400    0.929019
     37          6           0       24.305817   -5.430173   -0.652499
     38          6           0       22.516958   -4.047444    2.007314
     39          8           0       22.174170   -5.150439    2.412106
     40          6           0       22.193622   -2.691758    2.825218
     41          6           0       20.753721   -2.686571    3.018533
     42          8           0       19.883349   -2.638826    2.135101
     43          8           0       20.501098   -3.179805    4.266499
     44          6           0       19.148826   -3.344144    4.694068
     45          1           0       22.872840    3.871300    1.684736
     46          1           0       26.922680    2.452303   -3.403253
     47          1           0       25.662308   -3.617488   -2.537311
     48          1           0       20.947330   -0.116404    3.476215
     49          1           0       22.078196    2.557689    3.534968
     50          1           0       20.375000    2.117699    1.259591
     51          1           0       20.063383    3.126898    2.652254
     52          1           0       19.541607    1.439379    2.651578
     53          1           0       23.199354    1.203129    4.923795
     54          1           0       23.315853   -0.540315    4.775121
     55          1           0       21.708837   -0.833656    6.254858
     56          1           0       20.693335    0.408804    5.794281
     57          1           0       25.081493    6.453482    0.796975
     58          1           0       23.371628    5.926297    0.721363
     59          1           0       24.132813    6.560428   -0.722027
     60          1           0       25.830471    7.125380   -2.182626
     61          1           0       27.619152    7.015080   -2.213774
     62          1           0       26.791442    6.699739   -0.665917
     63          1           0       27.910001    0.478126   -4.295460
     64          1           0       26.696350   -2.260894   -4.385539
     65          1           0       26.624952    0.781513   -6.144123
     66          1           0       25.049108    0.464049   -5.321228
     67          1           0       26.094004   -0.896343   -5.855746
     68          1           0       28.390476   -2.962602   -2.849166
     69          1           0       28.447666   -1.401359   -2.082453
     70          1           0       30.284206   -1.016332   -3.306139
     71          1           0       29.307649   -1.161949   -4.789301
     72          1           0       30.197328   -2.616845   -4.091197
     73          1           0       25.175992   -5.364825   -1.306069
     74          1           0       23.419850   -5.727780   -1.213315
     75          1           0       24.421146   -6.134889    0.170996
     76          1           0       22.714445   -2.711057    3.782370
     77          1           0       18.441058   -3.005060    3.937316
     78          1           0       19.046811   -2.691890    5.561486
     79          1           0       18.969533   -4.353886    5.060605
     80         12           0      -24.255626    0.577157    0.465760
     81          6           0      -23.728765   -2.635243   -0.745003
     82          6           0      -20.892835    1.352913   -0.339472
     83          6           0      -24.990006    3.836393    0.512846
     84          6           0      -27.701931   -0.159798    0.558216
     85          7           0      -22.566064   -0.470628   -0.799001
     86          6           0      -22.566300   -1.839847   -0.915500
     87          6           0      -21.250202   -2.348544   -1.414185
     88          6           0      -20.277663   -1.137217   -1.041042
     89          6           0      -21.273669    0.034078   -0.725098
     90          6           0      -19.250363   -1.405259    0.171181
     91          6           0      -21.361112   -2.792510   -2.962744
     92          6           0      -20.406399   -3.794894   -3.375010
     93          1           0      -19.552630   -3.373353   -4.589707
     94          7           0      -23.102798    2.345010    0.318853
     95          6           0      -21.723479    2.453609   -0.013877
     96          6           0      -21.368054    3.861195    0.049882
     97          6           0      -22.533810    4.619000    0.318452
     98          6           0      -23.611502    3.586501    0.483500
     99          6           0      -20.012314    4.346928   -0.305284
    100          6           0      -22.580528    6.203808    0.357662
    101          8           0      -21.521264    6.796304    0.157921
    102          6           0      -23.774905    6.963914    0.924034
    103          7           0      -26.092832    1.622918    0.424743
    104          6           0      -26.081103    2.971458    0.576940
    105          6           0      -27.595588    3.632056    0.539842
    106          6           0      -28.471882    2.309796    0.775067
    107          6           0      -27.418962    1.168374    0.611706
    108          6           0      -27.903285    4.707776    1.649246
    109          6           0      -29.618487    2.162264   -0.226909
    110          6           0      -31.085896    2.066169    0.255078
    111          7           0      -25.430356   -1.111513    0.286201
    112          6           0      -26.783638   -1.256201    0.386625
    113          6           0      -27.114841   -2.651785    0.300058
    114          6           0      -25.889988   -3.220815   -0.215520
    115          6           0      -24.925577   -2.198791   -0.233150
    116          6           0      -28.486635   -3.252851    0.405662
    117          6           0      -25.322036   -4.431983   -0.769890
    118          8           0      -25.754546   -5.544199   -0.787225
    119          6           0      -23.807557   -4.149749   -1.113365
    120          6           0      -22.793101   -4.942726   -0.260195
    121          8           0      -22.814899   -5.010664    0.949959
    122          8           0      -21.912606   -5.647454   -1.106745
    123          6           0      -21.016618   -6.571612   -0.479765
    124          1           0      -19.831727    1.508919   -0.540972
    125          1           0      -25.312272    4.857651    0.300033
    126          1           0      -28.775935   -0.345417    0.617541
    127          1           0      -20.834638   -3.125539   -0.771723
    128          1           0      -19.702100   -0.882107   -1.931575
    129          1           0      -18.259122   -1.276926   -0.263457
    130          1           0      -19.363686   -2.395036    0.612366
    131          1           0      -19.437498   -0.622128    0.906453
    132          1           0      -21.156058   -1.868039   -3.502308
    133          1           0      -22.423592   -3.026715   -3.034250
    134          1           0      -20.989382   -4.681818   -3.620283
    135          1           0      -19.697342   -3.989309   -2.570357
    136          1           0      -19.293357    3.529591   -0.358631
    137          1           0      -19.627220    4.987426    0.488560
    138          1           0      -20.010619    4.841527   -1.276892
    139          1           0      -24.684097    6.858782    0.331235
    140          1           0      -23.486319    8.012637    1.001992
    141          1           0      -23.936371    6.600434    1.938943
    142          1           0      -27.690497    3.974143   -0.490361
    143          1           0      -28.819678    2.165067    1.798135
    144          1           0      -28.038215    5.684764    1.186060
    145          1           0      -27.065482    4.760724    2.345536
    146          1           0      -28.817805    4.386099    2.148678
    147          1           0      -29.435943    1.349331   -0.929336
    148          1           0      -29.662537    2.942565   -0.986535
    149          1           0      -31.592994    1.108100    0.137620
    150          1           0      -31.634338    2.759812   -0.382695
    151          1           0      -31.174812    2.335701    1.308165
    152          1           0      -28.352603   -4.316343    0.604998
    153          1           0      -29.004906   -3.391326   -0.542669
    154          1           0      -29.164169   -2.739720    1.087607
    155          1           0      -23.727853   -4.487861   -2.146909
    156          1           0      -20.199357   -6.564804   -1.201702
    157          1           0      -21.392499   -7.593964   -0.515854
    158          1           0      -20.799136   -6.269628    0.543957
 ---------------------------------------------------------------------

 SCF Done:  E(RwB97XD) =  -4070.57834428     A.U. after   17 cycles

 Excitation energies and oscillator strengths:

 Excited State   1:      Singlet-A      1.6008 eV  774.50 nm  f=0.3816  <S**2>=0.000
     310 -> 316       -0.16171
     311 -> 313        0.68930
     310 <- 316       -0.11299
 This state for optimization and/or second-order correction.
 Total Energy, E(TD-HF/TD-DFT) =  -4070.51951514
 Copying the excited state density for this state as the 1-particle RhoCI density.

 Excited State   2:      Singlet-A      1.6352 eV  758.23 nm  f=0.3940  <S**2>=0.000
     309 -> 315        0.17852
     312 -> 314        0.68606
     309 <- 315        0.11658

 Excited State   3:      Singlet-A      2.1247 eV  583.55 nm  f=0.2116  <S**2>=0.000
     310 -> 313        0.66538
     311 -> 316        0.22070

 Excited State   4:      Singlet-A      2.1962 eV  564.54 nm  f=0.1042  <S**2>=0.000
     309 -> 314        0.63441
     312 -> 315       -0.29411

 Excited State   5:      Singlet-A      3.1834 eV  389.48 nm  f=0.0051  <S**2>=0.000
     304 -> 313        0.18184
     305 -> 313        0.66089

 The electronic state is 1-A.
 Alpha  occ. eigenvalues --  -46.96149 -46.95246 -19.30342 -19.30062 -19.25652
 Alpha  occ. eigenvalues --  -19.25004 -19.24762 -19.24410 -19.23243 -19.22451
 Alpha  occ. eigenvalues --  -14.46944 -14.46924 -14.46611 -14.46007 -14.44831
 Alpha  occ. eigenvalues --  -14.44284 -14.44203 -14.43621 -10.43938 -10.43026
 Alpha  occ. eigenvalues --  -10.40416 -10.40062 -10.37972 -10.37932 -10.35903
 Alpha  occ. eigenvalues --  -10.35705 -10.35464 -10.35297 -10.35171 -10.35114
 Alpha  occ. eigenvalues --  -10.34861 -10.34801 -10.34782 -10.34699 -10.34525
 Alpha  occ. eigenvalues --  -10.34489 -10.34453 -10.34452 -10.33850 -10.33597
 Alpha  occ. eigenvalues --  -10.33353 -10.33214 -10.33125 -10.32921 -10.32710
 Alpha  occ. eigenvalues --  -10.32694 -10.32558 -10.32547 -10.32400 -10.32343
 Alpha  occ. eigenvalues --  -10.32276 -10.32253 -10.32189 -10.32172 -10.32094
 Alpha  occ. eigenvalues --  -10.32067 -10.32050 -10.32022 -10.32006 -10.31993
 Alpha  occ. eigenvalues --  -10.31712 -10.31705 -10.31680 -10.31548 -10.31421
 Alpha  occ. eigenvalues --  -10.31000 -10.30948 -10.30778 -10.30741 -10.30581
 Alpha  occ. eigenvalues --  -10.30493 -10.30362 -10.30358 -10.30331 -10.30205
 Alpha  occ. eigenvalues --  -10.30096 -10.29790 -10.29665 -10.29648 -10.29627
 Alpha  occ. eigenvalues --  -10.29566 -10.29525 -10.29441 -10.29424 -10.29384
 Alpha  occ. eigenvalues --  -10.28630  -3.22033  -3.21348  -1.95563  -1.95206
 Alpha  occ. eigenvalues --   -1.94964  -1.94907  -1.94471  -1.94335  -1.18747
 Alpha  occ. eigenvalues --   -1.18224  -1.12986  -1.12555  -1.12522  -1.10918
 Alpha  occ. eigenvalues --   -1.09643  -1.09237  -1.06935  -1.06894  -1.06063
 Alpha  occ. eigenvalues --   -1.05672  -1.04967  -1.04603  -1.04382  -1.03632
 Alpha  occ. eigenvalues --   -0.95719  -0.94189  -0.91424  -0.91101  -0.90687
 Alpha  occ. eigenvalues --   -0.90265  -0.90066  -0.89964  -0.89399  -0.88803
 Alpha  occ. eigenvalues --   -0.88796  -0.88384  -0.88188  -0.87763  -0.86641
 Alpha  occ. eigenvalues --   -0.85994  -0.85986  -0.85239  -0.85032  -0.84615
 Alpha  occ. eigenvalues --   -0.84160  -0.84027  -0.83097  -0.83041  -0.82789
 Alpha  occ. eigenvalues --   -0.82222  -0.80517  -0.79751  -0.79427  -0.79298
 Alpha  occ. eigenvalues --   -0.79224  -0.78688  -0.78179  -0.78049  -0.77391
 Alpha  occ. eigenvalues --   -0.76891  -0.75370  -0.74650  -0.73329  -0.72907
 Alpha  occ. eigenvalues --   -0.71221  -0.71140  -0.70601  -0.70410  -0.70185
 Alpha  occ. eigenvalues --   -0.69404  -0.68922  -0.68475  -0.67848  -0.67663
 Alpha  occ. eigenvalues --   -0.67093  -0.66906  -0.66833  -0.66468  -0.66451
 Alpha  occ. eigenvalues --   -0.66097  -0.64792  -0.64060  -0.62743  -0.61792
 Alpha  occ. eigenvalues --   -0.61697  -0.61507  -0.61434  -0.60981  -0.60849
 Alpha  occ. eigenvalues --   -0.60523  -0.60397  -0.59977  -0.59707  -0.59453
 Alpha  occ. eigenvalues --   -0.58331  -0.57866  -0.57613  -0.57281  -0.56941
 Alpha  occ. eigenvalues --   -0.56869  -0.56684  -0.56623  -0.56105  -0.55925
 Alpha  occ. eigenvalues --   -0.55672  -0.55192  -0.55179  -0.54781  -0.54675
 Alpha  occ. eigenvalues --   -0.54496  -0.54476  -0.54410  -0.54360  -0.54038
 Alpha  occ. eigenvalues --   -0.53706  -0.53691  -0.53586  -0.53356  -0.53193
 Alpha  occ. eigenvalues --   -0.52954  -0.52943  -0.52704  -0.52227  -0.52157
 Alpha  occ. eigenvalues --   -0.52012  -0.51852  -0.51827  -0.51679  -0.51646
 Alpha  occ. eigenvalues --   -0.51578  -0.51458  -0.51165  -0.51146  -0.51044
 Alpha  occ. eigenvalues --   -0.50709  -0.50659  -0.50362  -0.50262  -0.50080
 Alpha  occ. eigenvalues --   -0.49921  -0.49797  -0.49792  -0.49524  -0.49219
 Alpha  occ. eigenvalues --   -0.49177  -0.48991  -0.48919  -0.48461  -0.48362
 Alpha  occ. eigenvalues --   -0.48350  -0.48151  -0.48074  -0.47903  -0.47880
 Alpha  occ. eigenvalues --   -0.47573  -0.47386  -0.47167  -0.47043  -0.46928
 Alpha  occ. eigenvalues --   -0.46879  -0.46749  -0.46734  -0.46426  -0.46302
 Alpha  occ. eigenvalues --   -0.46020  -0.45927  -0.45893  -0.45677  -0.45447
 Alpha  occ. eigenvalues --   -0.45350  -0.45188  -0.45071  -0.45067  -0.44770
 Alpha  occ. eigenvalues --   -0.44720  -0.44614  -0.44603  -0.44421  -0.44170
 Alpha  occ. eigenvalues --   -0.44043  -0.43921  -0.43610  -0.43382  -0.43246
 Alpha  occ. eigenvalues --   -0.42946  -0.42879  -0.42663  -0.42594  -0.42354
 Alpha  occ. eigenvalues --   -0.41751  -0.41707  -0.41380  -0.41240  -0.40608
 Alpha  occ. eigenvalues --   -0.40483  -0.40172  -0.40172  -0.39695  -0.39689
 Alpha  occ. eigenvalues --   -0.39239  -0.39035  -0.38669  -0.38412  -0.38231
 Alpha  occ. eigenvalues --   -0.37869  -0.37563  -0.36742  -0.36633  -0.36281
 Alpha  occ. eigenvalues --   -0.36239  -0.35532  -0.35405  -0.33790  -0.33580
 Alpha  occ. eigenvalues --   -0.33451  -0.33447  -0.32427  -0.32253  -0.32081
 Alpha  occ. eigenvalues --   -0.31934  -0.31776  -0.31290  -0.26253  -0.26183
 Alpha  occ. eigenvalues --   -0.23557  -0.22978
 Alpha virt. eigenvalues --   -0.08033  -0.07116   0.00258   0.01132   0.02349
 Alpha virt. eigenvalues --    0.02519   0.04262   0.04272   0.04500   0.04935
 Alpha virt. eigenvalues --    0.06092   0.06736   0.07093   0.07637   0.08296

 Mulliken charges:
               1
     1  Mg   0.983633
     2  C   -0.013869
     3  C   -0.065869
     4  C   -0.042862
     5  C   -0.082942
     6  N   -0.296731
     7  C   -0.036480
     8  C   -0.083923
     9  C   -0.102330
    10  C   -0.016797
    11  C    0.047881
    12  C    0.043104
    13  C   -0.116563
    14  H    0.053887
    15  N   -0.496846
    16  C    0.190212
    17  C   -0.170702
    18  C   -0.082111
    19  C    0.148002
    20  C    0.071779
    21  C    0.008697
    22  O   -0.274939
    23  C    0.009774
    24  N   -0.391796
    25  C    0.045148
    26  C   -0.110617
    27  C   -0.102337
    28  C    0.088852
    29  C    0.051781
    30  C   -0.033924
    31  C   -0.032722
    32  N   -0.399926
    33  C    0.123135
    34  C   -0.202634
    35  C   -0.040046
    36  C    0.129310
    37  C    0.087854
    38  C    0.156521
    39  O   -0.192262
    40  C   -0.060021
    41  C    0.245526
    42  O   -0.268787
    43  O   -0.350391
    44  C    0.133692
    45  H   -0.007687
    46  H    0.013682
    47  H    0.005013
    48  H    0.033307
    49  H    0.025423
    50  H    0.044486
    51  H    0.034252
    52  H    0.048400
    53  H    0.032033
    54  H    0.031282
    55  H    0.048019
    56  H    0.042919
    57  H    0.068018
    58  H    0.040279
    59  H    0.043052
    60  H    0.064004
    61  H    0.055096
    62  H    0.045543
    63  H    0.047141
    64  H    0.025420
    65  H    0.046380
    66  H    0.060249
    67  H    0.027962
    68  H    0.024661
    69  H    0.033423
    70  H    0.042556
    71  H    0.036225
    72  H    0.048603
    73  H    0.031186
    74  H    0.060012
    75  H    0.065027
    76  H    0.071928
    77  H    0.066060
    78  H    0.033738
    79  H    0.061948
    80  Mg   0.961113
    81  C   -0.078058
    82  C   -0.075619
    83  C   -0.093985
    84  C   -0.091097
    85  N   -0.325280
    86  C   -0.039555
    87  C   -0.084204
    88  C   -0.134194
    89  C    0.034768
    90  C    0.014967
    91  C    0.052808
    92  C   -0.094261
    93  H    0.019880
    94  N   -0.466689
    95  C    0.174670
    96  C   -0.161893
    97  C   -0.102804
    98  C    0.203878
    99  C    0.095445
   100  C    0.075967
   101  O   -0.234464
   102  C   -0.027987
   103  N   -0.403862
   104  C    0.073498
   105  C   -0.123922
   106  C   -0.024147
   107  C    0.034569
   108  C    0.024327
   109  C   -0.029731
   110  C   -0.054239
   111  N   -0.416028
   112  C    0.139631
   113  C   -0.160941
   114  C   -0.085662
   115  C    0.221327
   116  C    0.066589
   117  C    0.109029
   118  O   -0.181730
   119  C   -0.079727
   120  C    0.276229
   121  O   -0.220956
   122  O   -0.387191
   123  C    0.130537
   124  H    0.011417
   125  H   -0.019712
   126  H   -0.007310
   127  H    0.027323
   128  H    0.037143
   129  H    0.043868
   130  H    0.052441
   131  H    0.042161
   132  H    0.036912
   133  H    0.036993
   134  H    0.063434
   135  H    0.049684
   136  H    0.010701
   137  H    0.056761
   138  H    0.066382
   139  H    0.071038
   140  H    0.057600
   141  H    0.067738
   142  H    0.055943
   143  H    0.043567
   144  H    0.039920
   145  H    0.046117
   146  H    0.045227
   147  H    0.031553
   148  H    0.018912
   149  H    0.040057
   150  H    0.034071
   151  H    0.032251
   152  H    0.049873
   153  H    0.043571
   154  H    0.043547
   155  H    0.072491
   156  H    0.046064
   157  H    0.054220
   158  H    0.067038
 Sum of Mulliken charges =  -0.00000

 Dipole moment (field-independent basis, Debye):
    X=              0.2287    Y=              5.3579    Z=              2.5510  Tot=              5.9386
 Quadrupole moment (field-independent basis, Debye-Ang):
   XX=           -408.3999   YY=           -537.1032   ZZ=           -499.4522
   XY=            -72.7274   XZ=             27.6378   YZ=             31.9354

 Normal termination of Gaussian 16 at Sat Sep 18 17:13:54 2021.
