 Gaussian 16, Revision A.03,
 Gaussian 16:  ES64L-G16RevA.03 25-Dec-2016

 --------------------------------
 #p wB97XD/Def2SVP td=(nstates=5)
 --------------------------------

 --------------------------------
 TDDFT excited states in gaussian
 --------------------------------
 Symbolic Z-matrix:
 Charge =  0 Multiplicity = 1

                         Standard orientation:
 ---------------------------------------------------------------------
 Center     Atomic      Atomic             Coordinates (Angstroms)
 Number     Number       Type             X           Y           Z
 ---------------------------------------------------------------------
      1         12           0      -28.290959    0.351680   -0.664848
      2          6           0      -27.849878   -2.312104    1.558967
      3          6           0      -27.596357    2.491880    1.724047
      4          6           0      -29.464021    2.892579   -2.657725
      5          6           0      -29.528169   -1.913785   -3.073684
      6          7           0      -27.696222    0.064925    1.336499
      7          6           0      -27.500917   -1.081851    2.074389
      8          6           0      -26.859371   -0.783823    3.423392
      9          6           0      -27.014527    0.768631    3.506730
     10          6           0      -27.348928    1.142359    2.104632
     11          6           0      -27.909696    1.376343    4.564972
     12          6           0      -25.409223   -1.337675    3.598208
     13          6           0      -24.766955   -1.065728    4.962872
     14          1           0      -24.187076   -2.275612    5.680798
     15          7           0      -28.567001    2.507824   -0.449756
     16          6           0      -28.064086    3.201485    0.592659
     17          6           0      -28.203568    4.608074    0.335729
     18          6           0      -28.852773    4.737205   -0.904183
     19          6           0      -28.997575    3.335525   -1.382917
     20          6           0      -27.771869    5.689555    1.303512
     21          6           0      -29.223885    5.967271   -1.665874
     22          8           0      -29.932534    6.013356   -2.706811
     23          6           0      -28.697844    7.327678   -1.224798
     24          7           0      -29.350909    0.459289   -2.540876
     25          6           0      -29.770684    1.617793   -3.100609
     26          6           0      -30.319414    1.328954   -4.600207
     27          6           0      -29.871555   -0.157385   -4.828689
     28          6           0      -29.492466   -0.580696   -3.445841
     29          6           0      -31.878397    1.575425   -4.634178
     30          6           0      -28.562575   -0.219503   -5.697727
     31          6           0      -27.357961    0.614850   -5.290888
     32          7           0      -28.592772   -1.765510   -0.809622
     33          6           0      -29.094895   -2.485746   -1.858529
     34          6           0      -29.085491   -3.821056   -1.476251
     35          6           0      -28.632510   -3.885592   -0.127119
     36          6           0      -28.343329   -2.597291    0.238760
     37          6           0      -29.565239   -5.013333   -2.226350
     38          6           0      -28.348527   -4.731503    1.054309
     39          8           0      -28.484525   -5.926770    1.289240
     40          6           0      -27.725452   -3.727555    2.171622
     41          6           0      -28.345307   -3.976248    3.500422
     42          8           0      -29.556114   -4.300104    3.684821
     43          8           0      -27.364082   -3.962306    4.392497
     44          6           0      -27.688768   -4.628528    5.639252
     45          1           0      -27.265566    3.243862    2.443628
     46          1           0      -29.809049    3.690927   -3.319075
     47          1           0      -29.793170   -2.593102   -3.885367
     48          1           0      -27.450883   -1.366352    4.129958
     49          1           0      -26.068549    1.281269    3.684518
     50          1           0      -28.152570    0.749895    5.423248
     51          1           0      -28.826823    1.731251    4.094080
     52          1           0      -27.486770    2.349398    4.815554
     53          1           0      -24.772013   -0.952752    2.801617
     54          1           0      -25.420932   -2.415680    3.440718
     55          1           0      -25.522478   -0.900718    5.730819
     56          1           0      -24.058069   -0.238907    4.909789
     57          1           0      -27.453680    5.328857    2.281579
     58          1           0      -28.559031    6.359730    1.648108
     59          1           0      -26.966815    6.317975    0.921379
     60          1           0      -29.183068    7.582963   -0.283142
     61          1           0      -29.092935    8.136562   -1.838961
     62          1           0      -27.609005    7.389638   -1.226026
     63          1           0      -29.873246    2.040322   -5.295201
     64          1           0      -30.768744   -0.668710   -5.177483
     65          1           0      -32.253572    2.110164   -3.761419
     66          1           0      -32.473623    0.662957   -4.672590
     67          1           0      -32.201184    2.210968   -5.457544
     68          1           0      -28.977187    0.115212   -6.648657
     69          1           0      -28.166077   -1.222470   -5.852769
     70          1           0      -27.642299    1.334359   -4.522760
     71          1           0      -26.798117    1.084978   -6.098647
     72          1           0      -26.662062   -0.143832   -4.932716
     73          1           0      -29.125140   -5.127762   -3.217283
     74          1           0      -30.632025   -4.843626   -2.369293
     75          1           0      -29.443937   -5.938607   -1.664032
     76          1           0      -26.678989   -4.026259    2.227544
     77          1           0      -26.848316   -5.243351    5.963750
     78          1           0      -28.536789   -5.312493    5.615093
     79          1           0      -27.852065   -3.833427    6.367479
     80         12           0       28.954024   -0.425772   -0.009637
     81          6           0       26.244035    1.549037    1.076265
     82          6           0       26.734578   -2.859828   -0.637390
     83          6           0       31.453285   -1.959522   -1.452523
     84          6           0       30.893690    2.573493    0.102505
     85          7           0       26.730939   -0.589961    0.164115
     86          6           0       25.824170    0.267185    0.690242
     87          6           0       24.416729   -0.291807    0.741585
     88          6           0       24.713593   -1.813369    0.429092
     89          6           0       26.144670   -1.804571   -0.067062
     90          6           0       24.520840   -2.796768    1.656331
     91          6           0       23.251258    0.284130   -0.175400
     92          6           0       23.553621    1.188709   -1.399502
     93          1           0       22.604544    1.078013   -2.650808
     94          7           0       29.057209   -2.273712   -0.809576
     95          6           0       28.044846   -3.085406   -1.083967
     96          6           0       28.558540   -4.256501   -1.845426
     97          6           0       30.031355   -4.047464   -1.936393
     98          6           0       30.222677   -2.701882   -1.394421
     99          6           0       27.726756   -5.457359   -2.207321
    100          6           0       31.015525   -4.986005   -2.584152
    101          8           0       30.607324   -6.060626   -3.017593
    102          6           0       32.542065   -4.687366   -2.819998
    103          7           0       30.945598    0.260227   -0.722484
    104          6           0       31.740840   -0.677618   -1.106097
    105          6           0       33.186684   -0.032387   -1.285952
    106          6           0       32.876819    1.441321   -1.015137
    107          6           0       31.444680    1.453834   -0.516391
    108          6           0       34.359837   -0.579634   -0.455891
    109          6           0       32.869718    2.357410   -2.346092
    110          6           0       33.980808    3.417700   -2.455255
    111          7           0       28.690031    1.640969    0.406510
    112          6           0       29.560395    2.691285    0.532316
    113          6           0       28.906087    3.834198    1.220565
    114          6           0       27.532351    3.484114    1.350916
    115          6           0       27.521027    2.084664    0.928614
    116          6           0       29.521250    5.219532    1.519803
    117          6           0       26.222980    3.881192    1.748534
    118          8           0       25.707172    4.962226    2.080538
    119          6           0       25.332238    2.615768    1.661898
    120          6           0       24.776685    2.368455    3.067428
    121          8           0       23.687866    2.523523    3.553282
    122          8           0       25.750163    1.671389    3.791277
    123          6           0       25.392641    1.210020    5.168654
    124          1           0       25.988584   -3.631530   -0.839388
    125          1           0       32.267801   -2.529053   -1.906620
    126          1           0       31.564265    3.392077    0.370799
    127          1           0       24.133695   -0.222318    1.791745
    128          1           0       24.024588   -2.162495   -0.340126
    129          1           0       24.260099   -2.245938    2.559424
    130          1           0       25.542839   -3.135845    1.822001
    131          1           0       23.806044   -3.576567    1.392859
    132          1           0       22.570082    0.819707    0.485983
    133          1           0       22.651707   -0.548630   -0.544587
    134          1           0       24.564190    0.926968   -1.713180
    135          1           0       23.410858    2.251663   -1.207401
    136          1           0       28.322217   -6.315859   -2.517264
    137          1           0       26.979992   -5.107371   -2.921015
    138          1           0       27.144263   -5.645956   -1.304923
    139          1           0       33.186169   -4.364230   -2.001318
    140          1           0       32.616454   -3.852128   -3.516385
    141          1           0       33.069705   -5.549450   -3.227035
    142          1           0       33.565521   -0.180930   -2.296585
    143          1           0       33.521955    1.998986   -0.335340
    144          1           0       34.054375   -1.410845    0.179827
    145          1           0       34.842694    0.205752    0.126555
    146          1           0       35.155993   -1.012092   -1.061883
    147          1           0       31.943960    2.923237   -2.441172
    148          1           0       32.932877    1.657335   -3.179444
    149          1           0       33.705197    4.335336   -2.975543
    150          1           0       34.759089    2.951565   -3.059424
    151          1           0       34.233778    3.620724   -1.414565
    152          1           0       30.458542    5.429382    1.005529
    153          1           0       29.706818    5.197235    2.593379
    154          1           0       28.754054    5.974590    1.350132
    155          1           0       24.509597    2.800675    0.971912
    156          1           0       24.680718    1.798347    5.747151
    157          1           0       26.336028    1.292126    5.708122
    158          1           0       25.095152    0.170553    5.308379
 ---------------------------------------------------------------------

 SCF Done:  E(RwB97XD) =  -4070.60423506     A.U. after   19 cycles

 Excitation energies and oscillator strengths:

 Excited State   1:      Singlet-A      1.6681 eV  743.28 nm  f=0.3877  <S**2>=0.000
     310 -> 316        0.17127
     311 -> 313        0.68673
     310 <- 316        0.11161
 This state for optimization and/or second-order correction.
 Total Energy, E(TD-HF/TD-DFT) =  -4070.54293484
 Copying the excited state density for this state as the 1-particle RhoCI density.

 Excited State   2:      Singlet-A      1.7163 eV  722.40 nm  f=0.4096  <S**2>=0.000
     309 -> 315       -0.19066
     312 -> 314        0.68128
     309 <- 315       -0.11532

 Excited State   3:      Singlet-A      2.0912 eV  592.90 nm  f=0.1652  <S**2>=0.000
     310 -> 313        0.66094
     311 -> 316       -0.23076

 Excited State   4:      Singlet-A      2.2310 eV  555.72 nm  f=0.0956  <S**2>=0.000
     309 -> 314        0.63454
     312 -> 315        0.29975

 Excited State   5:      Singlet-A      3.0725 eV  403.53 nm  f=0.0091  <S**2>=0.000
     308 -> 313        0.67869

 The electronic state is 1-A.
 Alpha  occ. eigenvalues --  -46.96435 -46.95717 -19.31849 -19.29898 -19.25420
 Alpha  occ. eigenvalues --  -19.24632 -19.24222 -19.24017 -19.23602 -19.23457
 Alpha  occ. eigenvalues --  -14.47514 -14.46937 -14.46418 -14.46401 -14.45092
 Alpha  occ. eigenvalues --  -14.44743 -14.44364 -14.42589 -10.43809 -10.43066
 Alpha  occ. eigenvalues --  -10.39803 -10.39803 -10.39577 -10.38825 -10.36202
 Alpha  occ. eigenvalues --  -10.35734 -10.35674 -10.35601 -10.35169 -10.35167
 Alpha  occ. eigenvalues --  -10.35149 -10.35005 -10.34877 -10.34786 -10.34744
 Alpha  occ. eigenvalues --  -10.34716 -10.34450 -10.34201 -10.34094 -10.34055
 Alpha  occ. eigenvalues --  -10.34002 -10.33846 -10.33402 -10.33217 -10.33091
 Alpha  occ. eigenvalues --  -10.32902 -10.32887 -10.32592 -10.32382 -10.32355
 Alpha  occ. eigenvalues --  -10.32352 -10.32350 -10.32138 -10.32090 -10.31987
 Alpha  occ. eigenvalues --  -10.31965 -10.31889 -10.31818 -10.31808 -10.31797
 Alpha  occ. eigenvalues --  -10.31795 -10.31707 -10.31552 -10.31449 -10.31341
 Alpha  occ. eigenvalues --  -10.31148 -10.31146 -10.31024 -10.30997 -10.30498
 Alpha  occ. eigenvalues --  -10.30475 -10.30445 -10.30442 -10.30414 -10.30380
 Alpha  occ. eigenvalues --  -10.30366 -10.30347 -10.30217 -10.30043 -10.30040
 Alpha  occ. eigenvalues --  -10.29629 -10.29530 -10.29279 -10.29242 -10.28700
 Alpha  occ. eigenvalues --  -10.28259  -3.22365  -3.21563  -1.95941  -1.95485
 Alpha  occ. eigenvalues --   -1.95333  -1.95158  -1.94655  -1.94543  -1.20281
 Alpha  occ. eigenvalues --   -1.18282  -1.11764  -1.11660  -1.10987  -1.10643
 Alpha  occ. eigenvalues --   -1.09556  -1.08764  -1.08093  -1.07504  -1.06868
 Alpha  occ. eigenvalues --   -1.06383  -1.06085  -1.05353  -1.05320  -1.04462
 Alpha  occ. eigenvalues --   -0.95643  -0.93785  -0.91754  -0.91486  -0.91193
 Alpha  occ. eigenvalues --   -0.90753  -0.90505  -0.90346  -0.90230  -0.89970
 Alpha  occ. eigenvalues --   -0.89056  -0.88928  -0.87587  -0.87346  -0.86860
 Alpha  occ. eigenvalues --   -0.86712  -0.85858  -0.85667  -0.84810  -0.84766
 Alpha  occ. eigenvalues --   -0.83812  -0.83736  -0.83297  -0.82803  -0.82632
 Alpha  occ. eigenvalues --   -0.82499  -0.80877  -0.80500  -0.79668  -0.79495
 Alpha  occ. eigenvalues --   -0.79255  -0.78973  -0.78646  -0.78055  -0.77335
 Alpha  occ. eigenvalues --   -0.77181  -0.75362  -0.74715  -0.74406  -0.73712
 Alpha  occ. eigenvalues --   -0.71880  -0.71629  -0.71226  -0.71085  -0.70623
 Alpha  occ. eigenvalues --   -0.70355  -0.69684  -0.69531  -0.68806  -0.67671
 Alpha  occ. eigenvalues --   -0.67534  -0.67458  -0.67197  -0.66906  -0.66673
 Alpha  occ. eigenvalues --   -0.66507  -0.65214  -0.64697  -0.63073  -0.62619
 Alpha  occ. eigenvalues --   -0.62237  -0.61739  -0.61475  -0.61220  -0.60561
 Alpha  occ. eigenvalues --   -0.60534  -0.60117  -0.59511  -0.59285  -0.59240
 Alpha  occ. eigenvalues --   -0.58375  -0.58220  -0.57955  -0.57891  -0.57720
 Alpha  occ. eigenvalues --   -0.57680  -0.57376  -0.57284  -0.57060  -0.56538
 Alpha  occ. eigenvalues --   -0.56336  -0.55940  -0.55618  -0.55242  -0.55098
 Alpha  occ. eigenvalues --   -0.54926  -0.54898  -0.54744  -0.54465  -0.53993
 Alpha  occ. eigenvalues --   -0.53693  -0.53643  -0.53558  -0.53513  -0.53245
 Alpha  occ. eigenvalues --   -0.53051  -0.52911  -0.52553  -0.52517  -0.52418
 Alpha  occ. eigenvalues --   -0.52033  -0.51983  -0.51775  -0.51527  -0.51486
 Alpha  occ. eigenvalues --   -0.51071  -0.51018  -0.50827  -0.50816  -0.50500
 Alpha  occ. eigenvalues --   -0.50492  -0.50478  -0.50446  -0.50264  -0.50257
 Alpha  occ. eigenvalues --   -0.50015  -0.49824  -0.49555  -0.49399  -0.49233
 Alpha  occ. eigenvalues --   -0.49215  -0.49132  -0.48902  -0.48690  -0.48605
 Alpha  occ. eigenvalues --   -0.48444  -0.48284  -0.48259  -0.48075  -0.47876
 Alpha  occ. eigenvalues --   -0.47826  -0.47764  -0.47518  -0.47359  -0.47322
 Alpha  occ. eigenvalues --   -0.47080  -0.46812  -0.46617  -0.46349  -0.46204
 Alpha  occ. eigenvalues --   -0.46147  -0.45937  -0.45796  -0.45638  -0.45546
 Alpha  occ. eigenvalues --   -0.45353  -0.45282  -0.45147  -0.45112  -0.44825
 Alpha  occ. eigenvalues --   -0.44606  -0.44565  -0.44313  -0.44283  -0.44069
 Alpha  occ. eigenvalues --   -0.44027  -0.43993  -0.43810  -0.43390  -0.43374
 Alpha  occ. eigenvalues --   -0.43144  -0.43137  -0.42878  -0.42767  -0.42622
 Alpha  occ. eigenvalues --   -0.42383  -0.41906  -0.41516  -0.41171  -0.41133
 Alpha  occ. eigenvalues --   -0.40790  -0.40610  -0.40159  -0.39847  -0.39749
 Alpha  occ. eigenvalues --   -0.39370  -0.38919  -0.38866  -0.38746  -0.38566
 Alpha  occ. eigenvalues --   -0.38334  -0.38303  -0.37091  -0.36286  -0.36123
 Alpha  occ. eigenvalues --   -0.35947  -0.35890  -0.35042  -0.34161  -0.34120
 Alpha  occ. eigenvalues --   -0.33515  -0.33298  -0.33180  -0.32962  -0.32894
 Alpha  occ. eigenvalues --   -0.32074  -0.31448  -0.30629  -0.26448  -0.25988
 Alpha  occ. eigenvalues --   -0.23591  -0.23371
 Alpha virt. eigenvalues --   -0.07720  -0.07290  -0.00154   0.00646   0.01388
 Alpha virt. eigenvalues --    0.01985   0.03825   0.04494   0.04535   0.04945
 Alpha virt. eigenvalues --    0.06621   0.06785   0.07147   0.07162   0.07943

 Mulliken charges:
               1
     1  Mg   0.940817
     2  C    0.025372
     3  C   -0.076029
     4  C   -0.054471
     5  C   -0.071379
     6  N   -0.396484
     7  C   -0.020160
     8  C   -0.029445
     9  C   -0.089369
    10  C    0.104736
    11  C    0.044347
    12  C    0.022421
    13  C   -0.128856
    14  H    0.030694
    15  N   -0.379697
    16  C    0.094774
    17  C   -0.112277
    18  C   -0.048709
    19  C    0.101660
    20  C    0.053473
    21  C    0.041280
    22  O   -0.259338
    23  C   -0.009192
    24  N   -0.351569
    25  C    0.069344
    26  C   -0.145324
    27  C   -0.029788
    28  C    0.038812
    29  C    0.014262
    30  C   -0.014323
    31  C   -0.051381
    32  N   -0.418262
    33  C    0.151714
    34  C   -0.204248
    35  C   -0.041240
    36  C    0.088590
    37  C    0.077118
    38  C    0.161918
    39  O   -0.201873
    40  C   -0.129179
    41  C    0.263421
    42  O   -0.280596
    43  O   -0.330274
    44  C    0.127193
    45  H   -0.027653
    46  H    0.024858
    47  H   -0.001107
    48  H    0.031508
    49  H    0.031546
    50  H    0.056316
    51  H    0.033584
    52  H    0.025690
    53  H    0.024437
    54  H    0.044940
    55  H    0.046502
    56  H    0.062193
    57  H    0.028508
    58  H    0.048639
    59  H    0.055014
    60  H    0.043792
    61  H    0.044673
    62  H    0.064242
    63  H    0.043792
    64  H    0.030749
    65  H    0.043542
    66  H    0.032448
    67  H    0.040109
    68  H    0.029590
    69  H    0.030951
    70  H    0.055267
    71  H    0.043826
    72  H    0.033826
    73  H    0.035246
    74  H    0.042856
    75  H    0.057957
    76  H    0.082046
    77  H    0.053487
    78  H    0.078567
    79  H    0.049572
    80  Mg   0.957622
    81  C   -0.036432
    82  C   -0.091680
    83  C   -0.036420
    84  C   -0.103597
    85  N   -0.340929
    86  C   -0.037914
    87  C    0.005253
    88  C   -0.158264
    89  C    0.057845
    90  C    0.033625
    91  C    0.002373
    92  C   -0.149990
    93  H    0.026842
    94  N   -0.476155
    95  C    0.164693
    96  C   -0.173335
    97  C   -0.081353
    98  C    0.167311
    99  C    0.085915
   100  C    0.055503
   101  O   -0.240338
   102  C   -0.027056
   103  N   -0.273754
   104  C    0.045762
   105  C   -0.055703
   106  C   -0.126090
   107  C    0.077320
   108  C    0.014295
   109  C   -0.041894
   110  C   -0.039884
   111  N   -0.402044
   112  C    0.126924
   113  C   -0.186229
   114  C   -0.008783
   115  C    0.160870
   116  C    0.075239
   117  C    0.093787
   118  O   -0.218125
   119  C   -0.083314
   120  C    0.279631
   121  O   -0.209560
   122  O   -0.398014
   123  C    0.134866
   124  H   -0.010906
   125  H   -0.053753
   126  H    0.002669
   127  H    0.040920
   128  H    0.037035
   129  H    0.035412
   130  H    0.038133
   131  H    0.054853
   132  H    0.045324
   133  H    0.044638
   134  H    0.072964
   135  H    0.074361
   136  H    0.077708
   137  H    0.041039
   138  H    0.036934
   139  H    0.056520
   140  H    0.057161
   141  H    0.052430
   142  H    0.035517
   143  H    0.023182
   144  H    0.033248
   145  H    0.036010
   146  H    0.027132
   147  H    0.043324
   148  H    0.025256
   149  H    0.043761
   150  H    0.037823
   151  H    0.028136
   152  H    0.042834
   153  H    0.054949
   154  H    0.069734
   155  H    0.068844
   156  H    0.065904
   157  H    0.044863
   158  H    0.047220
 Sum of Mulliken charges =  -0.00000

 Dipole moment (field-independent basis, Debye):
    X=              8.4370    Y=              4.3360    Z=              2.5733  Tot=              9.8288
 Quadrupole moment (field-independent basis, Debye-Ang):
   XX=           -515.2749   YY=           -572.5004   ZZ=           -478.4838
   XY=           -125.6676   XZ=             14.2697   YZ=             -2.9572

 Normal termination of Gaussian 16 at Sun Sep 19 02:38:05 2021.
