 Gaussian 16, Revision A.03,
 Gaussian 16:  ES64L-G16RevA.03 25-Dec-2016

 --------------------------------
 #p wB97XD/Def2SVP td=(nstates=5)
 --------------------------------

 --------------------------------
 TDDFT excited states in gaussian
 --------------------------------
 Symbolic Z-matrix:
 Charge =  0 Multiplicity = 1

                         Standard orientation:
 ---------------------------------------------------------------------
 Center     Atomic      Atomic             Coordinates (Angstroms)
 Number     Number       Type             X           Y           Z
 ---------------------------------------------------------------------
      1         12           0      -30.060473    0.553580    0.334064
      2          6           0      -28.607351   -2.465151   -0.523406
      3          6           0      -27.021180    2.168769   -0.530047
      4          6           0      -31.583458    3.611554    0.601417
      5          6           0      -33.138883   -0.966511    0.710523
      6          7           0      -28.032867   -0.133401   -0.308740
      7          6           0      -27.718241   -1.420124   -0.692303
      8          6           0      -26.316554   -1.551506   -1.397750
      9          6           0      -25.663847   -0.136949   -1.027394
     10          6           0      -26.946665    0.738834   -0.537427
     11          6           0      -24.483095   -0.081976    0.015297
     12          6           0      -26.363890   -1.785763   -2.866692
     13          6           0      -25.772691   -3.044702   -3.471457
     14          1           0      -25.252550   -2.920706   -4.912580
     15          7           0      -29.360379    2.625033    0.160721
     16          6           0      -28.044865    3.014113   -0.154590
     17          6           0      -27.933742    4.435964   -0.075633
     18          6           0      -29.331979    4.906404    0.106958
     19          6           0      -30.197789    3.700841    0.291805
     20          6           0      -26.663181    5.219536   -0.421200
     21          6           0      -29.676335    6.406016    0.114909
     22          8           0      -28.904462    7.346963   -0.046201
     23          6           0      -31.113601    6.768983   -0.010891
     24          7           0      -32.194902    1.275135    0.449808
     25          6           0      -32.475616    2.555558    0.727942
     26          6           0      -33.992330    2.701895    0.614327
     27          6           0      -34.576303    1.217590    0.737727
     28          6           0      -33.207478    0.405452    0.656184
     29          6           0      -34.531276    3.553696    1.817797
     30          6           0      -35.638587    0.698484   -0.316131
     31          6           0      -37.060365    0.371779    0.115641
     32          7           0      -30.763421   -1.382735    0.214677
     33          6           0      -32.053570   -1.877207    0.430292
     34          6           0      -32.083399   -3.286229    0.182322
     35          6           0      -30.745406   -3.601369   -0.208869
     36          6           0      -29.991366   -2.367452   -0.111251
     37          6           0      -33.244424   -4.225374    0.275897
     38          6           0      -29.842043   -4.613333   -0.573651
     39          8           0      -30.063772   -5.799674   -0.711611
     40          6           0      -28.452858   -3.927218   -0.871843
     41          6           0      -27.391261   -4.721383   -0.233897
     42          8           0      -26.637684   -5.460960   -0.856613
     43          8           0      -27.403978   -4.521645    1.138488
     44          6           0      -26.386634   -5.327555    1.850202
     45          1           0      -26.131294    2.770027   -0.725444
     46          1           0      -31.967928    4.622335    0.755575
     47          1           0      -34.128016   -1.421622    0.792342
     48          1           0      -25.746651   -2.349608   -0.923264
     49          1           0      -25.361483    0.318388   -1.971128
     50          1           0      -24.135164   -1.105128    0.157090
     51          1           0      -24.745265    0.362031    0.975715
     52          1           0      -23.715509    0.563119   -0.410582
     53          1           0      -25.784041   -0.982135   -3.323126
     54          1           0      -27.398078   -1.787541   -3.209330
     55          1           0      -26.569994   -3.784363   -3.538239
     56          1           0      -24.915163   -3.427832   -2.918791
     57          1           0      -25.773733    4.718831   -0.803008
     58          1           0      -26.480293    5.768050    0.502475
     59          1           0      -27.034582    6.020663   -1.059432
     60          1           0      -31.721157    6.884910    0.885601
     61          1           0      -31.635398    6.142112   -0.734140
     62          1           0      -31.130079    7.778109   -0.424264
     63          1           0      -34.304548    3.162093   -0.323414
     64          1           0      -34.928382    1.036221    1.752628
     65          1           0      -35.170477    4.327252    1.392222
     66          1           0      -33.768376    4.007948    2.451306
     67          1           0      -35.117302    2.970795    2.528733
     68          1           0      -35.171097   -0.190266   -0.739441
     69          1           0      -35.746197    1.514604   -1.031949
     70          1           0      -37.425141   -0.335791   -0.629355
     71          1           0      -37.668002    1.273700    0.038828
     72          1           0      -37.243338   -0.096366    1.082258
     73          1           0      -32.853234   -5.208893    0.014274
     74          1           0      -34.014411   -3.853665   -0.399481
     75          1           0      -33.686535   -4.320634    1.267808
     76          1           0      -28.339701   -4.041319   -1.950461
     77          1           0      -26.805412   -6.292834    2.134545
     78          1           0      -26.035103   -4.703422    2.671747
     79          1           0      -25.499022   -5.490902    1.239664
     80         12           0       30.428145    0.107250   -0.225793
     81          6           0       28.346993   -1.567969    1.995224
     82          6           0       30.074255    2.903868    1.730435
     83          6           0       32.276987    1.858715   -2.555826
     84          6           0       30.290818   -2.573526   -2.449565
     85          7           0       29.408970    0.555894    1.693899
     86          6           0       28.716142   -0.283787    2.482032
     87          6           0       28.313883    0.298866    3.856926
     88          6           0       28.676143    1.832034    3.651911
     89          6           0       29.415689    1.811576    2.229260
     90          6           0       27.357022    2.682086    3.709350
     91          6           0       29.203618   -0.459321    4.970377
     92          6           0       28.428348   -1.125260    6.145146
     93          1           0       26.982951   -0.549369    6.366326
     94          7           0       31.044877    2.101418   -0.469894
     95          6           0       30.857835    3.088656    0.519587
     96          6           0       31.641527    4.253293    0.166922
     97          6           0       32.237538    3.999949   -1.074975
     98          6           0       31.933032    2.558209   -1.403963
     99          6           0       31.476133    5.581336    0.919334
    100          6           0       33.088242    4.965557   -1.942039
    101          8           0       33.599608    4.680103   -3.040959
    102          6           0       33.396461    6.364224   -1.380465
    103          7           0       31.088743   -0.320228   -2.249615
    104          6           0       31.909751    0.605313   -2.963017
    105          6           0       32.154608    0.106225   -4.402383
    106          6           0       31.752571   -1.434440   -4.248451
    107          6           0       31.033762   -1.462917   -2.874074
    108          6           0       31.355259    0.955804   -5.376543
    109          6           0       33.033702   -2.370538   -4.226720
    110          6           0       34.269120   -2.191462   -3.280009
    111          7           0       29.474328   -1.657188   -0.303752
    112          6           0       29.481012   -2.665608   -1.272346
    113          6           0       28.669695   -3.749421   -0.821510
    114          6           0       28.244395   -3.399395    0.447295
    115          6           0       28.663717   -2.069823    0.699780
    116          6           0       28.295814   -5.001091   -1.588908
    117          6           0       27.501173   -3.849823    1.556513
    118          8           0       26.864885   -4.851863    1.637378
    119          6           0       27.444147   -2.622083    2.556939
    120          6           0       26.006550   -2.182462    2.592099
    121          8           0       25.589808   -1.180733    2.048998
    122          8           0       25.322331   -3.104714    3.279351
    123          6           0       23.904056   -3.060921    3.020115
    124          1           0       30.035164    3.775554    2.386644
    125          1           0       32.643884    2.487450   -3.368970
    126          1           0       30.228283   -3.417559   -3.140361
    127          1           0       27.270015    0.153407    4.134260
    128          1           0       29.390434    2.234256    4.370685
    129          1           0       27.274445    3.459754    2.949694
    130          1           0       27.472978    3.095109    4.710981
    131          1           0       26.529756    1.973632    3.744828
    132          1           0       29.977135    0.238284    5.290813
    133          1           0       29.751945   -1.243241    4.447397
    134          1           0       29.088983   -0.897923    6.981092
    135          1           0       28.326678   -2.207832    6.074964
    136          1           0       31.200512    6.333735    0.179964
    137          1           0       32.442355    5.891521    1.319470
    138          1           0       30.732307    5.470654    1.707759
    139          1           0       32.470423    6.937552   -1.440151
    140          1           0       34.071743    6.825183   -2.101112
    141          1           0       33.958840    6.268324   -0.452007
    142          1           0       33.237128    0.148036   -4.526289
    143          1           0       31.196065   -1.760283   -5.126474
    144          1           0       31.190880    1.973564   -5.022263
    145          1           0       30.381885    0.505116   -5.568903
    146          1           0       31.898177    1.084246   -6.312717
    147          1           0       33.404007   -2.444486   -5.249269
    148          1           0       32.622056   -3.321570   -3.888710
    149          1           0       34.976911   -1.520583   -3.767098
    150          1           0       34.697101   -3.189063   -3.174661
    151          1           0       34.048926   -1.905695   -2.250944
    152          1           0       29.169806   -5.586598   -1.874821
    153          1           0       27.808753   -4.618141   -2.485461
    154          1           0       27.744302   -5.754618   -1.024902
    155          1           0       27.724722   -2.799028    3.595396
    156          1           0       23.410361   -4.029358    3.097222
    157          1           0       23.494354   -2.522088    2.165887
    158          1           0       23.346600   -2.482513    3.757175
 ---------------------------------------------------------------------

 SCF Done:  E(RwB97XD) =  -4070.59709677     A.U. after   19 cycles

 Excitation energies and oscillator strengths:

 Excited State   1:      Singlet-A      1.6514 eV  750.80 nm  f=0.3838  <S**2>=0.000
     310 -> 316        0.18083
     312 -> 314        0.68425
     310 <- 316        0.11556
 This state for optimization and/or second-order correction.
 Total Energy, E(TD-HF/TD-DFT) =  -4070.53641035
 Copying the excited state density for this state as the 1-particle RhoCI density.

 Excited State   2:      Singlet-A      1.6653 eV  744.50 nm  f=0.3844  <S**2>=0.000
     309 -> 315        0.17865
     311 -> 313        0.68429
     309 <- 315        0.11349

 Excited State   3:      Singlet-A      2.1184 eV  585.28 nm  f=0.1556  <S**2>=0.000
     309 -> 313        0.64906
     311 -> 315       -0.25657

 Excited State   4:      Singlet-A      2.1706 eV  571.19 nm  f=0.1245  <S**2>=0.000
     310 -> 314        0.64462
     312 -> 316       -0.27783

 Excited State   5:      Singlet-A      3.0629 eV  404.79 nm  f=0.0076  <S**2>=0.000
     307 -> 313        0.68068

 The electronic state is 1-A.
 Alpha  occ. eigenvalues --  -46.96835 -46.94415 -19.31392 -19.30351 -19.25016
 Alpha  occ. eigenvalues --  -19.24780 -19.24442 -19.24210 -19.23575 -19.23305
 Alpha  occ. eigenvalues --  -14.48171 -14.46830 -14.46570 -14.46014 -14.44717
 Alpha  occ. eigenvalues --  -14.44432 -14.44109 -14.43700 -10.43164 -10.42984
 Alpha  occ. eigenvalues --  -10.39318 -10.39043 -10.38861 -10.38160 -10.37289
 Alpha  occ. eigenvalues --  -10.36240 -10.35769 -10.35698 -10.35665 -10.35245
 Alpha  occ. eigenvalues --  -10.35103 -10.34801 -10.34688 -10.34567 -10.34324
 Alpha  occ. eigenvalues --  -10.34274 -10.34113 -10.34100 -10.33883 -10.33816
 Alpha  occ. eigenvalues --  -10.33608 -10.33597 -10.33542 -10.33041 -10.32959
 Alpha  occ. eigenvalues --  -10.32788 -10.32759 -10.32746 -10.32611 -10.32589
 Alpha  occ. eigenvalues --  -10.32438 -10.32354 -10.32343 -10.32339 -10.32319
 Alpha  occ. eigenvalues --  -10.32234 -10.32200 -10.31929 -10.31905 -10.31751
 Alpha  occ. eigenvalues --  -10.31703 -10.31626 -10.31553 -10.31339 -10.31070
 Alpha  occ. eigenvalues --  -10.31032 -10.30972 -10.30881 -10.30856 -10.30775
 Alpha  occ. eigenvalues --  -10.30743 -10.30568 -10.30478 -10.30192 -10.30178
 Alpha  occ. eigenvalues --  -10.30079 -10.29896 -10.29719 -10.29653 -10.29612
 Alpha  occ. eigenvalues --  -10.29419 -10.29349 -10.29174 -10.29075 -10.28909
 Alpha  occ. eigenvalues --  -10.28776  -3.22530  -3.20447  -1.96140  -1.95621
 Alpha  occ. eigenvalues --   -1.95491  -1.94040  -1.93549  -1.93440  -1.20361
 Alpha  occ. eigenvalues --   -1.17701  -1.14300  -1.12348  -1.11966  -1.11278
 Alpha  occ. eigenvalues --   -1.10477  -1.09689  -1.06813  -1.06180  -1.06074
 Alpha  occ. eigenvalues --   -1.05324  -1.04738  -1.04653  -1.03826  -1.03131
 Alpha  occ. eigenvalues --   -0.94819  -0.94555  -0.91486  -0.91269  -0.90426
 Alpha  occ. eigenvalues --   -0.90059  -0.89982  -0.89666  -0.89621  -0.89097
 Alpha  occ. eigenvalues --   -0.89018  -0.88424  -0.87916  -0.87853  -0.86458
 Alpha  occ. eigenvalues --   -0.85878  -0.85739  -0.85256  -0.84838  -0.84194
 Alpha  occ. eigenvalues --   -0.84148  -0.83154  -0.82845  -0.82798  -0.82742
 Alpha  occ. eigenvalues --   -0.81865  -0.79800  -0.79635  -0.79154  -0.79011
 Alpha  occ. eigenvalues --   -0.78955  -0.78653  -0.78161  -0.77779  -0.77475
 Alpha  occ. eigenvalues --   -0.76880  -0.75512  -0.74959  -0.74302  -0.73136
 Alpha  occ. eigenvalues --   -0.71355  -0.70986  -0.70816  -0.70628  -0.70005
 Alpha  occ. eigenvalues --   -0.69929  -0.69113  -0.68320  -0.67806  -0.67556
 Alpha  occ. eigenvalues --   -0.67470  -0.67300  -0.66797  -0.66539  -0.66452
 Alpha  occ. eigenvalues --   -0.65861  -0.64995  -0.64364  -0.62318  -0.61980
 Alpha  occ. eigenvalues --   -0.61744  -0.61469  -0.61409  -0.61085  -0.60900
 Alpha  occ. eigenvalues --   -0.60382  -0.59992  -0.59811  -0.59235  -0.58918
 Alpha  occ. eigenvalues --   -0.58568  -0.58204  -0.57944  -0.57656  -0.57420
 Alpha  occ. eigenvalues --   -0.56901  -0.56706  -0.56360  -0.55888  -0.55784
 Alpha  occ. eigenvalues --   -0.55509  -0.55309  -0.55190  -0.55055  -0.54817
 Alpha  occ. eigenvalues --   -0.54708  -0.54433  -0.54412  -0.54095  -0.54058
 Alpha  occ. eigenvalues --   -0.53891  -0.53857  -0.53821  -0.53675  -0.53277
 Alpha  occ. eigenvalues --   -0.52861  -0.52851  -0.52575  -0.52365  -0.52168
 Alpha  occ. eigenvalues --   -0.51842  -0.51757  -0.51724  -0.51460  -0.51449
 Alpha  occ. eigenvalues --   -0.51191  -0.51056  -0.50855  -0.50733  -0.50568
 Alpha  occ. eigenvalues --   -0.50478  -0.50235  -0.50217  -0.49847  -0.49845
 Alpha  occ. eigenvalues --   -0.49801  -0.49656  -0.49389  -0.49157  -0.49085
 Alpha  occ. eigenvalues --   -0.48976  -0.48624  -0.48576  -0.48529  -0.48177
 Alpha  occ. eigenvalues --   -0.48101  -0.48084  -0.47937  -0.47808  -0.47744
 Alpha  occ. eigenvalues --   -0.47663  -0.47479  -0.47221  -0.47136  -0.47108
 Alpha  occ. eigenvalues --   -0.46890  -0.46664  -0.46516  -0.46510  -0.46433
 Alpha  occ. eigenvalues --   -0.46244  -0.46082  -0.45672  -0.45667  -0.45580
 Alpha  occ. eigenvalues --   -0.45568  -0.45364  -0.44989  -0.44986  -0.44905
 Alpha  occ. eigenvalues --   -0.44757  -0.44566  -0.44352  -0.44282  -0.44169
 Alpha  occ. eigenvalues --   -0.43793  -0.43700  -0.43602  -0.43444  -0.43260
 Alpha  occ. eigenvalues --   -0.43253  -0.42687  -0.42595  -0.42350  -0.42177
 Alpha  occ. eigenvalues --   -0.41901  -0.41639  -0.41445  -0.41386  -0.41038
 Alpha  occ. eigenvalues --   -0.40273  -0.39952  -0.39658  -0.39422  -0.39387
 Alpha  occ. eigenvalues --   -0.39213  -0.39093  -0.38974  -0.38802  -0.38435
 Alpha  occ. eigenvalues --   -0.38147  -0.37850  -0.36750  -0.36532  -0.36341
 Alpha  occ. eigenvalues --   -0.36078  -0.35486  -0.34926  -0.34013  -0.33803
 Alpha  occ. eigenvalues --   -0.33222  -0.33047  -0.32486  -0.32478  -0.32310
 Alpha  occ. eigenvalues --   -0.32303  -0.31855  -0.31687  -0.26557  -0.25679
 Alpha  occ. eigenvalues --   -0.23989  -0.22774
 Alpha virt. eigenvalues --   -0.08104  -0.06893  -0.00432   0.00613   0.02049
 Alpha virt. eigenvalues --    0.02621   0.04314   0.04608   0.05459   0.05626
 Alpha virt. eigenvalues --    0.07044   0.07115   0.07415   0.08330   0.08454

 Mulliken charges:
               1
     1  Mg   0.930234
     2  C    0.060885
     3  C   -0.053536
     4  C   -0.067739
     5  C   -0.064609
     6  N   -0.367825
     7  C   -0.017699
     8  C   -0.066787
     9  C   -0.122752
    10  C    0.087908
    11  C    0.030133
    12  C    0.037165
    13  C   -0.149428
    14  H    0.025296
    15  N   -0.454715
    16  C    0.135282
    17  C   -0.149617
    18  C   -0.136767
    19  C    0.177486
    20  C    0.084226
    21  C    0.092310
    22  O   -0.239809
    23  C   -0.062662
    24  N   -0.335424
    25  C    0.120431
    26  C   -0.138865
    27  C   -0.048778
    28  C    0.022554
    29  C    0.006344
    30  C   -0.011645
    31  C   -0.052423
    32  N   -0.425194
    33  C    0.118215
    34  C   -0.169412
    35  C   -0.018264
    36  C    0.076614
    37  C    0.078427
    38  C    0.069269
    39  O   -0.202362
    40  C   -0.060261
    41  C    0.246536
    42  O   -0.245777
    43  O   -0.384154
    44  C    0.134965
    45  H   -0.012742
    46  H   -0.019717
    47  H   -0.002591
    48  H    0.034902
    49  H    0.040608
    50  H    0.043287
    51  H    0.048390
    52  H    0.043012
    53  H    0.039675
    54  H    0.043308
    55  H    0.068922
    56  H    0.059006
    57  H    0.056924
    58  H    0.057825
    59  H    0.063757
    60  H    0.068471
    61  H    0.055857
    62  H    0.048644
    63  H    0.055230
    64  H    0.030159
    65  H    0.036218
    66  H    0.039797
    67  H    0.031085
    68  H    0.041426
    69  H    0.028827
    70  H    0.036996
    71  H    0.037558
    72  H    0.038385
    73  H    0.063009
    74  H    0.045533
    75  H    0.046939
    76  H    0.066578
    77  H    0.069718
    78  H    0.052466
    79  H    0.054759
    80  Mg   0.964442
    81  C   -0.022190
    82  C   -0.067093
    83  C   -0.064452
    84  C   -0.108202
    85  N   -0.333496
    86  C    0.013977
    87  C   -0.076126
    88  C   -0.120508
    89  C    0.067010
    90  C    0.027392
    91  C   -0.000253
    92  C   -0.127131
    93  H    0.034990
    94  N   -0.460837
    95  C    0.133527
    96  C   -0.174237
    97  C   -0.089976
    98  C    0.138070
    99  C    0.086422
   100  C    0.051230
   101  O   -0.252407
   102  C   -0.016348
   103  N   -0.338788
   104  C    0.022173
   105  C   -0.061328
   106  C   -0.072396
   107  C    0.096816
   108  C    0.041995
   109  C   -0.059406
   110  C   -0.054435
   111  N   -0.488717
   112  C    0.148287
   113  C   -0.183983
   114  C   -0.008163
   115  C    0.148098
   116  C    0.079494
   117  C    0.095169
   118  O   -0.162847
   119  C   -0.097422
   120  C    0.245567
   121  O   -0.236996
   122  O   -0.309751
   123  C    0.140916
   124  H   -0.012965
   125  H    0.030858
   126  H    0.003277
   127  H    0.039859
   128  H    0.038816
   129  H    0.052154
   130  H    0.032868
   131  H    0.049470
   132  H    0.033238
   133  H    0.042338
   134  H    0.057023
   135  H    0.070044
   136  H    0.044599
   137  H    0.039343
   138  H    0.041525
   139  H    0.061818
   140  H    0.044463
   141  H    0.063981
   142  H    0.035097
   143  H    0.030279
   144  H    0.046251
   145  H    0.035060
   146  H    0.037259
   147  H    0.038903
   148  H    0.021492
   149  H    0.047721
   150  H    0.037251
   151  H    0.043649
   152  H    0.037571
   153  H    0.056847
   154  H    0.057405
   155  H    0.056506
   156  H    0.058022
   157  H    0.054725
   158  H    0.025165
 Sum of Mulliken charges =  -0.00000

 Dipole moment (field-independent basis, Debye):
    X=             -1.0499    Y=              3.4265    Z=              4.6020  Tot=              5.8328
 Quadrupole moment (field-independent basis, Debye-Ang):
   XX=           -348.8029   YY=           -570.3060   ZZ=           -490.9512
   XY=           -112.1986   XZ=              6.9960   YZ=              9.0365

 Normal termination of Gaussian 16 at Mon Sep 20 07:04:05 2021.
