 Gaussian 16, Revision A.03,
 Gaussian 16:  ES64L-G16RevA.03 25-Dec-2016

 --------------------------------
 #p wB97XD/Def2SVP td=(nstates=5)
 --------------------------------

 --------------------------------
 TDDFT excited states in gaussian
 --------------------------------
 Symbolic Z-matrix:
 Charge =  0 Multiplicity = 1

                         Standard orientation:
 ---------------------------------------------------------------------
 Center     Atomic      Atomic             Coordinates (Angstroms)
 Number     Number       Type             X           Y           Z
 ---------------------------------------------------------------------
      1         12           0       20.469361    0.107531    0.463409
      2          6           0       18.005752   -1.796600   -1.331991
      3          6           0       21.525453    1.306634   -2.701667
      4          6           0       23.023130    1.935287    1.991114
      5          6           0       19.650295   -1.383810    3.338359
      6          7           0       19.903885   -0.422148   -1.830075
      7          6           0       18.819472   -1.112396   -2.243489
      8          6           0       18.768877   -1.139544   -3.813485
      9          6           0       20.052756   -0.301753   -4.154666
     10          6           0       20.509072    0.319689   -2.814695
     11          6           0       21.158410   -1.164348   -4.857538
     12          6           0       17.492133   -0.528213   -4.390088
     13          6           0       16.848182   -1.278265   -5.509620
     14          1           0       15.509948   -0.770740   -6.065896
     15          7           0       21.897672    1.566205   -0.181842
     16          6           0       22.159737    1.888116   -1.509370
     17          6           0       23.190301    2.907185   -1.529972
     18          6           0       23.570140    3.187439   -0.227839
     19          6           0       22.874739    2.150799    0.607136
     20          6           0       23.837392    3.444202   -2.774156
     21          6           0       24.655404    4.185202    0.350157
     22          8           0       24.937893    4.377515    1.507451
     23          6           0       25.330968    5.148484   -0.601655
     24          7           0       21.331460    0.165781    2.294655
     25          6           0       22.349670    0.957236    2.758591
     26          6           0       22.784589    0.570052    4.191346
     27          6           0       21.559725   -0.303117    4.699926
     28          6           0       20.772169   -0.495108    3.348057
     29          6           0       24.178099   -0.134618    4.237486
     30          6           0       20.698675    0.373659    5.809518
     31          6           0       19.898307    1.598204    5.371671
     32          7           0       19.174128   -1.293677    0.969301
     33          6           0       18.864176   -1.805940    2.259963
     34          6           0       17.793849   -2.797151    2.175566
     35          6           0       17.411235   -2.773214    0.822372
     36          6           0       18.244028   -1.857154    0.126805
     37          6           0       17.235688   -3.556742    3.287992
     38          6           0       16.463699   -3.388518   -0.101357
     39          8           0       15.556750   -4.171866    0.125118
     40          6           0       16.861516   -2.848452   -1.578728
     41          6           0       15.500716   -2.311413   -2.028732
     42          8           0       14.904330   -1.291865   -1.637618
     43          8           0       14.976592   -3.157351   -2.898490
     44          6           0       13.768624   -2.730418   -3.714862
     45          1           0       21.792510    1.725057   -3.674009
     46          1           0       23.798345    2.460744    2.554269
     47          1           0       19.385715   -1.775610    4.322408
     48          1           0       18.753242   -2.200538   -4.060505
     49          1           0       19.820419    0.546503   -4.799944
     50          1           0       21.515631   -0.792627   -5.817910
     51          1           0       20.937617   -2.231516   -4.886874
     52          1           0       22.137165   -1.173772   -4.377375
     53          1           0       17.905508    0.280263   -4.993329
     54          1           0       16.814081   -0.147700   -3.625382
     55          1           0       16.697289   -2.355886   -5.427808
     56          1           0       17.562420   -1.157282   -6.324144
     57          1           0       23.315156    3.109085   -3.669928
     58          1           0       24.889837    3.184814   -2.899062
     59          1           0       23.828645    4.529221   -2.879170
     60          1           0       24.620065    5.808273   -1.098926
     61          1           0       25.859753    4.461944   -1.262904
     62          1           0       26.097477    5.612023    0.019417
     63          1           0       22.947340    1.532313    4.678078
     64          1           0       21.742739   -1.360685    4.891354
     65          1           0       24.944382    0.479974    4.709843
     66          1           0       24.575867   -0.549998    3.312222
     67          1           0       23.945406   -1.007046    4.848347
     68          1           0       21.314433    0.435384    6.706919
     69          1           0       19.938348   -0.346523    6.111266
     70          1           0       20.086332    1.953067    4.359003
     71          1           0       20.198840    2.397845    6.048235
     72          1           0       18.819984    1.459685    5.302317
     73          1           0       16.444438   -4.256367    3.017882
     74          1           0       16.855067   -2.804360    3.978639
     75          1           0       18.061639   -4.074502    3.777730
     76          1           0       17.070925   -3.661092   -2.274307
     77          1           0       13.722263   -3.423835   -4.554868
     78          1           0       13.884788   -1.742541   -4.159592
     79          1           0       12.843736   -2.696625   -3.137894
     80         12           0      -20.077264   -0.458673   -0.274119
     81          6           0      -19.630456    2.953949    0.063406
     82          6           0      -16.591925   -0.883387    0.240517
     83          6           0      -20.505582   -3.848734   -0.016827
     84          6           0      -23.508892   -0.068128   -0.294462
     85          7           0      -18.336547    0.921483   -0.026330
     86          6           0      -18.428685    2.281332    0.183640
     87          6           0      -17.078764    2.949487    0.642905
     88          6           0      -16.038317    1.780353    0.304142
     89          6           0      -17.001485    0.482044    0.105686
     90          6           0      -15.041374    1.961393   -0.903222
     91          6           0      -17.025919    3.357256    2.073234
     92          6           0      -16.823857    4.809936    2.459339
     93          1           0      -16.123853    5.059096    3.804951
     94          7           0      -18.706968   -2.153322   -0.026027
     95          6           0      -17.309497   -2.054609    0.110765
     96          6           0      -16.737764   -3.363115    0.145048
     97          6           0      -17.908088   -4.275705    0.230160
     98          6           0      -19.143892   -3.447349    0.075924
     99          6           0      -15.246235   -3.644417    0.354654
    100          6           0      -17.727324   -5.792664    0.413575
    101          8           0      -16.670966   -6.406197    0.535267
    102          6           0      -18.933305   -6.574279    0.798275
    103          7           0      -21.843133   -1.832412    0.016352
    104          6           0      -21.708815   -3.160943   -0.095920
    105          6           0      -23.063212   -3.766501    0.269667
    106          6           0      -24.121917   -2.578357    0.105747
    107          6           0      -23.105879   -1.368779   -0.105173
    108          6           0      -23.424756   -4.903633   -0.750423
    109          6           0      -25.162658   -2.284897    1.263018
    110          6           0      -26.652405   -2.492120    1.034266
    111          7           0      -21.369841    1.148870   -0.221656
    112          6           0      -22.767069    1.170857   -0.274058
    113          6           0      -23.238321    2.516667   -0.153903
    114          6           0      -22.047195    3.293292   -0.010232
    115          6           0      -20.940090    2.363595   -0.113386
    116          6           0      -24.649594    3.013652   -0.147313
    117          6           0      -21.499259    4.580848    0.112929
    118          8           0      -22.088210    5.641415    0.175652
    119          6           0      -19.935281    4.422222    0.248266
    120          6           0      -19.286329    5.417341   -0.619640
    121          8           0      -18.756040    6.437404   -0.194326
    122          8           0      -19.395320    5.036127   -1.948660
    123          6           0      -18.800483    6.017927   -2.883142
    124          1           0      -15.535242   -1.136038    0.346254
    125          1           0      -20.543901   -4.940425   -0.015322
    126          1           0      -24.595652    0.031542   -0.259481
    127          1           0      -16.870986    3.813983    0.013326
    128          1           0      -15.490049    1.580539    1.225481
    129          1           0      -15.076750    3.012072   -1.191017
    130          1           0      -15.252151    1.328553   -1.765408
    131          1           0      -14.056673    1.660502   -0.547501
    132          1           0      -16.159749    2.852042    2.503213
    133          1           0      -17.951806    3.076256    2.573955
    134          1           0      -17.809138    5.258171    2.584066
    135          1           0      -16.217377    5.366359    1.745086
    136          1           0      -14.537620   -2.838274    0.543336
    137          1           0      -15.001697   -4.228107   -0.532476
    138          1           0      -15.247941   -4.425737    1.114007
    139          1           0      -19.569285   -7.000920    0.023829
    140          1           0      -19.544777   -6.053026    1.534975
    141          1           0      -18.560462   -7.468442    1.299221
    142          1           0      -23.088252   -4.167854    1.283032
    143          1           0      -24.633171   -2.661114   -0.852715
    144          1           0      -23.711373   -5.774001   -0.160176
    145          1           0      -22.635232   -5.173680   -1.452861
    146          1           0      -24.253038   -4.642545   -1.409522
    147          1           0      -24.973605   -1.243877    1.524076
    148          1           0      -24.903581   -2.985346    2.058177
    149          1           0      -27.141659   -1.842083    1.760089
    150          1           0      -26.908154   -3.521018    1.288323
    151          1           0      -27.096159   -2.245358    0.070328
    152          1           0      -24.582989    4.096798   -0.041748
    153          1           0      -25.163437    2.512856    0.672657
    154          1           0      -25.213309    2.824610   -1.061050
    155          1           0      -19.738835    4.714556    1.280347
    156          1           0      -19.549843    6.749916   -3.184206
    157          1           0      -18.360773    5.431297   -3.689723
    158          1           0      -17.952963    6.538843   -2.438564
 ---------------------------------------------------------------------

 SCF Done:  E(RwB97XD) =  -4070.57902063     A.U. after   20 cycles

 Excitation energies and oscillator strengths:

 Excited State   1:      Singlet-A      1.5888 eV  780.34 nm  f=0.3686  <S**2>=0.000
     310 -> 316       -0.18990
     312 -> 314        0.68304
     310 <- 316       -0.12270
 This state for optimization and/or second-order correction.
 Total Energy, E(TD-HF/TD-DFT) =  -4070.52063179
 Copying the excited state density for this state as the 1-particle RhoCI density.

 Excited State   2:      Singlet-A      1.6655 eV  744.42 nm  f=0.3800  <S**2>=0.000
     309 -> 315       -0.17863
     311 -> 313        0.68427
     309 <- 315       -0.11348

 Excited State   3:      Singlet-A      2.1185 eV  585.25 nm  f=0.1555  <S**2>=0.000
     309 -> 313        0.64906
     311 -> 315        0.25657

 Excited State   4:      Singlet-A      2.1589 eV  574.30 nm  f=0.0892  <S**2>=0.000
     310 -> 314        0.62441
     312 -> 316        0.32207

 Excited State   5:      Singlet-A      3.0627 eV  404.83 nm  f=0.0077  <S**2>=0.000
     308 -> 313        0.68069

 The electronic state is 1-A.
 Alpha  occ. eigenvalues --  -46.96806 -46.94624 -19.30324 -19.30144 -19.24754
 Alpha  occ. eigenvalues --  -19.24537 -19.24402 -19.24179 -19.23278 -19.22969
 Alpha  occ. eigenvalues --  -14.48142 -14.47068 -14.46542 -14.46134 -14.44728
 Alpha  occ. eigenvalues --  -14.44691 -14.44404 -14.44300 -10.42958 -10.42323
 Alpha  occ. eigenvalues --  -10.39573 -10.39418 -10.39289 -10.38133 -10.37262
 Alpha  occ. eigenvalues --  -10.36214 -10.35986 -10.35742 -10.35669 -10.35466
 Alpha  occ. eigenvalues --  -10.35381 -10.35267 -10.35219 -10.35135 -10.35128
 Alpha  occ. eigenvalues --  -10.34773 -10.34696 -10.34539 -10.34085 -10.34072
 Alpha  occ. eigenvalues --  -10.34030 -10.33940 -10.33511 -10.33012 -10.32933
 Alpha  occ. eigenvalues --  -10.32894 -10.32758 -10.32731 -10.32730 -10.32721
 Alpha  occ. eigenvalues --  -10.32660 -10.32561 -10.32503 -10.32478 -10.32465
 Alpha  occ. eigenvalues --  -10.32410 -10.32395 -10.32326 -10.32313 -10.32291
 Alpha  occ. eigenvalues --  -10.32231 -10.32203 -10.31902 -10.31651 -10.31525
 Alpha  occ. eigenvalues --  -10.31338 -10.31311 -10.30948 -10.30850 -10.30849
 Alpha  occ. eigenvalues --  -10.30825 -10.30765 -10.30679 -10.30148 -10.30091
 Alpha  occ. eigenvalues --  -10.30055 -10.30024 -10.29921 -10.29877 -10.29870
 Alpha  occ. eigenvalues --  -10.29697 -10.29597 -10.29460 -10.29320 -10.29209
 Alpha  occ. eigenvalues --  -10.28881  -3.22502  -3.20753  -1.96112  -1.95593
 Alpha  occ. eigenvalues --   -1.95463  -1.94331  -1.93893  -1.93726  -1.18130
 Alpha  occ. eigenvalues --   -1.17674  -1.13681  -1.12318  -1.12271  -1.11939
 Alpha  occ. eigenvalues --   -1.09662  -1.07474  -1.06785  -1.06047  -1.05778
 Alpha  occ. eigenvalues --   -1.05121  -1.04625  -1.04262  -1.03797  -1.03743
 Alpha  occ. eigenvalues --   -0.94527  -0.92820  -0.91459  -0.91239  -0.91099
 Alpha  occ. eigenvalues --   -0.90604  -0.90034  -0.89930  -0.89639  -0.89298
 Alpha  occ. eigenvalues --   -0.89069  -0.88894  -0.88397  -0.87824  -0.86429
 Alpha  occ. eigenvalues --   -0.86039  -0.85713  -0.85464  -0.84810  -0.84269
 Alpha  occ. eigenvalues --   -0.84165  -0.83438  -0.82972  -0.82817  -0.82714
 Alpha  occ. eigenvalues --   -0.82130  -0.80103  -0.79773  -0.79213  -0.79126
 Alpha  occ. eigenvalues --   -0.78925  -0.78881  -0.78133  -0.77898  -0.77449
 Alpha  occ. eigenvalues --   -0.77065  -0.75484  -0.74580  -0.74275  -0.73624
 Alpha  occ. eigenvalues --   -0.71968  -0.71329  -0.70959  -0.70731  -0.69977
 Alpha  occ. eigenvalues --   -0.69499  -0.69083  -0.68255  -0.67530  -0.67441
 Alpha  occ. eigenvalues --   -0.67425  -0.67272  -0.67065  -0.66768  -0.66597
 Alpha  occ. eigenvalues --   -0.66073  -0.64968  -0.63777  -0.62290  -0.61716
 Alpha  occ. eigenvalues --   -0.61600  -0.61441  -0.61292  -0.61057  -0.60917
 Alpha  occ. eigenvalues --   -0.59784  -0.59709  -0.59366  -0.58891  -0.58540
 Alpha  occ. eigenvalues --   -0.58189  -0.57916  -0.57641  -0.57413  -0.57393
 Alpha  occ. eigenvalues --   -0.57040  -0.56680  -0.56581  -0.55895  -0.55758
 Alpha  occ. eigenvalues --   -0.55481  -0.55275  -0.55161  -0.55153  -0.54835
 Alpha  occ. eigenvalues --   -0.54788  -0.54683  -0.54650  -0.54382  -0.54329
 Alpha  occ. eigenvalues --   -0.54055  -0.54029  -0.53828  -0.53461  -0.53250
 Alpha  occ. eigenvalues --   -0.52900  -0.52839  -0.52825  -0.52337  -0.52140
 Alpha  occ. eigenvalues --   -0.52059  -0.51745  -0.51696  -0.51558  -0.51432
 Alpha  occ. eigenvalues --   -0.51215  -0.51163  -0.51162  -0.50909  -0.50828
 Alpha  occ. eigenvalues --   -0.50565  -0.50543  -0.50364  -0.50206  -0.50073
 Alpha  occ. eigenvalues --   -0.49820  -0.49773  -0.49444  -0.49361  -0.49130
 Alpha  occ. eigenvalues --   -0.48949  -0.48673  -0.48597  -0.48579  -0.48501
 Alpha  occ. eigenvalues --   -0.48290  -0.48120  -0.48072  -0.47909  -0.47781
 Alpha  occ. eigenvalues --   -0.47748  -0.47634  -0.47428  -0.47210  -0.47195
 Alpha  occ. eigenvalues --   -0.47081  -0.46832  -0.46635  -0.46482  -0.46335
 Alpha  occ. eigenvalues --   -0.46066  -0.46055  -0.45891  -0.45644  -0.45594
 Alpha  occ. eigenvalues --   -0.45553  -0.45465  -0.45067  -0.44958  -0.44955
 Alpha  occ. eigenvalues --   -0.44902  -0.44729  -0.44507  -0.44327  -0.44142
 Alpha  occ. eigenvalues --   -0.44061  -0.43780  -0.43573  -0.43415  -0.43301
 Alpha  occ. eigenvalues --   -0.43227  -0.42828  -0.42321  -0.42267  -0.42107
 Alpha  occ. eigenvalues --   -0.41874  -0.41611  -0.41466  -0.41356  -0.41085
 Alpha  occ. eigenvalues --   -0.40530  -0.40247  -0.39976  -0.39924  -0.39543
 Alpha  occ. eigenvalues --   -0.39395  -0.39184  -0.38775  -0.38713  -0.38035
 Alpha  occ. eigenvalues --   -0.37821  -0.37650  -0.36505  -0.36314  -0.35900
 Alpha  occ. eigenvalues --   -0.35459  -0.35338  -0.34714  -0.33985  -0.33601
 Alpha  occ. eigenvalues --   -0.33192  -0.32987  -0.32805  -0.32508  -0.32459
 Alpha  occ. eigenvalues --   -0.32282  -0.32150  -0.31826  -0.26529  -0.26023
 Alpha  occ. eigenvalues --   -0.23961  -0.22756
 Alpha virt. eigenvalues --   -0.08076  -0.07063  -0.00404  -0.00124   0.02078
 Alpha virt. eigenvalues --    0.02707   0.04342   0.04484   0.05486   0.06510
 Alpha virt. eigenvalues --    0.07072   0.07443   0.07595   0.07973   0.08485

 Mulliken charges:
               1
     1  Mg   0.988149
     2  C    0.030646
     3  C   -0.071705
     4  C   -0.057251
     5  C   -0.104962
     6  N   -0.311626
     7  C   -0.008621
     8  C   -0.088411
     9  C   -0.082963
    10  C    0.047769
    11  C    0.016137
    12  C    0.051480
    13  C   -0.150287
    14  H    0.031544
    15  N   -0.450308
    16  C    0.180607
    17  C   -0.160705
    18  C   -0.081887
    19  C    0.134155
    20  C    0.054925
    21  C    0.056889
    22  O   -0.215987
    23  C   -0.009078
    24  N   -0.398352
    25  C    0.036529
    26  C   -0.083092
    27  C   -0.076604
    28  C    0.060534
    29  C    0.027342
    30  C   -0.006022
    31  C   -0.051469
    32  N   -0.527312
    33  C    0.158760
    34  C   -0.163632
    35  C   -0.041823
    36  C    0.161986
    37  C    0.081428
    38  C    0.128514
    39  O   -0.198779
    40  C   -0.130075
    41  C    0.252280
    42  O   -0.286992
    43  O   -0.341688
    44  C    0.147865
    45  H   -0.001405
    46  H    0.022956
    47  H   -0.006045
    48  H    0.039123
    49  H    0.035204
    50  H    0.033065
    51  H    0.038309
    52  H    0.025667
    53  H    0.023405
    54  H    0.069077
    55  H    0.048323
    56  H    0.037561
    57  H    0.022379
    58  H    0.055842
    59  H    0.037911
    60  H    0.076415
    61  H    0.034934
    62  H    0.053191
    63  H    0.040843
    64  H    0.042994
    65  H    0.048292
    66  H    0.047190
    67  H    0.024262
    68  H    0.039514
    69  H    0.022301
    70  H    0.040672
    71  H    0.045480
    72  H    0.042417
    73  H    0.065311
    74  H    0.051811
    75  H    0.044442
    76  H    0.067545
    77  H    0.057668
    78  H    0.052435
    79  H    0.073005
    80  Mg   0.930390
    81  C    0.060733
    82  C   -0.053587
    83  C   -0.067771
    84  C   -0.064584
    85  N   -0.367789
    86  C   -0.017613
    87  C   -0.066803
    88  C   -0.122745
    89  C    0.087839
    90  C    0.030133
    91  C    0.037193
    92  C   -0.149433
    93  H    0.025333
    94  N   -0.454732
    95  C    0.135286
    96  C   -0.149495
    97  C   -0.136788
    98  C    0.177524
    99  C    0.084127
   100  C    0.092326
   101  O   -0.239762
   102  C   -0.062678
   103  N   -0.335509
   104  C    0.120466
   105  C   -0.138819
   106  C   -0.048783
   107  C    0.022516
   108  C    0.006355
   109  C   -0.011652
   110  C   -0.052418
   111  N   -0.425475
   112  C    0.118206
   113  C   -0.169487
   114  C   -0.018280
   115  C    0.076964
   116  C    0.078438
   117  C    0.069281
   118  O   -0.202415
   119  C   -0.060311
   120  C    0.246554
   121  O   -0.245771
   122  O   -0.384152
   123  C    0.134987
   124  H   -0.012686
   125  H   -0.019760
   126  H   -0.002639
   127  H    0.034874
   128  H    0.040649
   129  H    0.043292
   130  H    0.048378
   131  H    0.043085
   132  H    0.039714
   133  H    0.043290
   134  H    0.068866
   135  H    0.059018
   136  H    0.057007
   137  H    0.057867
   138  H    0.063827
   139  H    0.068459
   140  H    0.055846
   141  H    0.048662
   142  H    0.055224
   143  H    0.030136
   144  H    0.036203
   145  H    0.039798
   146  H    0.031058
   147  H    0.041424
   148  H    0.028826
   149  H    0.036982
   150  H    0.037543
   151  H    0.038370
   152  H    0.062979
   153  H    0.045506
   154  H    0.046901
   155  H    0.066589
   156  H    0.069687
   157  H    0.052472
   158  H    0.054752
 Sum of Mulliken charges =  -0.00000

 Dipole moment (field-independent basis, Debye):
    X=              2.8802    Y=             -3.5029    Z=             -3.9391  Tot=              6.0068
 Quadrupole moment (field-independent basis, Debye-Ang):
   XX=           -337.6215   YY=           -571.3802   ZZ=           -463.3184
   XY=            111.4492   XZ=            -15.2053   YZ=            -19.2381

 Normal termination of Gaussian 16 at Sun Sep 19 10:56:07 2021.
