 Gaussian 16, Revision A.03,
 Gaussian 16:  ES64L-G16RevA.03 25-Dec-2016

 --------------------------------
 #p wB97XD/Def2SVP td=(nstates=5)
 --------------------------------

 --------------------------------
 TDDFT excited states in gaussian
 --------------------------------
 Symbolic Z-matrix:
 Charge =  0 Multiplicity = 1

                         Standard orientation:
 ---------------------------------------------------------------------
 Center     Atomic      Atomic             Coordinates (Angstroms)
 Number     Number       Type             X           Y           Z
 ---------------------------------------------------------------------
      1         12           0      -24.701722   -0.340449    0.747195
      2          6           0      -23.336111    1.829414   -1.755129
      3          6           0      -24.694911   -2.841380   -1.740549
      4          6           0      -26.581249   -2.231326    2.643541
      5          6           0      -24.939213    2.316148    2.856356
      6          7           0      -24.030756   -0.464656   -1.463642
      7          6           0      -23.426849    0.534007   -2.151586
      8          6           0      -22.934008   -0.019832   -3.478314
      9          6           0      -23.308716   -1.527531   -3.538307
     10          6           0      -24.020306   -1.649099   -2.177041
     11          6           0      -24.213513   -1.926598   -4.836047
     12          6           0      -21.366433    0.150894   -3.671670
     13          6           0      -20.900485    0.722086   -5.011289
     14          1           0      -21.690913    0.416998   -6.346575
     15          7           0      -25.576424   -2.269917    0.461230
     16          6           0      -25.425052   -3.081527   -0.563826
     17          6           0      -26.180085   -4.270349   -0.284404
     18          6           0      -26.650069   -4.241146    1.053087
     19          6           0      -26.315919   -2.890044    1.420509
     20          6           0      -26.161989   -5.493877   -1.199178
     21          6           0      -27.253435   -5.275045    1.990844
     22          8           0      -27.655558   -5.002526    3.107110
     23          6           0      -27.274545   -6.691963    1.487019
     24          7           0      -25.913241    0.128112    2.331353
     25          6           0      -26.450947   -0.915095    3.087454
     26          6           0      -26.845611   -0.483946    4.526153
     27          6           0      -26.141021    0.924318    4.567403
     28          6           0      -25.614721    1.155470    3.150963
     29          6           0      -28.371712   -0.477365    4.696245
     30          6           0      -24.883879    0.982716    5.558090
     31          6           0      -25.033103    1.705070    6.854987
     32          7           0      -24.152196    1.599663    0.661647
     33          6           0      -24.348223    2.582219    1.607954
     34          6           0      -23.956442    3.908216    1.137322
     35          6           0      -23.532344    3.665113   -0.217750
     36          6           0      -23.786970    2.299286   -0.485261
     37          6           0      -23.844292    5.105544    2.010115
     38          6           0      -22.907548    4.252422   -1.393010
     39          8           0      -22.517726    5.426523   -1.528481
     40          6           0      -22.772386    3.057398   -2.498021
     41          6           0      -23.582860    3.497573   -3.622532
     42          8           0      -24.756318    3.786026   -3.534564
     43          8           0      -22.872719    3.529876   -4.756386
     44          6           0      -23.455344    4.003757   -6.050889
     45          1           0      -24.649066   -3.672727   -2.446977
     46          1           0      -26.826028   -2.887045    3.482515
     47          1           0      -24.957805    3.118238    3.596775
     48          1           0      -23.480285    0.502394   -4.263799
     49          1           0      -22.431779   -2.160825   -3.673619
     50          1           0      -24.081064   -1.201620   -5.639202
     51          1           0      -25.237316   -1.953869   -4.462073
     52          1           0      -23.941385   -2.924330   -5.180010
     53          1           0      -20.776056   -0.742459   -3.472664
     54          1           0      -20.992478    0.866665   -2.939697
     55          1           0      -19.862500    0.461815   -5.219601
     56          1           0      -20.879461    1.794520   -4.817494
     57          1           0      -25.451947   -6.264921   -0.899665
     58          1           0      -26.063584   -5.210749   -2.247590
     59          1           0      -27.164637   -5.918145   -1.151395
     60          1           0      -26.376936   -7.009882    0.955762
     61          1           0      -28.101661   -6.927341    0.818718
     62          1           0      -27.209936   -7.368941    2.338897
     63          1           0      -26.405945   -1.207568    5.212026
     64          1           0      -26.882934    1.658780    4.881095
     65          1           0      -28.919963   -0.939289    3.875296
     66          1           0      -28.764831    0.536730    4.758983
     67          1           0      -28.630688   -0.988318    5.624163
     68          1           0      -23.988521    1.437972    5.134835
     69          1           0      -24.494822   -0.005751    5.799566
     70          1           0      -24.923447    1.010953    7.687241
     71          1           0      -26.047555    2.100157    6.798081
     72          1           0      -24.272462    2.479905    6.950203
     73          1           0      -23.019102    5.746241    1.701057
     74          1           0      -23.806209    4.733079    3.033629
     75          1           0      -24.773358    5.664574    1.890560
     76          1           0      -21.742957    2.928100   -2.829455
     77          1           0      -23.941872    4.967064   -5.896695
     78          1           0      -24.199504    3.315764   -6.452877
     79          1           0      -22.740777    4.019560   -6.873375
     80         12           0       25.085882    0.472952   -0.112971
     81          6           0       23.168416   -2.466732   -0.436494
     82          6           0       22.215638    2.191471   -0.343271
     83          6           0       26.893263    3.072038    0.698659
     84          6           0       27.800131   -1.665821    0.797508
     85          7           0       22.935740   -0.105372   -0.317137
     86          6           0       22.365806   -1.318374   -0.510896
     87          6           0       20.869380   -1.257871   -0.741209
     88          6           0       20.689270    0.296245   -0.971890
     89          6           0       22.008567    0.881802   -0.512753
     90          6           0       20.344577    0.714524   -2.460705
     91          6           0       19.832802   -1.821746    0.325768
     92          6           0       20.259913   -2.137562    1.783832
     93          1           0       19.201936   -1.911695    2.927701
     94          7           0       24.580931    2.421512    0.003523
     95          6           0       23.357829    2.934198   -0.010293
     96          6           0       23.440723    4.387584    0.299486
     97          6           0       24.896081    4.673033    0.446474
     98          6           0       25.513969    3.347598    0.397851
     99          6           0       22.270631    5.331706    0.233064
    100          6           0       25.504885    6.022203    0.726008
    101          8           0       24.767771    7.004179    0.767176
    102          6           0       27.022936    6.291294    1.039451
    103          7           0       27.111441    0.692109    0.778205
    104          6           0       27.565858    1.896908    0.811186
    105          6           0       29.110992    1.813063    1.191532
    106          6           0       29.261046    0.311598    1.445027
    107          6           0       27.947051   -0.294208    0.990776
    108          6           0       30.154634    2.382184    0.215990
    109          6           0       29.385923   -0.072341    3.009542
    110          6           0       30.736742   -0.651599    3.468237
    111          7           0       25.462517   -1.593426    0.207207
    112          6           0       26.603683   -2.313465    0.443449
    113          6           0       26.371563   -3.759777    0.193734
    114          6           0       24.974385   -3.902160   -0.039332
    115          6           0       24.524443   -2.513813   -0.122839
    116          6           0       27.381470   -4.913500    0.383809
    117          6           0       23.877103   -4.782015   -0.267480
    118          8           0       23.724937   -6.014019   -0.204782
    119          6           0       22.659091   -3.888446   -0.614188
    120          6           0       22.195109   -4.296801   -2.015360
    121          8           0       21.247869   -4.922793   -2.410957
    122          8           0       22.995384   -3.618606   -2.941173
    123          6           0       22.656637   -3.766568   -4.390727
    124          1           0       21.264983    2.724573   -0.413201
    125          1           0       27.464031    3.976142    0.924099
    126          1           0       28.698622   -2.285383    0.821779
    127          1           0       20.721008   -1.750903   -1.701771
    128          1           0       19.858225    0.654969   -0.364441
    129          1           0       20.340173   -0.154253   -3.118111
    130          1           0       21.238884    1.270633   -2.739736
    131          1           0       19.415413    1.284491   -2.475889
    132          1           0       19.399639   -2.723635   -0.106939
    133          1           0       18.988236   -1.134930    0.390906
    134          1           0       21.118859   -1.496288    1.981647
    135          1           0       20.444832   -3.195209    1.969149
    136          1           0       22.564227    6.381185    0.225459
    137          1           0       21.588810    5.028985    1.028668
    138          1           0       21.748890    5.028356   -0.675205
    139          1           0       27.808556    5.926055    0.376937
    140          1           0       27.264041    5.795282    1.979639
    141          1           0       27.241414    7.355568    1.122281
    142          1           0       29.332074    2.392635    2.087177
    143          1           0       30.100922   -0.217539    0.993432
    144          1           0       29.688408    2.825123   -0.664234
    145          1           0       30.895096    1.632490   -0.064901
    146          1           0       30.732171    3.208084    0.631262
    147          1           0       28.654768   -0.825742    3.299416
    148          1           0       29.166176    0.847691    3.551596
    149          1           0       30.684551   -1.384533    4.273719
    150          1           0       31.287825    0.198475    3.870363
    151          1           0       31.136662   -1.099964    2.558686
    152          1           0       28.285271   -4.650340    0.932372
    153          1           0       27.656180   -5.191254   -0.633484
    154          1           0       26.848158   -5.764079    0.807583
    155          1           0       21.860227   -4.074006    0.103024
    156          1           0       22.201123   -4.697625   -4.727269
    157          1           0       23.632048   -3.734177   -4.875773
    158          1           0       22.090676   -2.971506   -4.876609
 ---------------------------------------------------------------------

 SCF Done:  E(RwB97XD) =  -4070.58716490     A.U. after   19 cycles

 Excitation energies and oscillator strengths:

 Excited State   1:      Singlet-A      1.6236 eV  763.65 nm  f=0.4000  <S**2>=0.000
     310 -> 316        0.17887
     312 -> 314        0.68453
     310 <- 316        0.11640
 This state for optimization and/or second-order correction.
 Total Energy, E(TD-HF/TD-DFT) =  -4070.52750004
 Copying the excited state density for this state as the 1-particle RhoCI density.

 Excited State   2:      Singlet-A      1.7162 eV  722.41 nm  f=0.4088  <S**2>=0.000
     309 -> 315        0.19064
     311 -> 313        0.68129
     309 <- 315        0.11532

 Excited State   3:      Singlet-A      2.1425 eV  578.70 nm  f=0.1285  <S**2>=0.000
     310 -> 314        0.64800
     312 -> 316       -0.26642

 Excited State   4:      Singlet-A      2.2310 eV  555.74 nm  f=0.0956  <S**2>=0.000
     309 -> 313        0.63455
     311 -> 315       -0.29972

 Excited State   5:      Singlet-A      3.3487 eV  370.24 nm  f=0.0016  <S**2>=0.000
     306 -> 314       -0.11127
     307 -> 314        0.67182

 The electronic state is 1-A.
 Alpha  occ. eigenvalues --  -46.96432 -46.94966 -19.30458 -19.29893 -19.25415
 Alpha  occ. eigenvalues --  -19.24626 -19.24546 -19.24104 -19.23596 -19.23444
 Alpha  occ. eigenvalues --  -14.46934 -14.46484 -14.46396 -14.46302 -14.45084
 Alpha  occ. eigenvalues --  -14.44735 -14.43992 -14.43652 -10.43803 -10.42305
 Alpha  occ. eigenvalues --  -10.39797 -10.39745 -10.39571 -10.39529 -10.36275
 Alpha  occ. eigenvalues --  -10.35669 -10.35595 -10.35368 -10.35163 -10.35143
 Alpha  occ. eigenvalues --  -10.34786 -10.34780 -10.34711 -10.34499 -10.34444
 Alpha  occ. eigenvalues --  -10.34266 -10.34195 -10.34089 -10.33841 -10.33669
 Alpha  occ. eigenvalues --  -10.33604 -10.33396 -10.33202 -10.33086 -10.33016
 Alpha  occ. eigenvalues --  -10.32897 -10.32881 -10.32737 -10.32624 -10.32328
 Alpha  occ. eigenvalues --  -10.32257 -10.32158 -10.32085 -10.31988 -10.31981
 Alpha  occ. eigenvalues --  -10.31960 -10.31849 -10.31833 -10.31702 -10.31672
 Alpha  occ. eigenvalues --  -10.31547 -10.31444 -10.31335 -10.31146 -10.31142
 Alpha  occ. eigenvalues --  -10.31141 -10.30991 -10.30962 -10.30651 -10.30602
 Alpha  occ. eigenvalues --  -10.30470 -10.30436 -10.30360 -10.30341 -10.30302
 Alpha  occ. eigenvalues --  -10.30251 -10.30034 -10.29944 -10.29921 -10.29736
 Alpha  occ. eigenvalues --  -10.29641 -10.29624 -10.29616 -10.29303 -10.29273
 Alpha  occ. eigenvalues --  -10.28806  -3.22361  -3.21031  -1.95937  -1.95481
 Alpha  occ. eigenvalues --   -1.95330  -1.94585  -1.94163  -1.94008  -1.18720
 Alpha  occ. eigenvalues --   -1.18277  -1.13053  -1.11758  -1.11655  -1.10691
 Alpha  occ. eigenvalues --   -1.09552  -1.09550  -1.08758  -1.06863  -1.06678
 Alpha  occ. eigenvalues --   -1.06079  -1.05516  -1.05348  -1.05139  -1.03923
 Alpha  occ. eigenvalues --   -0.95637  -0.94135  -0.91748  -0.90747  -0.90503
 Alpha  occ. eigenvalues --   -0.90500  -0.90225  -0.90150  -0.89963  -0.89052
 Alpha  occ. eigenvalues --   -0.88948  -0.88922  -0.88358  -0.87340  -0.86854
 Alpha  occ. eigenvalues --   -0.86146  -0.86007  -0.85853  -0.84804  -0.84556
 Alpha  occ. eigenvalues --   -0.83743  -0.83730  -0.83222  -0.82797  -0.82655
 Alpha  occ. eigenvalues --   -0.82493  -0.80494  -0.80221  -0.79662  -0.79599
 Alpha  occ. eigenvalues --   -0.78967  -0.78796  -0.78640  -0.78177  -0.77329
 Alpha  occ. eigenvalues --   -0.76783  -0.75356  -0.74477  -0.74401  -0.73394
 Alpha  occ. eigenvalues --   -0.71623  -0.71221  -0.70742  -0.70617  -0.69748
 Alpha  occ. eigenvalues --   -0.69605  -0.69525  -0.68920  -0.68801  -0.67666
 Alpha  occ. eigenvalues --   -0.67528  -0.67470  -0.67093  -0.66900  -0.66624
 Alpha  occ. eigenvalues --   -0.66486  -0.65208  -0.64406  -0.62613  -0.62489
 Alpha  occ. eigenvalues --   -0.62231  -0.61470  -0.61171  -0.60818  -0.60555
 Alpha  occ. eigenvalues --   -0.60462  -0.60111  -0.60028  -0.59458  -0.59280
 Alpha  occ. eigenvalues --   -0.58370  -0.58084  -0.57886  -0.57674  -0.57662
 Alpha  occ. eigenvalues --   -0.57142  -0.57054  -0.56533  -0.56283  -0.55935
 Alpha  occ. eigenvalues --   -0.55612  -0.55441  -0.55251  -0.54935  -0.54920
 Alpha  occ. eigenvalues --   -0.54847  -0.54739  -0.54540  -0.54248  -0.53998
 Alpha  occ. eigenvalues --   -0.53987  -0.53688  -0.53553  -0.53240  -0.53205
 Alpha  occ. eigenvalues --   -0.53106  -0.53045  -0.52547  -0.52535  -0.52462
 Alpha  occ. eigenvalues --   -0.51994  -0.51978  -0.51923  -0.51770  -0.51481
 Alpha  occ. eigenvalues --   -0.51166  -0.51013  -0.51001  -0.50822  -0.50699
 Alpha  occ. eigenvalues --   -0.50494  -0.50483  -0.50472  -0.50321  -0.50259
 Alpha  occ. eigenvalues --   -0.50026  -0.49818  -0.49668  -0.49550  -0.49394
 Alpha  occ. eigenvalues --   -0.49352  -0.49227  -0.48896  -0.48653  -0.48599
 Alpha  occ. eigenvalues --   -0.48526  -0.48253  -0.48157  -0.48069  -0.48044
 Alpha  occ. eigenvalues --   -0.47820  -0.47819  -0.47512  -0.47316  -0.47221
 Alpha  occ. eigenvalues --   -0.47032  -0.46806  -0.46454  -0.46185  -0.46142
 Alpha  occ. eigenvalues --   -0.45931  -0.45748  -0.45540  -0.45535  -0.45277
 Alpha  occ. eigenvalues --   -0.45260  -0.45107  -0.44968  -0.44685  -0.44600
 Alpha  occ. eigenvalues --   -0.44596  -0.44438  -0.44278  -0.44063  -0.44021
 Alpha  occ. eigenvalues --   -0.43764  -0.43476  -0.43384  -0.43334  -0.43191
 Alpha  occ. eigenvalues --   -0.43131  -0.42905  -0.42873  -0.42616  -0.42428
 Alpha  occ. eigenvalues --   -0.42180  -0.41900  -0.41607  -0.41256  -0.41166
 Alpha  occ. eigenvalues --   -0.40784  -0.40278  -0.40153  -0.39848  -0.39744
 Alpha  occ. eigenvalues --   -0.39050  -0.38913  -0.38741  -0.38529  -0.38298
 Alpha  occ. eigenvalues --   -0.38222  -0.38115  -0.37086  -0.36444  -0.36280
 Alpha  occ. eigenvalues --   -0.35884  -0.35697  -0.35229  -0.34114  -0.33689
 Alpha  occ. eigenvalues --   -0.33510  -0.33396  -0.33292  -0.32888  -0.32779
 Alpha  occ. eigenvalues --   -0.32262  -0.31577  -0.31442  -0.26442  -0.25746
 Alpha  occ. eigenvalues --   -0.23365  -0.22760
 Alpha virt. eigenvalues --   -0.07284  -0.07075  -0.00149   0.00806   0.01393
 Alpha virt. eigenvalues --    0.02218   0.03831   0.04160   0.04500   0.04941
 Alpha virt. eigenvalues --    0.06790   0.07168   0.07373   0.07871   0.07949

 Mulliken charges:
               1
     1  Mg   0.966530
     2  C   -0.049288
     3  C   -0.089675
     4  C   -0.059774
     5  C   -0.106202
     6  N   -0.317568
     7  C    0.011437
     8  C   -0.040459
     9  C   -0.105315
    10  C    0.050321
    11  C   -0.005202
    12  C   -0.008598
    13  C   -0.109764
    14  H    0.017127
    15  N   -0.388052
    16  C    0.163901
    17  C   -0.188179
    18  C   -0.059162
    19  C    0.115213
    20  C    0.051752
    21  C    0.080712
    22  O   -0.219417
    23  C   -0.036800
    24  N   -0.403529
    25  C    0.019071
    26  C   -0.074847
    27  C   -0.053977
    28  C    0.103421
    29  C    0.032759
    30  C   -0.056539
    31  C   -0.031322
    32  N   -0.481538
    33  C    0.161666
    34  C   -0.187099
    35  C   -0.019287
    36  C    0.159949
    37  C    0.089868
    38  C    0.119898
    39  O   -0.226487
    40  C   -0.061688
    41  C    0.257969
    42  O   -0.245677
    43  O   -0.357587
    44  C    0.146446
    45  H   -0.009396
    46  H    0.024520
    47  H    0.001010
    48  H    0.044146
    49  H    0.046812
    50  H    0.047917
    51  H    0.045181
    52  H    0.037818
    53  H    0.030196
    54  H    0.028298
    55  H    0.044372
    56  H    0.052393
    57  H    0.066457
    58  H    0.038129
    59  H    0.031179
    60  H    0.036040
    61  H    0.074635
    62  H    0.049268
    63  H    0.043690
    64  H    0.035656
    65  H    0.053034
    66  H    0.026332
    67  H    0.041768
    68  H    0.029363
    69  H    0.020494
    70  H    0.036579
    71  H    0.025282
    72  H    0.038916
    73  H    0.066623
    74  H    0.037273
    75  H    0.055607
    76  H    0.057902
    77  H    0.070415
    78  H    0.046834
    79  H    0.060250
    80  Mg   0.957775
    81  C   -0.036556
    82  C   -0.091685
    83  C   -0.036386
    84  C   -0.103710
    85  N   -0.341195
    86  C   -0.037827
    87  C    0.005315
    88  C   -0.158242
    89  C    0.057922
    90  C    0.033631
    91  C    0.002323
    92  C   -0.149959
    93  H    0.026839
    94  N   -0.476205
    95  C    0.164580
    96  C   -0.173336
    97  C   -0.081367
    98  C    0.167452
    99  C    0.085903
   100  C    0.055544
   101  O   -0.240343
   102  C   -0.027099
   103  N   -0.273800
   104  C    0.045690
   105  C   -0.055743
   106  C   -0.126041
   107  C    0.077418
   108  C    0.014287
   109  C   -0.041884
   110  C   -0.039891
   111  N   -0.401962
   112  C    0.126920
   113  C   -0.186122
   114  C   -0.008868
   115  C    0.160968
   116  C    0.075228
   117  C    0.093715
   118  O   -0.218124
   119  C   -0.083242
   120  C    0.279615
   121  O   -0.209549
   122  O   -0.398018
   123  C    0.134849
   124  H   -0.010887
   125  H   -0.053765
   126  H    0.002652
   127  H    0.040913
   128  H    0.037035
   129  H    0.035411
   130  H    0.038124
   131  H    0.054849
   132  H    0.045319
   133  H    0.044644
   134  H    0.072964
   135  H    0.074352
   136  H    0.077718
   137  H    0.041049
   138  H    0.036942
   139  H    0.056538
   140  H    0.057165
   141  H    0.052431
   142  H    0.035518
   143  H    0.023178
   144  H    0.033247
   145  H    0.036014
   146  H    0.027130
   147  H    0.043324
   148  H    0.025252
   149  H    0.043762
   150  H    0.037825
   151  H    0.028137
   152  H    0.042834
   153  H    0.054949
   154  H    0.069746
   155  H    0.068817
   156  H    0.065915
   157  H    0.044863
   158  H    0.047218
 Sum of Mulliken charges =  -0.00000

 Dipole moment (field-independent basis, Debye):
    X=              6.0218    Y=             -2.9898    Z=             -1.9753  Tot=              7.0074
 Quadrupole moment (field-independent basis, Debye-Ang):
   XX=           -407.6487   YY=           -584.7888   ZZ=           -467.8613
   XY=            124.8983   XZ=            -14.8654   YZ=             17.3631

 Normal termination of Gaussian 16 at Sun Sep 19 06:57:19 2021.
