 Gaussian 16, Revision A.03,
 Gaussian 16:  ES64L-G16RevA.03 25-Dec-2016

 --------------------------------
 #p wB97XD/Def2SVP td=(nstates=5)
 --------------------------------

 --------------------------------
 TDDFT excited states in gaussian
 --------------------------------
 Symbolic Z-matrix:
 Charge =  0 Multiplicity = 1

                         Standard orientation:
 ---------------------------------------------------------------------
 Center     Atomic      Atomic             Coordinates (Angstroms)
 Number     Number       Type             X           Y           Z
 ---------------------------------------------------------------------
      1         12           0       29.222407    0.662074   -0.444259
      2          6           0       28.742115   -2.691214    0.173048
      3          6           0       26.175913    1.286760    0.967454
      4          6           0       30.263357    3.752403    0.083946
      5          6           0       32.345193   -0.157680   -1.824003
      6          7           0       27.887819   -0.581375    0.873986
      7          6           0       27.766420   -1.929774    0.768654
      8          6           0       26.514563   -2.451647    1.409684
      9          6           0       25.589243   -1.202883    1.244094
     10          6           0       26.591213   -0.100257    0.935280
     11          6           0       24.474439   -1.407148    0.178497
     12          6           0       26.733468   -2.821935    2.961750
     13          6           0       25.900666   -4.080036    3.491010
     14          1           0       25.000433   -3.605593    4.604798
     15          7           0       28.252241    2.333787    0.232055
     16          6           0       27.055666    2.428607    0.852356
     17          6           0       26.792549    3.803959    1.256542
     18          6           0       27.963068    4.537563    0.973808
     19          6           0       28.895917    3.524319    0.405472
     20          6           0       25.455790    4.199795    1.929342
     21          6           0       28.167775    5.955365    1.429681
     22          8           0       27.273544    6.532571    1.991311
     23          6           0       29.483195    6.742947    1.278088
     24          7           0       31.021115    1.746009   -0.928514
     25          6           0       31.186377    2.949091   -0.598218
     26          6           0       32.561505    3.447645   -0.848762
     27          6           0       33.267252    2.189064   -1.490514
     28          6           0       32.186075    1.200075   -1.421936
     29          6           0       32.555527    4.766288   -1.693725
     30          6           0       34.562862    1.741928   -0.667631
     31          6           0       35.604554    0.823381   -1.400073
     32          7           0       30.325580   -1.032425   -0.857857
     33          6           0       31.529352   -1.206800   -1.516215
     34          6           0       31.784505   -2.602428   -1.742222
     35          6           0       30.658297   -3.248594   -1.122175
     36          6           0       29.885945   -2.270351   -0.526257
     37          6           0       32.944923   -3.219469   -2.454291
     38          6           0       30.059250   -4.517158   -0.888617
     39          8           0       30.356191   -5.688566   -1.156351
     40          6           0       28.900786   -4.227946    0.122491
     41          6           0       27.717956   -5.005023   -0.351055
     42          8           0       27.411099   -6.138207    0.045105
     43          8           0       27.062571   -4.302605   -1.324394
     44          6           0       25.914922   -5.114644   -1.817711
     45          1           0       25.170861    1.588818    1.270507
     46          1           0       30.597864    4.763039    0.324903
     47          1           0       33.365222   -0.405872   -2.127177
     48          1           0       26.200031   -3.259018    0.749588
     49          1           0       25.052447   -1.032983    2.177559
     50          1           0       23.500457   -1.370819    0.665638
     51          1           0       24.581185   -2.422458   -0.204810
     52          1           0       24.632752   -0.667786   -0.605979
     53          1           0       26.620469   -2.004163    3.673334
     54          1           0       27.777201   -3.074811    3.145441
     55          1           0       26.656616   -4.730054    3.931851
     56          1           0       25.367969   -4.714064    2.782156
     57          1           0       25.553416    4.638124    2.922469
     58          1           0       24.726624    3.390411    1.979822
     59          1           0       24.970275    4.912942    1.263995
     60          1           0       29.761021    6.921161    0.239779
     61          1           0       30.325194    6.296243    1.807451
     62          1           0       29.326927    7.647973    1.865912
     63          1           0       32.950142    3.617961    0.155169
     64          1           0       33.520268    2.220009   -2.550019
     65          1           0       33.057042    5.525935   -1.094526
     66          1           0       31.544179    5.077241   -1.956228
     67          1           0       33.229649    4.750407   -2.549977
     68          1           0       34.265413    1.215192    0.239353
     69          1           0       35.043194    2.671851   -0.366825
     70          1           0       36.635996    1.144430   -1.542917
     71          1           0       35.288807    0.629969   -2.424342
     72          1           0       35.674218   -0.141189   -0.897202
     73          1           0       33.608947   -2.539767   -2.987951
     74          1           0       32.402489   -3.892493   -3.117075
     75          1           0       33.377025   -3.797167   -1.637089
     76          1           0       29.133755   -4.483119    1.156829
     77          1           0       26.292524   -5.969076   -2.378469
     78          1           0       25.340920   -4.606146   -2.592373
     79          1           0       25.299189   -5.371243   -0.955409
     80         12           0      -29.795023   -0.067457   -0.428289
     81          6           0      -26.649877    0.215097    1.047437
     82          6           0      -30.014689   -3.297908    0.755144
     83          6           0      -32.774251   -0.078788   -1.803925
     84          6           0      -29.884111    3.568426   -0.662712
     85          7           0      -28.360765   -1.418191    0.761268
     86          6           0      -27.143478   -1.087485    1.287074
     87          6           0      -26.522742   -2.255666    1.967352
     88          6           0      -27.636450   -3.375781    1.906191
     89          6           0      -28.789993   -2.688640    1.076134
     90          6           0      -27.137901   -4.759544    1.418855
     91          6           0      -26.093146   -1.951613    3.423179
     92          6           0      -24.636222   -2.350010    3.652325
     93          1           0      -24.328116   -3.287092    4.858954
     94          7           0      -31.194795   -1.515556   -0.538231
     95          6           0      -31.111195   -2.812658   -0.034186
     96          6           0      -32.330497   -3.478697   -0.473653
     97          6           0      -33.157125   -2.556644   -1.269032
     98          6           0      -32.348565   -1.297196   -1.305037
     99          6           0      -32.712062   -4.795056   -0.011650
    100          6           0      -34.522065   -2.897517   -1.703761
    101          8           0      -35.051863   -3.971770   -1.510822
    102          6           0      -35.454450   -1.930662   -2.346191
    103          7           0      -31.086138    1.481533   -1.058855
    104          6           0      -32.154976    1.166636   -1.859157
    105          6           0      -32.858765    2.429394   -2.309428
    106          6           0      -32.205527    3.508391   -1.529513
    107          6           0      -31.035199    2.848102   -0.991063
    108          6           0      -32.926494    2.638488   -3.877711
    109          6           0      -33.055930    3.984809   -0.302221
    110          6           0      -32.889508    5.374044    0.110244
    111          7           0      -28.535464    1.606456    0.047198
    112          6           0      -28.662370    2.986513   -0.158320
    113          6           0      -27.393822    3.608288    0.058605
    114          6           0      -26.585952    2.598043    0.567014
    115          6           0      -27.346600    1.374794    0.582184
    116          6           0      -27.125595    5.048761   -0.177799
    117          6           0      -25.315982    2.319083    1.109189
    118          8           0      -24.369946    3.051343    1.295845
    119          6           0      -25.279236    0.799119    1.383717
    120          6           0      -24.150207    0.205775    0.649758
    121          8           0      -24.177523   -0.182107   -0.530412
    122          8           0      -23.009471    0.289324    1.414750
    123          6           0      -21.771582   -0.318803    0.954771
    124          1           0      -29.988451   -4.330847    1.106857
    125          1           0      -33.765059    0.075143   -2.238628
    126          1           0      -29.945330    4.652781   -0.776410
    127          1           0      -25.794466   -2.627232    1.245933
    128          1           0      -28.058055   -3.624213    2.879683
    129          1           0      -26.060038   -4.681690    1.566222
    130          1           0      -27.444982   -5.065471    0.418694
    131          1           0      -27.511102   -5.540944    2.080399
    132          1           0      -26.618570   -2.541662    4.173868
    133          1           0      -26.262738   -0.885473    3.572699
    134          1           0      -24.234089   -1.378401    3.938940
    135          1           0      -24.239905   -2.687857    2.695916
    136          1           0      -31.911220   -5.173477    0.623966
    137          1           0      -32.808482   -5.562324   -0.780417
    138          1           0      -33.614263   -4.716281    0.595940
    139          1           0      -34.779400   -1.512173   -3.092721
    140          1           0      -35.741673   -1.181271   -1.608144
    141          1           0      -36.299089   -2.442266   -2.808162
    142          1           0      -33.888113    2.258663   -1.996318
    143          1           0      -31.791815    4.355099   -2.077358
    144          1           0      -32.609616    1.734163   -4.397551
    145          1           0      -32.450878    3.550024   -4.241321
    146          1           0      -33.945826    2.685759   -4.259888
    147          1           0      -32.860952    3.326559    0.544503
    148          1           0      -34.120598    3.870860   -0.505571
    149          1           0      -33.573650    5.993535   -0.470670
    150          1           0      -31.856893    5.712443    0.018669
    151          1           0      -33.316070    5.514488    1.103956
    152          1           0      -27.640014    5.403982   -1.070609
    153          1           0      -26.065878    5.299596   -0.227195
    154          1           0      -27.637391    5.541412    0.648972
    155          1           0      -24.999021    0.560272    2.409733
    156          1           0      -21.227584    0.143673    0.131128
    157          1           0      -21.944974   -1.371409    0.731959
    158          1           0      -21.093415   -0.200996    1.799126
 ---------------------------------------------------------------------

 SCF Done:  E(RwB97XD) =  -4070.56973770     A.U. after   19 cycles

 Excitation energies and oscillator strengths:

 Excited State   1:      Singlet-A      1.6144 eV  768.01 nm  f=0.3655  <S**2>=0.000
     309 -> 315       -0.19430
     311 -> 313        0.68134
     309 <- 315       -0.12117
 This state for optimization and/or second-order correction.
 Total Energy, E(TD-HF/TD-DFT) =  -4070.51041113
 Copying the excited state density for this state as the 1-particle RhoCI density.

 Excited State   2:      Singlet-A      1.6577 eV  747.94 nm  f=0.3606  <S**2>=0.000
     310 -> 316        0.16764
     312 -> 314        0.68563
     310 <- 316        0.10880

 Excited State   3:      Singlet-A      2.1298 eV  582.14 nm  f=0.0993  <S**2>=0.000
     309 -> 313        0.63360
     311 -> 315        0.30002

 Excited State   4:      Singlet-A      2.1685 eV  571.76 nm  f=0.1043  <S**2>=0.000
     310 -> 314        0.63803
     312 -> 316       -0.28235

 Excited State   5:      Singlet-A      3.2693 eV  379.24 nm  f=0.0024  <S**2>=0.000
     304 -> 313       -0.24608
     306 -> 313        0.52178
     307 -> 313       -0.35543

 The electronic state is 1-A.
 Alpha  occ. eigenvalues --  -46.95570 -46.95289 -19.30735 -19.30104 -19.24600
 Alpha  occ. eigenvalues --  -19.24324 -19.23977 -19.23405 -19.22881 -19.22412
 Alpha  occ. eigenvalues --  -14.46930 -14.46677 -14.46557 -14.46495 -14.44964
 Alpha  occ. eigenvalues --  -14.44915 -14.43769 -14.43135 -10.42948 -10.42491
 Alpha  occ. eigenvalues --  -10.39790 -10.38207 -10.38016 -10.37656 -10.36448
 Alpha  occ. eigenvalues --  -10.35876 -10.35686 -10.35657 -10.35593 -10.35439
 Alpha  occ. eigenvalues --  -10.35414 -10.35157 -10.35154 -10.35090 -10.34688
 Alpha  occ. eigenvalues --  -10.34463 -10.34164 -10.33924 -10.33896 -10.33646
 Alpha  occ. eigenvalues --  -10.33102 -10.32971 -10.32728 -10.32715 -10.32709
 Alpha  occ. eigenvalues --  -10.32438 -10.32434 -10.32381 -10.32277 -10.32263
 Alpha  occ. eigenvalues --  -10.32248 -10.32210 -10.32172 -10.32109 -10.32075
 Alpha  occ. eigenvalues --  -10.31864 -10.31852 -10.31847 -10.31740 -10.31685
 Alpha  occ. eigenvalues --  -10.31507 -10.31416 -10.31385 -10.31348 -10.31328
 Alpha  occ. eigenvalues --  -10.31297 -10.31245 -10.31210 -10.31132 -10.30888
 Alpha  occ. eigenvalues --  -10.30677 -10.30666 -10.30654 -10.30594 -10.30589
 Alpha  occ. eigenvalues --  -10.30363 -10.30338 -10.30104 -10.30099 -10.30088
 Alpha  occ. eigenvalues --  -10.30010 -10.29367 -10.29066 -10.28791 -10.28758
 Alpha  occ. eigenvalues --  -10.28375  -3.21580  -3.21227  -1.95156  -1.94819
 Alpha  occ. eigenvalues --   -1.94720  -1.94542  -1.94360  -1.94183  -1.18079
 Alpha  occ. eigenvalues --   -1.17635  -1.14241  -1.12294  -1.12065  -1.10260
 Alpha  occ. eigenvalues --   -1.09053  -1.08905  -1.08597  -1.06993  -1.06685
 Alpha  occ. eigenvalues --   -1.05973  -1.05822  -1.05013  -1.04808  -1.03635
 Alpha  occ. eigenvalues --   -0.94641  -0.94419  -0.92656  -0.91604  -0.91463
 Alpha  occ. eigenvalues --   -0.90998  -0.90609  -0.90131  -0.89652  -0.89240
 Alpha  occ. eigenvalues --   -0.89194  -0.88934  -0.88521  -0.88277  -0.87172
 Alpha  occ. eigenvalues --   -0.86458  -0.86210  -0.85674  -0.85382  -0.84506
 Alpha  occ. eigenvalues --   -0.84175  -0.83743  -0.83384  -0.82826  -0.82796
 Alpha  occ. eigenvalues --   -0.82279  -0.80596  -0.80345  -0.79921  -0.79818
 Alpha  occ. eigenvalues --   -0.79072  -0.78714  -0.78249  -0.77868  -0.77443
 Alpha  occ. eigenvalues --   -0.77347  -0.75407  -0.74641  -0.74215  -0.74032
 Alpha  occ. eigenvalues --   -0.72382  -0.71326  -0.71324  -0.71035  -0.70134
 Alpha  occ. eigenvalues --   -0.69951  -0.69676  -0.69480  -0.68745  -0.68414
 Alpha  occ. eigenvalues --   -0.67899  -0.67302  -0.67296  -0.66859  -0.66701
 Alpha  occ. eigenvalues --   -0.66459  -0.64381  -0.64026  -0.62723  -0.62574
 Alpha  occ. eigenvalues --   -0.61565  -0.61481  -0.61460  -0.61183  -0.60981
 Alpha  occ. eigenvalues --   -0.60768  -0.59990  -0.59937  -0.59388  -0.58966
 Alpha  occ. eigenvalues --   -0.58581  -0.58406  -0.58105  -0.57828  -0.57644
 Alpha  occ. eigenvalues --   -0.57422  -0.57142  -0.56928  -0.56375  -0.56179
 Alpha  occ. eigenvalues --   -0.56068  -0.55545  -0.55150  -0.54927  -0.54752
 Alpha  occ. eigenvalues --   -0.54659  -0.54499  -0.54330  -0.54239  -0.54037
 Alpha  occ. eigenvalues --   -0.53937  -0.53687  -0.53609  -0.53594  -0.53222
 Alpha  occ. eigenvalues --   -0.53195  -0.53115  -0.53108  -0.52528  -0.52412
 Alpha  occ. eigenvalues --   -0.52365  -0.52167  -0.51970  -0.51844  -0.51657
 Alpha  occ. eigenvalues --   -0.51624  -0.51356  -0.51066  -0.51058  -0.50837
 Alpha  occ. eigenvalues --   -0.50782  -0.50600  -0.50489  -0.50418  -0.50237
 Alpha  occ. eigenvalues --   -0.49702  -0.49567  -0.49520  -0.49354  -0.49085
 Alpha  occ. eigenvalues --   -0.48949  -0.48883  -0.48737  -0.48727  -0.48575
 Alpha  occ. eigenvalues --   -0.48251  -0.48203  -0.48174  -0.48160  -0.47808
 Alpha  occ. eigenvalues --   -0.47678  -0.47677  -0.47326  -0.47247  -0.47080
 Alpha  occ. eigenvalues --   -0.46892  -0.46561  -0.46527  -0.46469  -0.46346
 Alpha  occ. eigenvalues --   -0.46245  -0.46130  -0.45981  -0.45935  -0.45597
 Alpha  occ. eigenvalues --   -0.45424  -0.45284  -0.45172  -0.45106  -0.44991
 Alpha  occ. eigenvalues --   -0.44874  -0.44866  -0.44517  -0.44473  -0.44077
 Alpha  occ. eigenvalues --   -0.43993  -0.43829  -0.43811  -0.43656  -0.43546
 Alpha  occ. eigenvalues --   -0.43375  -0.43340  -0.43106  -0.43092  -0.42660
 Alpha  occ. eigenvalues --   -0.42595  -0.42173  -0.41972  -0.41505  -0.41116
 Alpha  occ. eigenvalues --   -0.40574  -0.40457  -0.40222  -0.39657  -0.39611
 Alpha  occ. eigenvalues --   -0.39307  -0.39076  -0.38884  -0.38762  -0.38404
 Alpha  occ. eigenvalues --   -0.38379  -0.38307  -0.36969  -0.36354  -0.35801
 Alpha  occ. eigenvalues --   -0.35744  -0.35327  -0.35207  -0.33969  -0.33606
 Alpha  occ. eigenvalues --   -0.33583  -0.32788  -0.32670  -0.32049  -0.32005
 Alpha  occ. eigenvalues --   -0.31697  -0.31545  -0.31025  -0.26236  -0.26140
 Alpha  occ. eigenvalues --   -0.23383  -0.22980
 Alpha virt. eigenvalues --   -0.07526  -0.07110  -0.00604   0.00142   0.02300
 Alpha virt. eigenvalues --    0.02307   0.04155   0.04455   0.05144   0.05828
 Alpha virt. eigenvalues --    0.06484   0.06973   0.07445   0.07929   0.08131

 Mulliken charges:
               1
     1  Mg   0.966581
     2  C    0.016086
     3  C   -0.089433
     4  C   -0.073366
     5  C   -0.081695
     6  N   -0.340653
     7  C   -0.050296
     8  C   -0.024473
     9  C   -0.146528
    10  C    0.111007
    11  C    0.045263
    12  C    0.022917
    13  C   -0.129962
    14  H    0.028884
    15  N   -0.460600
    16  C    0.119292
    17  C   -0.139081
    18  C   -0.060674
    19  C    0.168455
    20  C    0.086448
    21  C    0.018697
    22  O   -0.211057
    23  C   -0.019704
    24  N   -0.295137
    25  C    0.031415
    26  C   -0.087947
    27  C   -0.051404
    28  C    0.005275
    29  C    0.018798
    30  C   -0.018509
    31  C   -0.065388
    32  N   -0.450929
    33  C    0.151364
    34  C   -0.200769
    35  C   -0.007568
    36  C    0.105944
    37  C    0.098561
    38  C    0.085802
    39  O   -0.226228
    40  C   -0.061139
    41  C    0.241275
    42  O   -0.258084
    43  O   -0.370092
    44  C    0.138512
    45  H    0.002866
    46  H   -0.045505
    47  H   -0.027187
    48  H    0.026024
    49  H    0.042459
    50  H    0.041623
    51  H    0.029818
    52  H    0.040813
    53  H    0.040688
    54  H    0.032336
    55  H    0.057548
    56  H    0.062923
    57  H    0.069865
    58  H    0.019263
    59  H    0.052902
    60  H    0.067234
    61  H    0.060706
    62  H    0.051541
    63  H    0.046685
    64  H    0.041955
    65  H    0.030582
    66  H    0.057219
    67  H    0.038724
    68  H    0.041069
    69  H    0.036558
    70  H    0.040109
    71  H    0.033037
    72  H    0.044207
    73  H    0.043259
    74  H    0.065008
    75  H    0.064729
    76  H    0.078448
    77  H    0.064888
    78  H    0.047291
    79  H    0.060457
    80  Mg   0.953276
    81  C    0.048291
    82  C   -0.057500
    83  C   -0.121914
    84  C   -0.096204
    85  N   -0.342796
    86  C   -0.024034
    87  C   -0.029535
    88  C   -0.145932
    89  C    0.045761
    90  C    0.012179
    91  C    0.023730
    92  C   -0.137348
    93  H    0.039239
    94  N   -0.537394
    95  C    0.202154
    96  C   -0.171420
    97  C   -0.064014
    98  C    0.269709
    99  C    0.097378
   100  C   -0.011528
   101  O   -0.239002
   102  C    0.006836
   103  N   -0.368835
   104  C    0.069708
   105  C   -0.083384
   106  C   -0.081705
   107  C    0.063002
   108  C    0.032031
   109  C    0.003076
   110  C   -0.018646
   111  N   -0.407095
   112  C    0.111828
   113  C   -0.185415
   114  C   -0.015211
   115  C    0.112841
   116  C    0.089628
   117  C    0.108533
   118  O   -0.187625
   119  C   -0.127734
   120  C    0.253669
   121  O   -0.269048
   122  O   -0.361199
   123  C    0.149016
   124  H    0.001520
   125  H   -0.005740
   126  H   -0.002788
   127  H    0.049519
   128  H    0.042586
   129  H    0.038434
   130  H    0.051704
   131  H    0.032391
   132  H    0.051892
   133  H    0.051994
   134  H    0.064243
   135  H    0.053271
   136  H    0.001049
   137  H    0.057482
   138  H    0.064888
   139  H    0.039525
   140  H    0.062483
   141  H    0.058211
   142  H    0.032797
   143  H    0.027083
   144  H    0.034032
   145  H    0.045460
   146  H    0.027827
   147  H    0.039417
   148  H    0.019994
   149  H    0.027122
   150  H    0.029236
   151  H    0.034562
   152  H    0.036182
   153  H    0.067940
   154  H    0.051122
   155  H    0.050936
   156  H    0.058129
   157  H    0.047291
   158  H    0.050839
 Sum of Mulliken charges =  -0.00000

 Dipole moment (field-independent basis, Debye):
    X=             -0.5468    Y=              6.9549    Z=             -1.2928  Tot=              7.0951
 Quadrupole moment (field-independent basis, Debye-Ang):
   XX=           -331.3981   YY=           -557.5974   ZZ=           -501.5934
   XY=            119.9506   XZ=            -52.3903   YZ=            -27.5492

 Normal termination of Gaussian 16 at Mon Sep 20 07:05:29 2021.
