 Gaussian 16, Revision A.03,
 Gaussian 16:  ES64L-G16RevA.03 25-Dec-2016

 --------------------------------
 #p wB97XD/Def2SVP td=(nstates=5)
 --------------------------------

 --------------------------------
 TDDFT excited states in gaussian
 --------------------------------
 Symbolic Z-matrix:
 Charge =  0 Multiplicity = 1

                         Standard orientation:
 ---------------------------------------------------------------------
 Center     Atomic      Atomic             Coordinates (Angstroms)
 Number     Number       Type             X           Y           Z
 ---------------------------------------------------------------------
      1         12           0      -23.795494    0.591606    0.197133
      2          6           0      -22.670843   -2.363684   -1.312459
      3          6           0      -21.624923    2.388233   -1.946869
      4          6           0      -24.600803    3.436014    1.867553
      5          6           0      -25.272418   -1.313700    2.668880
      6          7           0      -22.486263    0.049515   -1.506970
      7          6           0      -22.349367   -1.239089   -2.031141
      8          6           0      -21.742553   -1.144517   -3.477343
      9          6           0      -21.354989    0.335238   -3.579591
     10          6           0      -21.810620    0.979694   -2.224036
     11          6           0      -19.825334    0.480109   -3.801857
     12          6           0      -22.782265   -1.641285   -4.474448
     13          6           0      -22.289427   -2.252560   -5.775848
     14          1           0      -20.805894   -2.054882   -6.161133
     15          7           0      -23.235910    2.643120    0.019378
     16          6           0      -22.310734    3.167527   -0.903181
     17          6           0      -22.144516    4.596510   -0.703729
     18          6           0      -23.045128    4.991765    0.362245
     19          6           0      -23.656954    3.666850    0.807539
     20          6           0      -21.315177    5.506754   -1.618547
     21          6           0      -23.352693    6.356581    0.947839
     22          8           0      -24.174699    6.471821    1.847133
     23          6           0      -22.806812    7.556732    0.274481
     24          7           0      -24.869471    0.974324    1.998868
     25          6           0      -25.139933    2.241877    2.417877
     26          6           0      -26.131505    2.198538    3.609907
     27          6           0      -26.412854    0.663504    3.843287
     28          6           0      -25.563320    0.028637    2.712055
     29          6           0      -25.530771    2.915069    4.832535
     30          6           0      -27.897545    0.239816    3.687418
     31          6           0      -28.517656    0.068584    5.070696
     32          7           0      -23.903474   -1.427023    0.736691
     33          6           0      -24.460751   -2.080994    1.784425
     34          6           0      -24.012554   -3.493033    1.713484
     35          6           0      -23.418641   -3.676535    0.499174
     36          6           0      -23.338382   -2.365895   -0.036905
     37          6           0      -24.406695   -4.505105    2.776074
     38          6           0      -22.834440   -4.636645   -0.446787
     39          8           0      -22.670730   -5.844303   -0.321876
     40          6           0      -22.429432   -3.813977   -1.654661
     41          6           0      -21.032629   -4.184378   -1.931911
     42          8           0      -19.985109   -3.833143   -1.372382
     43          8           0      -21.047005   -5.117062   -2.948742
     44          6           0      -19.770085   -5.674665   -3.338208
     45          1           0      -21.006963    2.912920   -2.678192
     46          1           0      -24.889425    4.405558    2.278899
     47          1           0      -25.689545   -1.836245    3.532336
     48          1           0      -20.881000   -1.804717   -3.370451
     49          1           0      -21.787581    0.690814   -4.514703
     50          1           0      -19.277082    0.905777   -2.961252
     51          1           0      -19.701688    1.293672   -4.516087
     52          1           0      -19.351935   -0.471403   -4.043192
     53          1           0      -23.436893   -0.782410   -4.625515
     54          1           0      -23.436341   -2.353853   -3.973304
     55          1           0      -22.928670   -1.904763   -6.586206
     56          1           0      -22.517218   -3.306257   -5.611015
     57          1           0      -20.719372    4.968462   -2.355922
     58          1           0      -20.628474    6.106873   -1.020064
     59          1           0      -21.980599    6.240111   -2.072539
     60          1           0      -23.254070    7.631162   -0.717054
     61          1           0      -21.720521    7.592816    0.356420
     62          1           0      -23.137354    8.476812    0.756552
     63          1           0      -27.014848    2.767857    3.321539
     64          1           0      -25.959538    0.437272    4.809276
     65          1           0      -25.444444    2.329914    5.747633
     66          1           0      -26.305867    3.665293    4.987565
     67          1           0      -24.511918    3.275179    4.692635
     68          1           0      -27.960343   -0.787291    3.327523
     69          1           0      -28.494356    0.936909    3.098912
     70          1           0      -29.462802    0.606060    4.995295
     71          1           0      -28.002992    0.611901    5.862808
     72          1           0      -28.685706   -0.961901    5.384918
     73          1           0      -24.829669   -4.083057    3.688073
     74          1           0      -23.578503   -5.149041    3.069407
     75          1           0      -25.260583   -5.072160    2.403692
     76          1           0      -23.095424   -4.081433   -2.474397
     77          1           0      -19.273781   -6.023522   -2.432262
     78          1           0      -19.116653   -4.959520   -3.838383
     79          1           0      -20.017024   -6.639675   -3.779485
     80         12           0       23.950961    0.274849   -0.184088
     81          6           0       21.627350   -2.223654    0.469706
     82          6           0       21.292999    1.986782   -1.862205
     83          6           0       25.881195    2.921998   -0.452573
     84          6           0       26.135399   -1.262313    2.101319
     85          7           0       21.703786   -0.042840   -0.522594
     86          6           0       21.039404   -1.210517   -0.221092
     87          6           0       19.574878   -1.110710   -0.656377
     88          6           0       19.614394    0.107528   -1.619997
     89          6           0       20.930274    0.769064   -1.305141
     90          6           0       19.498245   -0.155086   -3.172838
     91          6           0       18.606005   -0.927293    0.523307
     92          6           0       17.165474   -0.994180    0.186342
     93          1           0       16.169233   -1.341940    1.357521
     94          7           0       23.644429    2.227841   -1.035523
     95          6           0       22.505778    2.717910   -1.693858
     96          6           0       22.787025    4.056665   -2.131736
     97          6           0       24.086080    4.403685   -1.606240
     98          6           0       24.613487    3.129535   -1.006437
     99          6           0       21.743809    4.941406   -2.868506
    100          6           0       24.705615    5.793747   -1.782014
    101          8           0       24.199889    6.638920   -2.501692
    102          6           0       25.959770    6.116772   -1.063517
    103          7           0       25.851897    0.641546    0.536908
    104          6           0       26.444515    1.803559    0.241944
    105          6           0       27.804941    1.926788    1.040573
    106          6           0       27.906785    0.624313    1.923969
    107          6           0       26.481764   -0.055739    1.538245
    108          6           0       29.086669    2.249836    0.228498
    109          6           0       27.977051    0.997565    3.420213
    110          6           0       28.744521    0.007668    4.304966
    111          7           0       23.965324   -1.406077    1.074412
    112          6           0       24.945999   -1.974479    1.838168
    113          6           0       24.473452   -3.285331    2.299513
    114          6           0       23.245523   -3.444340    1.715317
    115          6           0       22.933113   -2.284170    1.043712
    116          6           0       25.277198   -4.294609    3.125772
    117          6           0       22.123021   -4.328019    1.616659
    118          8           0       21.924992   -5.436346    2.049991
    119          6           0       21.028307   -3.575530    0.788767
    120          6           0       20.814945   -4.339440   -0.471140
    121          8           0       21.654682   -4.734345   -1.231628
    122          8           0       19.433366   -4.413198   -0.719588
    123          6           0       19.057038   -5.053742   -1.947604
    124          1           0       20.450663    2.383474   -2.431971
    125          1           0       26.636451    3.710921   -0.476266
    126          1           0       26.818609   -1.802193    2.760455
    127          1           0       19.381926   -2.001891   -1.252055
    128          1           0       18.885998    0.893577   -1.423923
    129          1           0       18.703261    0.518085   -3.492978
    130          1           0       19.563939   -1.185987   -3.521763
    131          1           0       20.395988    0.269818   -3.621614
    132          1           0       18.641906    0.044859    1.015718
    133          1           0       18.827172   -1.659464    1.299989
    134          1           0       17.066015   -1.733765   -0.608153
    135          1           0       16.865933   -0.048498   -0.265055
    136          1           0       21.497360    5.585791   -2.024025
    137          1           0       20.796087    4.460703   -3.111941
    138          1           0       21.976048    5.537446   -3.751252
    139          1           0       25.769861    5.814307   -0.033694
    140          1           0       26.090768    7.198965   -1.071264
    141          1           0       26.707987    5.514997   -1.579991
    142          1           0       27.679555    2.793196    1.690584
    143          1           0       28.715463   -0.055374    1.657222
    144          1           0       29.357882    3.287135    0.427416
    145          1           0       28.903499    2.008324   -0.817983
    146          1           0       29.926130    1.678128    0.624116
    147          1           0       26.936853    1.074277    3.735740
    148          1           0       28.356878    2.001482    3.610959
    149          1           0       29.515134    0.633700    4.756094
    150          1           0       29.130591   -0.866012    3.779712
    151          1           0       28.109885   -0.341466    5.119577
    152          1           0       24.749949   -4.775964    3.948762
    153          1           0       26.114940   -3.685267    3.465702
    154          1           0       25.754834   -4.957609    2.404216
    155          1           0       20.130417   -3.568339    1.406819
    156          1           0       18.605470   -6.006293   -1.670261
    157          1           0       19.813640   -5.234658   -2.711475
    158          1           0       18.322198   -4.412574   -2.433693
 ---------------------------------------------------------------------

 SCF Done:  E(RwB97XD) =  -4070.60854269     A.U. after   19 cycles

 Excitation energies and oscillator strengths:

 Excited State   1:      Singlet-A      1.6258 eV  762.61 nm  f=0.3898  <S**2>=0.000
     310 -> 316        0.17888
     312 -> 314        0.68466
     310 <- 316        0.11344
 This state for optimization and/or second-order correction.
 Total Energy, E(TD-HF/TD-DFT) =  -4070.54879613
 Copying the excited state density for this state as the 1-particle RhoCI density.

 Excited State   2:      Singlet-A      1.7222 eV  719.93 nm  f=0.3975  <S**2>=0.000
     309 -> 315       -0.17627
     311 -> 313        0.68545
     309 <- 315       -0.11116

 Excited State   3:      Singlet-A      2.1420 eV  578.82 nm  f=0.1181  <S**2>=0.000
     310 -> 314        0.64309
     312 -> 316       -0.27660

 Excited State   4:      Singlet-A      2.2425 eV  552.89 nm  f=0.1149  <S**2>=0.000
     309 -> 313        0.63516
     311 -> 315        0.29259

 Excited State   5:      Singlet-A      3.2987 eV  375.86 nm  f=0.0028  <S**2>=0.000
     303 -> 313       -0.12773
     306 -> 313       -0.40311
     308 -> 313        0.52782
     311 -> 315        0.11712

 The electronic state is 1-A.
 Alpha  occ. eigenvalues --  -46.96001 -46.95452 -19.30171 -19.29673 -19.25401
 Alpha  occ. eigenvalues --  -19.24728 -19.24312 -19.24283 -19.23759 -19.23525
 Alpha  occ. eigenvalues --  -14.47229 -14.46968 -14.46790 -14.46333 -14.44864
 Alpha  occ. eigenvalues --  -14.44758 -14.43749 -14.43655 -10.43332 -10.43203
 Alpha  occ. eigenvalues --  -10.39484 -10.39381 -10.38860 -10.38113 -10.36450
 Alpha  occ. eigenvalues --  -10.36080 -10.35716 -10.35335 -10.35312 -10.35273
 Alpha  occ. eigenvalues --  -10.35192 -10.35113 -10.35057 -10.34949 -10.34682
 Alpha  occ. eigenvalues --  -10.34660 -10.34545 -10.34042 -10.33792 -10.33781
 Alpha  occ. eigenvalues --  -10.33294 -10.33162 -10.33005 -10.32546 -10.32536
 Alpha  occ. eigenvalues --  -10.32418 -10.32324 -10.32290 -10.32273 -10.32272
 Alpha  occ. eigenvalues --  -10.32245 -10.32243 -10.32239 -10.32014 -10.31946
 Alpha  occ. eigenvalues --  -10.31903 -10.31827 -10.31810 -10.31766 -10.31760
 Alpha  occ. eigenvalues --  -10.31640 -10.31612 -10.31610 -10.31596 -10.31441
 Alpha  occ. eigenvalues --  -10.31433 -10.30891 -10.30715 -10.30708 -10.30524
 Alpha  occ. eigenvalues --  -10.30495 -10.30398 -10.30398 -10.30331 -10.30323
 Alpha  occ. eigenvalues --  -10.30205 -10.30145 -10.29983 -10.29870 -10.29430
 Alpha  occ. eigenvalues --  -10.29401 -10.29322 -10.29124 -10.28804 -10.28753
 Alpha  occ. eigenvalues --  -10.27927  -3.21880  -3.21303  -1.95472  -1.95004
 Alpha  occ. eigenvalues --   -1.94903  -1.94832  -1.94382  -1.94302  -1.18759
 Alpha  occ. eigenvalues --   -1.17946  -1.12719  -1.12526  -1.12379  -1.12208
 Alpha  occ. eigenvalues --   -1.11017  -1.09042  -1.06595  -1.06298  -1.05837
 Alpha  occ. eigenvalues --   -1.05732  -1.04865  -1.04794  -1.04641  -1.03699
 Alpha  occ. eigenvalues --   -0.95323  -0.95217  -0.91283  -0.91180  -0.91117
 Alpha  occ. eigenvalues --   -0.90708  -0.90629  -0.90016  -0.89907  -0.89038
 Alpha  occ. eigenvalues --   -0.88801  -0.88421  -0.87899  -0.87515  -0.87148
 Alpha  occ. eigenvalues --   -0.86252  -0.85916  -0.85751  -0.85085  -0.84621
 Alpha  occ. eigenvalues --   -0.84523  -0.84336  -0.83238  -0.82836  -0.82823
 Alpha  occ. eigenvalues --   -0.81991  -0.80099  -0.79712  -0.79263  -0.79187
 Alpha  occ. eigenvalues --   -0.79066  -0.78707  -0.78128  -0.77853  -0.77493
 Alpha  occ. eigenvalues --   -0.76485  -0.75207  -0.74510  -0.74034  -0.72987
 Alpha  occ. eigenvalues --   -0.71309  -0.71038  -0.70982  -0.70400  -0.69870
 Alpha  occ. eigenvalues --   -0.69753  -0.69082  -0.68759  -0.67989  -0.67553
 Alpha  occ. eigenvalues --   -0.67324  -0.66965  -0.66830  -0.66648  -0.66614
 Alpha  occ. eigenvalues --   -0.65885  -0.64667  -0.64105  -0.62306  -0.62154
 Alpha  occ. eigenvalues --   -0.61873  -0.61600  -0.61292  -0.61056  -0.60786
 Alpha  occ. eigenvalues --   -0.60748  -0.60447  -0.60337  -0.59646  -0.59564
 Alpha  occ. eigenvalues --   -0.58496  -0.57850  -0.57829  -0.57714  -0.57449
 Alpha  occ. eigenvalues --   -0.57018  -0.56829  -0.56719  -0.56315  -0.55945
 Alpha  occ. eigenvalues --   -0.55564  -0.55522  -0.55490  -0.55318  -0.55276
 Alpha  occ. eigenvalues --   -0.55240  -0.55102  -0.54854  -0.54754  -0.54574
 Alpha  occ. eigenvalues --   -0.53847  -0.53810  -0.53661  -0.53657  -0.53612
 Alpha  occ. eigenvalues --   -0.53316  -0.52807  -0.52695  -0.52649  -0.52323
 Alpha  occ. eigenvalues --   -0.52299  -0.52198  -0.51833  -0.51794  -0.51554
 Alpha  occ. eigenvalues --   -0.51242  -0.51221  -0.51194  -0.50965  -0.50956
 Alpha  occ. eigenvalues --   -0.50828  -0.50561  -0.50242  -0.50072  -0.50063
 Alpha  occ. eigenvalues --   -0.49789  -0.49480  -0.49345  -0.49330  -0.49107
 Alpha  occ. eigenvalues --   -0.49083  -0.48987  -0.48642  -0.48415  -0.48332
 Alpha  occ. eigenvalues --   -0.48304  -0.48078  -0.47956  -0.47824  -0.47780
 Alpha  occ. eigenvalues --   -0.47299  -0.47164  -0.47022  -0.46899  -0.46699
 Alpha  occ. eigenvalues --   -0.46638  -0.46382  -0.46312  -0.46132  -0.46078
 Alpha  occ. eigenvalues --   -0.45864  -0.45644  -0.45527  -0.45357  -0.45287
 Alpha  occ. eigenvalues --   -0.45160  -0.45140  -0.44974  -0.44879  -0.44801
 Alpha  occ. eigenvalues --   -0.44634  -0.44617  -0.44332  -0.44249  -0.44236
 Alpha  occ. eigenvalues --   -0.44090  -0.43819  -0.43750  -0.43428  -0.43409
 Alpha  occ. eigenvalues --   -0.43192  -0.42996  -0.42490  -0.42309  -0.42151
 Alpha  occ. eigenvalues --   -0.41867  -0.41791  -0.41599  -0.40821  -0.40731
 Alpha  occ. eigenvalues --   -0.40346  -0.40119  -0.39910  -0.39885  -0.39674
 Alpha  occ. eigenvalues --   -0.39663  -0.38890  -0.38611  -0.38527  -0.38304
 Alpha  occ. eigenvalues --   -0.38022  -0.37763  -0.37195  -0.36300  -0.36272
 Alpha  occ. eigenvalues --   -0.36052  -0.35920  -0.34874  -0.33989  -0.33556
 Alpha  occ. eigenvalues --   -0.33509  -0.33387  -0.33057  -0.32607  -0.32458
 Alpha  occ. eigenvalues --   -0.32260  -0.32173  -0.32124  -0.26609  -0.25727
 Alpha  occ. eigenvalues --   -0.23483  -0.22739
 Alpha virt. eigenvalues --   -0.07372  -0.07017  -0.00024   0.00460   0.02232
 Alpha virt. eigenvalues --    0.02989   0.03989   0.04828   0.05208   0.05531
 Alpha virt. eigenvalues --    0.06957   0.07385   0.07585   0.07785   0.08214

 Mulliken charges:
               1
     1  Mg   0.955713
     2  C   -0.016243
     3  C   -0.071987
     4  C   -0.061382
     5  C   -0.075458
     6  N   -0.370192
     7  C   -0.076369
     8  C   -0.019275
     9  C   -0.128232
    10  C    0.112529
    11  C    0.004238
    12  C    0.005635
    13  C   -0.087407
    14  H    0.044117
    15  N   -0.442622
    16  C    0.155571
    17  C   -0.170567
    18  C   -0.084832
    19  C    0.094688
    20  C    0.079854
    21  C    0.058938
    22  O   -0.231351
    23  C   -0.015604
    24  N   -0.372883
    25  C    0.091423
    26  C   -0.107433
    27  C   -0.062929
    28  C    0.055562
    29  C    0.009033
    30  C    0.009713
    31  C   -0.064275
    32  N   -0.405565
    33  C    0.114581
    34  C   -0.207822
    35  C   -0.016079
    36  C    0.137409
    37  C    0.069661
    38  C    0.119927
    39  O   -0.196947
    40  C   -0.032918
    41  C    0.261190
    42  O   -0.260780
    43  O   -0.368893
    44  C    0.150867
    45  H   -0.002628
    46  H    0.022735
    47  H   -0.004999
    48  H    0.035177
    49  H    0.041285
    50  H    0.033186
    51  H    0.028424
    52  H    0.050189
    53  H    0.018847
    54  H    0.026461
    55  H    0.050758
    56  H    0.056884
    57  H    0.044955
    58  H    0.041708
    59  H    0.050687
    60  H    0.068888
    61  H    0.058630
    62  H    0.044869
    63  H    0.042171
    64  H    0.041188
    65  H    0.028411
    66  H    0.042382
    67  H    0.055141
    68  H    0.035731
    69  H    0.040895
    70  H    0.024677
    71  H    0.026464
    72  H    0.047225
    73  H    0.017841
    74  H    0.060233
    75  H    0.049686
    76  H    0.082137
    77  H    0.044826
    78  H    0.059112
    79  H    0.053221
    80  Mg   0.953603
    81  C   -0.018553
    82  C   -0.078144
    83  C   -0.102514
    84  C   -0.070927
    85  N   -0.331651
    86  C   -0.062262
    87  C    0.031468
    88  C   -0.153745
    89  C    0.038723
    90  C    0.036056
    91  C    0.038173
    92  C   -0.109495
    93  H    0.041459
    94  N   -0.434340
    95  C    0.181929
    96  C   -0.135709
    97  C   -0.121097
    98  C    0.236238
    99  C    0.063055
   100  C    0.024935
   101  O   -0.229614
   102  C    0.001931
   103  N   -0.396330
   104  C    0.068616
   105  C   -0.119392
   106  C   -0.097015
   107  C    0.094300
   108  C    0.022082
   109  C   -0.030785
   110  C   -0.043106
   111  N   -0.425183
   112  C    0.086273
   113  C   -0.233688
   114  C    0.018486
   115  C    0.142534
   116  C    0.107332
   117  C    0.094439
   118  O   -0.186523
   119  C   -0.073724
   120  C    0.259995
   121  O   -0.213121
   122  O   -0.378383
   123  C    0.124724
   124  H   -0.006364
   125  H   -0.019625
   126  H   -0.006006
   127  H    0.020872
   128  H    0.031370
   129  H    0.043431
   130  H    0.049290
   131  H    0.029104
   132  H    0.029823
   133  H    0.035490
   134  H    0.036428
   135  H    0.039783
   136  H    0.058561
   137  H    0.019587
   138  H    0.074463
   139  H    0.052440
   140  H    0.058009
   141  H    0.079003
   142  H    0.040397
   143  H    0.042193
   144  H    0.035894
   145  H    0.050033
   146  H    0.035383
   147  H    0.033120
   148  H    0.029995
   149  H    0.038263
   150  H    0.042303
   151  H    0.038964
   152  H    0.070630
   153  H    0.005429
   154  H    0.058179
   155  H    0.072913
   156  H    0.057164
   157  H    0.062217
   158  H    0.040215
 Sum of Mulliken charges =  -0.00000

 Dipole moment (field-independent basis, Debye):
    X=             -0.2578    Y=              6.3185    Z=             -3.4863  Tot=              7.2211
 Quadrupole moment (field-independent basis, Debye-Ang):
   XX=           -332.6009   YY=           -566.9862   ZZ=           -486.2502
   XY=             -8.7536   XZ=             69.6704   YZ=             12.7603

 Normal termination of Gaussian 16 at Mon Sep 20 01:05:39 2021.
