 Gaussian 16, Revision A.03,
 Gaussian 16:  ES64L-G16RevA.03 25-Dec-2016

 --------------------------------
 #p wB97XD/Def2SVP td=(nstates=5)
 --------------------------------

 --------------------------------
 TDDFT excited states in gaussian
 --------------------------------
 Symbolic Z-matrix:
 Charge =  0 Multiplicity = 1

                         Standard orientation:
 ---------------------------------------------------------------------
 Center     Atomic      Atomic             Coordinates (Angstroms)
 Number     Number       Type             X           Y           Z
 ---------------------------------------------------------------------
      1         12           0       24.606041   -0.824302    0.089716
      2          6           0       26.019977    2.264198   -0.457605
      3          6           0       22.923766    0.545872    2.837653
      4          6           0       23.246986   -3.841774    0.754713
      5          6           0       26.547542   -2.169298   -2.347252
      6          7           0       24.713597    1.151546    1.224798
      7          6           0       25.196122    2.326157    0.634273
      8          6           0       24.672870    3.589403    1.346053
      9          6           0       23.771695    2.941875    2.461060
     10          6           0       23.730029    1.456700    2.172087
     11          6           0       24.258852    3.242797    3.872820
     12          6           0       23.903141    4.680823    0.521202
     13          6           0       24.628165    6.123360    0.344818
     14          1           0       23.770136    7.250526    0.927724
     15          7           0       23.380590   -1.572915    1.608526
     16          6           0       22.690797   -0.813937    2.567735
     17          6           0       21.666401   -1.614650    3.246303
     18          6           0       21.770748   -3.007598    2.704773
     19          6           0       22.786275   -2.869652    1.585793
     20          6           0       20.755767   -1.056927    4.317869
     21          6           0       21.072785   -4.235089    3.058620
     22          8           0       21.403614   -5.305653    2.527847
     23          6           0       19.982685   -4.293792    4.114342
     24          7           0       24.939876   -2.667060   -0.627836
     25          6           0       24.163217   -3.796102   -0.308057
     26          6           0       24.430413   -5.068737   -1.209197
     27          6           0       25.554626   -4.451858   -2.191099
     28          6           0       25.672342   -2.992592   -1.695990
     29          6           0       24.927112   -6.367205   -0.401412
     30          6           0       25.133978   -4.563554   -3.696902
     31          6           0       26.198380   -4.875927   -4.701608
     32          7           0       26.102547   -0.093985   -1.100012
     33          6           0       26.786615   -0.768631   -2.115312
     34          6           0       27.581857    0.131742   -2.878158
     35          6           0       27.224987    1.404503   -2.297025
     36          6           0       26.396775    1.161754   -1.193892
     37          6           0       28.444856   -0.086905   -4.049243
     38          6           0       27.541323    2.798260   -2.322861
     39          8           0       28.232697    3.525056   -3.044921
     40          6           0       26.863115    3.391237   -1.005519
     41          6           0       27.932049    3.894840   -0.102920
     42          8           0       28.402364    3.374603    0.831030
     43          8           0       28.265180    5.205450   -0.436929
     44          6           0       28.816788    5.992818    0.646085
     45          1           0       22.335517    1.001096    3.637184
     46          1           0       22.830726   -4.849086    0.820855
     47          1           0       27.059323   -2.566036   -3.226489
     48          1           0       25.510956    4.081413    1.838475
     49          1           0       22.767871    3.367530    2.466506
     50          1           0       24.584348    2.311679    4.335918
     51          1           0       23.357048    3.609609    4.361535
     52          1           0       25.008390    4.029144    3.959447
     53          1           0       22.936527    4.839302    1.000021
     54          1           0       23.731455    4.353425   -0.504289
     55          1           0       24.636696    6.241082   -0.738918
     56          1           0       25.615141    6.112154    0.806722
     57          1           0       21.369457   -0.927905    5.210265
     58          1           0       19.973836   -1.790417    4.508428
     59          1           0       20.387684   -0.054758    4.097100
     60          1           0       19.894850   -5.347000    4.381846
     61          1           0       19.028228   -3.881248    3.785689
     62          1           0       20.214507   -3.881640    5.096228
     63          1           0       23.559058   -5.269054   -1.831822
     64          1           0       26.517649   -4.962288   -2.165233
     65          1           0       25.688871   -6.870718   -0.997008
     66          1           0       24.201701   -7.168912   -0.268498
     67          1           0       25.324732   -6.129328    0.585406
     68          1           0       24.581061   -3.700238   -4.066770
     69          1           0       24.457657   -5.398365   -3.879698
     70          1           0       26.284676   -3.967923   -5.298205
     71          1           0       26.009700   -5.588975   -5.504149
     72          1           0       27.137316   -5.088933   -4.189555
     73          1           0       28.074538   -0.958443   -4.589745
     74          1           0       29.417493   -0.323827   -3.618198
     75          1           0       28.557247    0.858649   -4.580051
     76          1           0       26.206090    4.220914   -1.265188
     77          1           0       29.843601    5.638034    0.728084
     78          1           0       28.246827    5.711390    1.531403
     79          1           0       28.812522    7.057567    0.411110
     80         12           0      -25.549504   -0.392886   -0.210198
     81          6           0      -24.046169    2.698835   -0.845327
     82          6           0      -25.930594    0.591956    3.074858
     83          6           0      -26.363637   -3.601992    0.620395
     84          6           0      -24.506453   -1.457625   -3.336115
     85          7           0      -25.116738    1.451945    0.883484
     86          6           0      -24.713969    2.622734    0.373244
     87          6           0      -24.865711    3.821731    1.320751
     88          6           0      -25.300123    3.107612    2.657810
     89          6           0      -25.574849    1.572712    2.184804
     90          6           0      -24.320151    3.180365    3.848631
     91          6           0      -25.839982    4.896542    0.838151
     92          6           0      -25.525871    6.296799    1.395549
     93          1           0      -24.341452    6.474568    2.355991
     94          7           0      -26.180698   -1.363018    1.550070
     95          6           0      -26.342403   -0.759800    2.818671
     96          6           0      -26.857836   -1.757691    3.734404
     97          6           0      -26.931562   -3.025562    3.045648
     98          6           0      -26.522793   -2.705090    1.678955
     99          6           0      -27.298199   -1.381659    5.122408
    100          6           0      -27.494713   -4.436108    3.531004
    101          8           0      -27.630682   -5.390756    2.804882
    102          6           0      -27.851853   -4.546477    4.997402
    103          7           0      -25.362547   -2.258944   -1.169956
    104          6           0      -25.798814   -3.445831   -0.658036
    105          6           0      -25.640617   -4.630692   -1.680666
    106          6           0      -25.123412   -3.891635   -2.913737
    107          6           0      -24.986907   -2.457855   -2.437025
    108          6           0      -24.848058   -5.947073   -1.304899
    109          6           0      -26.106618   -4.024920   -4.100267
    110          6           0      -27.326941   -3.080152   -4.168314
    111          7           0      -24.617064    0.433339   -1.894164
    112          6           0      -24.254727   -0.112254   -3.098411
    113          6           0      -23.630136    0.855278   -3.936919
    114          6           0      -23.507107    2.033849   -3.072027
    115          6           0      -24.077891    1.703787   -1.904917
    116          6           0      -23.148061    0.781194   -5.317846
    117          6           0      -22.929631    3.364265   -2.939749
    118          8           0      -22.378885    4.078557   -3.784307
    119          6           0      -23.245761    3.878703   -1.504471
    120          6           0      -22.027689    4.224799   -0.779114
    121          8           0      -21.254848    3.434887   -0.247138
    122          8           0      -21.751034    5.554775   -0.973895
    123          6           0      -20.391163    6.065048   -0.712268
    124          1           0      -25.988115    0.979822    4.094231
    125          1           0      -26.792480   -4.586231    0.819797
    126          1           0      -24.263198   -1.760960   -4.356503
    127          1           0      -23.900336    4.264063    1.565664
    128          1           0      -26.297470    3.388717    2.994118
    129          1           0      -24.984133    3.566659    4.621736
    130          1           0      -23.512573    3.881926    3.640876
    131          1           0      -23.902824    2.195977    4.060923
    132          1           0      -26.874626    4.643949    1.066953
    133          1           0      -25.809555    4.969681   -0.249298
    134          1           0      -26.470155    6.530001    1.887965
    135          1           0      -25.462679    7.045066    0.604190
    136          1           0      -26.953391   -0.357942    5.268500
    137          1           0      -26.846162   -2.069759    5.837066
    138          1           0      -28.378675   -1.445569    5.259674
    139          1           0      -27.026316   -4.625932    5.705452
    140          1           0      -28.543084   -5.382114    5.106941
    141          1           0      -28.400827   -3.619327    5.161720
    142          1           0      -26.679111   -4.943146   -1.787831
    143          1           0      -24.160087   -4.338782   -3.156356
    144          1           0      -24.120151   -6.268299   -2.048993
    145          1           0      -25.565869   -6.763863   -1.236388
    146          1           0      -24.412862   -5.798741   -0.316168
    147          1           0      -26.433881   -5.063812   -4.084841
    148          1           0      -25.484701   -3.899217   -4.987049
    149          1           0      -28.147191   -3.720270   -4.492180
    150          1           0      -27.224357   -2.295253   -4.917301
    151          1           0      -27.530066   -2.540609   -3.243926
    152          1           0      -23.428619    1.709345   -5.814540
    153          1           0      -23.515145   -0.063605   -5.900734
    154          1           0      -22.059773    0.842684   -5.334467
    155          1           0      -23.894231    4.738655   -1.671343
    156          1           0      -19.731038    5.293390   -0.314664
    157          1           0      -20.471636    6.847198    0.043026
    158          1           0      -20.105103    6.402415   -1.707866
 ---------------------------------------------------------------------

 SCF Done:  E(RwB97XD) =  -4070.60978376     A.U. after   19 cycles

 Excitation energies and oscillator strengths:

 Excited State   1:      Singlet-A      1.6222 eV  764.30 nm  f=0.4065  <S**2>=0.000
     309 -> 315        0.16234
     311 -> 313        0.68614
     309 <- 315        0.10568
 This state for optimization and/or second-order correction.
 Total Energy, E(TD-HF/TD-DFT) =  -4070.55016900
 Copying the excited state density for this state as the 1-particle RhoCI density.

 Excited State   2:      Singlet-A      1.6570 eV  748.26 nm  f=0.4119  <S**2>=0.000
     310 -> 316        0.18734
     312 -> 314        0.68179
     310 <- 316        0.11634

 Excited State   3:      Singlet-A      2.0777 eV  596.73 nm  f=0.1511  <S**2>=0.000
     310 -> 314        0.65641
     312 -> 316       -0.23990

 Excited State   4:      Singlet-A      2.1350 eV  580.71 nm  f=0.1233  <S**2>=0.000
     309 -> 313        0.64280
     311 -> 315       -0.25991

 Excited State   5:      Singlet-A      3.1038 eV  399.46 nm  f=0.0053  <S**2>=0.000
     306 -> 314       -0.12868
     308 -> 314        0.67536

 The electronic state is 1-A.
 Alpha  occ. eigenvalues --  -46.94614 -46.94303 -19.29139 -19.27374 -19.24982
 Alpha  occ. eigenvalues --  -19.24440 -19.23949 -19.23945 -19.23788 -19.22961
 Alpha  occ. eigenvalues --  -14.47184 -14.46902 -14.46614 -14.46488 -14.44949
 Alpha  occ. eigenvalues --  -14.44082 -14.43141 -14.42799 -10.42533 -10.41891
 Alpha  occ. eigenvalues --  -10.40185 -10.39345 -10.39131 -10.38184 -10.35924
 Alpha  occ. eigenvalues --  -10.35356 -10.35170 -10.35159 -10.34944 -10.34934
 Alpha  occ. eigenvalues --  -10.34914 -10.34747 -10.34738 -10.34736 -10.34682
 Alpha  occ. eigenvalues --  -10.34403 -10.34334 -10.34221 -10.33922 -10.33517
 Alpha  occ. eigenvalues --  -10.33321 -10.33245 -10.32867 -10.32849 -10.32748
 Alpha  occ. eigenvalues --  -10.32738 -10.32318 -10.32310 -10.32306 -10.32291
 Alpha  occ. eigenvalues --  -10.32173 -10.31853 -10.31832 -10.31805 -10.31732
 Alpha  occ. eigenvalues --  -10.31719 -10.31714 -10.31650 -10.31614 -10.31481
 Alpha  occ. eigenvalues --  -10.31425 -10.31372 -10.31179 -10.31172 -10.30954
 Alpha  occ. eigenvalues --  -10.30946 -10.30901 -10.30665 -10.30589 -10.30499
 Alpha  occ. eigenvalues --  -10.30364 -10.30363 -10.30299 -10.30211 -10.30103
 Alpha  occ. eigenvalues --  -10.29994 -10.29875 -10.29857 -10.29802 -10.29742
 Alpha  occ. eigenvalues --  -10.29720 -10.29685 -10.29315 -10.29138 -10.28821
 Alpha  occ. eigenvalues --  -10.28479  -3.20577  -3.20472  -1.94167  -1.94036
 Alpha  occ. eigenvalues --   -1.93697  -1.93610  -1.93556  -1.93466  -1.18877
 Alpha  occ. eigenvalues --   -1.17279  -1.13824  -1.11822  -1.11126  -1.10297
 Alpha  occ. eigenvalues --   -1.09899  -1.08857  -1.06622  -1.06467  -1.05445
 Alpha  occ. eigenvalues --   -1.05349  -1.04499  -1.04066  -1.03081  -1.02706
 Alpha  occ. eigenvalues --   -0.94535  -0.94075  -0.91108  -0.91055  -0.90668
 Alpha  occ. eigenvalues --   -0.90495  -0.90387  -0.90096  -0.89276  -0.89131
 Alpha  occ. eigenvalues --   -0.89040  -0.88658  -0.88414  -0.88050  -0.86147
 Alpha  occ. eigenvalues --   -0.86146  -0.85353  -0.85348  -0.84338  -0.84243
 Alpha  occ. eigenvalues --   -0.83894  -0.83836  -0.82973  -0.82791  -0.82184
 Alpha  occ. eigenvalues --   -0.82155  -0.80769  -0.80115  -0.79323  -0.79066
 Alpha  occ. eigenvalues --   -0.78772  -0.78599  -0.77847  -0.77209  -0.77152
 Alpha  occ. eigenvalues --   -0.76984  -0.75057  -0.74443  -0.73674  -0.73092
 Alpha  occ. eigenvalues --   -0.71751  -0.71348  -0.70596  -0.70435  -0.69888
 Alpha  occ. eigenvalues --   -0.69673  -0.69545  -0.68088  -0.67593  -0.67242
 Alpha  occ. eigenvalues --   -0.67003  -0.66733  -0.66647  -0.66464  -0.65894
 Alpha  occ. eigenvalues --   -0.65753  -0.63417  -0.62836  -0.62217  -0.61799
 Alpha  occ. eigenvalues --   -0.61342  -0.61098  -0.61056  -0.60999  -0.60428
 Alpha  occ. eigenvalues --   -0.60301  -0.60247  -0.59679  -0.59650  -0.59421
 Alpha  occ. eigenvalues --   -0.58510  -0.57839  -0.57493  -0.57402  -0.57245
 Alpha  occ. eigenvalues --   -0.57138  -0.56631  -0.55849  -0.55643  -0.55570
 Alpha  occ. eigenvalues --   -0.55294  -0.55246  -0.54924  -0.54810  -0.54637
 Alpha  occ. eigenvalues --   -0.54590  -0.54269  -0.54248  -0.54079  -0.54077
 Alpha  occ. eigenvalues --   -0.53914  -0.53568  -0.53508  -0.53265  -0.53087
 Alpha  occ. eigenvalues --   -0.52756  -0.52666  -0.52602  -0.52495  -0.52196
 Alpha  occ. eigenvalues --   -0.52129  -0.51954  -0.51682  -0.51641  -0.51571
 Alpha  occ. eigenvalues --   -0.51537  -0.51332  -0.50990  -0.50931  -0.50928
 Alpha  occ. eigenvalues --   -0.50561  -0.50468  -0.50457  -0.50168  -0.50050
 Alpha  occ. eigenvalues --   -0.49998  -0.49933  -0.49572  -0.49221  -0.49069
 Alpha  occ. eigenvalues --   -0.48949  -0.48761  -0.48696  -0.48395  -0.48211
 Alpha  occ. eigenvalues --   -0.48058  -0.48056  -0.47910  -0.47804  -0.47581
 Alpha  occ. eigenvalues --   -0.47327  -0.47214  -0.47206  -0.46959  -0.46883
 Alpha  occ. eigenvalues --   -0.46617  -0.46586  -0.46259  -0.46077  -0.45902
 Alpha  occ. eigenvalues --   -0.45614  -0.45613  -0.45469  -0.45343  -0.45279
 Alpha  occ. eigenvalues --   -0.45172  -0.45003  -0.44996  -0.44854  -0.44761
 Alpha  occ. eigenvalues --   -0.44680  -0.44540  -0.44292  -0.43973  -0.43942
 Alpha  occ. eigenvalues --   -0.43617  -0.43429  -0.43308  -0.43065  -0.43035
 Alpha  occ. eigenvalues --   -0.42906  -0.42817  -0.42582  -0.42535  -0.42175
 Alpha  occ. eigenvalues --   -0.42046  -0.41839  -0.41823  -0.41009  -0.40617
 Alpha  occ. eigenvalues --   -0.40453  -0.40325  -0.39788  -0.39768  -0.39619
 Alpha  occ. eigenvalues --   -0.39609  -0.39240  -0.38796  -0.38069  -0.38023
 Alpha  occ. eigenvalues --   -0.37713  -0.36867  -0.36434  -0.36333  -0.36050
 Alpha  occ. eigenvalues --   -0.35764  -0.35527  -0.35392  -0.33667  -0.33583
 Alpha  occ. eigenvalues --   -0.33506  -0.33122  -0.32817  -0.32200  -0.31833
 Alpha  occ. eigenvalues --   -0.31812  -0.31372  -0.30859  -0.26306  -0.25443
 Alpha  occ. eigenvalues --   -0.23270  -0.23129
 Alpha virt. eigenvalues --   -0.07638  -0.07295  -0.00231   0.00598   0.01793
 Alpha virt. eigenvalues --    0.02627   0.04311   0.04573   0.05252   0.05663
 Alpha virt. eigenvalues --    0.07424   0.07551   0.07755   0.07910   0.08449

 Mulliken charges:
               1
     1  Mg   0.967162
     2  C    0.011659
     3  C   -0.103324
     4  C   -0.069788
     5  C   -0.098369
     6  N   -0.364305
     7  C   -0.034121
     8  C   -0.002527
     9  C   -0.138137
    10  C    0.093115
    11  C    0.019356
    12  C   -0.009206
    13  C   -0.148506
    14  H    0.036403
    15  N   -0.481728
    16  C    0.200894
    17  C   -0.180128
    18  C   -0.027825
    19  C    0.193772
    20  C    0.079891
    21  C    0.021662
    22  O   -0.252848
    23  C   -0.034216
    24  N   -0.410662
    25  C    0.038776
    26  C   -0.045298
    27  C   -0.088432
    28  C    0.133940
    29  C   -0.000909
    30  C   -0.040883
    31  C   -0.058067
    32  N   -0.418725
    33  C    0.119691
    34  C   -0.179158
    35  C   -0.042508
    36  C    0.138508
    37  C    0.103161
    38  C    0.092991
    39  O   -0.217686
    40  C   -0.114379
    41  C    0.257071
    42  O   -0.187465
    43  O   -0.389621
    44  C    0.148331
    45  H   -0.010807
    46  H    0.025938
    47  H   -0.021913
    48  H    0.032264
    49  H    0.032495
    50  H    0.050116
    51  H    0.027208
    52  H    0.046200
    53  H    0.042861
    54  H    0.040665
    55  H    0.074244
    56  H    0.060413
    57  H    0.058494
    58  H    0.036792
    59  H    0.054084
    60  H    0.050781
    61  H    0.073260
    62  H    0.053544
    63  H    0.052022
    64  H    0.039605
    65  H    0.033972
    66  H    0.046060
    67  H    0.057344
    68  H    0.033699
    69  H    0.029700
    70  H    0.026207
    71  H    0.038829
    72  H    0.035100
    73  H    0.041501
    74  H    0.054375
    75  H    0.067146
    76  H    0.052243
    77  H    0.050828
    78  H    0.037010
    79  H    0.060157
    80  Mg   0.960077
    81  C   -0.000875
    82  C   -0.090112
    83  C   -0.073903
    84  C   -0.087014
    85  N   -0.357118
    86  C   -0.011307
    87  C   -0.047783
    88  C   -0.148949
    89  C    0.067706
    90  C    0.032175
    91  C    0.017134
    92  C   -0.110768
    93  H    0.046828
    94  N   -0.477753
    95  C    0.165608
    96  C   -0.178497
    97  C   -0.089988
    98  C    0.129169
    99  C    0.057183
   100  C    0.082305
   101  O   -0.208402
   102  C   -0.022551
   103  N   -0.338097
   104  C    0.039867
   105  C   -0.081591
   106  C   -0.049250
   107  C    0.051096
   108  C    0.022582
   109  C   -0.042552
   110  C   -0.033377
   111  N   -0.450006
   112  C    0.142179
   113  C   -0.165017
   114  C   -0.034661
   115  C    0.132337
   116  C    0.085480
   117  C    0.094046
   118  O   -0.220700
   119  C   -0.058960
   120  C    0.274325
   121  O   -0.254789
   122  O   -0.379412
   123  C    0.128387
   124  H    0.001320
   125  H    0.020114
   126  H   -0.015911
   127  H    0.038831
   128  H    0.031204
   129  H    0.040109
   130  H    0.043092
   131  H    0.055422
   132  H    0.031075
   133  H    0.031059
   134  H    0.040511
   135  H    0.054370
   136  H    0.029119
   137  H    0.047895
   138  H    0.067790
   139  H    0.082028
   140  H    0.053809
   141  H    0.031844
   142  H    0.039771
   143  H    0.036102
   144  H    0.039816
   145  H    0.035677
   146  H    0.050959
   147  H    0.030144
   148  H    0.031114
   149  H    0.040380
   150  H    0.037227
   151  H    0.046618
   152  H    0.052946
   153  H    0.034611
   154  H    0.057826
   155  H    0.073279
   156  H    0.066855
   157  H    0.054421
   158  H    0.073522
 Sum of Mulliken charges =  -0.00000

 Dipole moment (field-independent basis, Debye):
    X=             -8.4149    Y=             -0.9895    Z=              4.0930  Tot=              9.4097
 Quadrupole moment (field-independent basis, Debye-Ang):
   XX=           -619.2674   YY=           -501.6600   ZZ=           -477.0110
   XY=            -58.6308   XZ=            -10.9780   YZ=             54.7678

 Normal termination of Gaussian 16 at Mon Sep 20 14:12:08 2021.
