 Gaussian 16, Revision A.03,
 Gaussian 16:  ES64L-G16RevA.03 25-Dec-2016

 --------------------------------
 #p wB97XD/Def2SVP td=(nstates=5)
 --------------------------------

 --------------------------------
 TDDFT excited states in gaussian
 --------------------------------
 Symbolic Z-matrix:
 Charge =  0 Multiplicity = 1

                         Standard orientation:
 ---------------------------------------------------------------------
 Center     Atomic      Atomic             Coordinates (Angstroms)
 Number     Number       Type             X           Y           Z
 ---------------------------------------------------------------------
      1         12           0       -0.772797   -0.008693   -0.552231
      2          6           0        2.796740    0.246665    0.259447
      3          6           0       -0.297677   -3.422794   -0.239414
      4          6           0       -3.933533   -0.232550   -0.192365
      5          6           0       -0.801403    3.577332   -0.325558
      6          7           0        1.125488   -1.422807    0.119761
      7          6           0        2.440902   -1.105807    0.379485
      8          6           0        3.212919   -2.404465    0.815660
      9          6           0        2.297282   -3.561971    0.380924
     10          6           0        0.969578   -2.772081    0.069236
     11          6           0        2.711509   -4.422087   -0.884580
     12          6           0        3.613846   -2.420561    2.330548
     13          6           0        4.975287   -2.993899    2.660051
     14          1           0        5.005861   -4.447325    3.228542
     15          7           0       -1.962984   -1.581080   -0.383828
     16          6           0       -1.629795   -2.908290   -0.378610
     17          6           0       -2.862002   -3.737539   -0.279585
     18          6           0       -3.919935   -2.792261   -0.240988
     19          6           0       -3.287584   -1.475476   -0.228703
     20          6           0       -2.944043   -5.267934   -0.157621
     21          6           0       -5.409902   -3.038797    0.012684
     22          8           0       -5.779692   -4.207040    0.093749
     23          6           0       -6.387411   -2.029535    0.126938
     24          7           0       -2.153251    1.511997   -0.022360
     25          6           0       -3.460536    1.108610   -0.208891
     26          6           0       -4.376290    2.393145   -0.182939
     27          6           0       -3.363614    3.562754    0.088963
     28          6           0       -2.021614    2.849627   -0.203257
     29          6           0       -5.255989    2.618872   -1.443178
     30          6           0       -3.395213    4.290456    1.493163
     31          6           0       -4.476618    5.358963    1.730046
     32          7           0        0.639615    1.657009   -0.177460
     33          6           0        0.478956    3.026128   -0.252809
     34          6           0        1.741840    3.720607   -0.184739
     35          6           0        2.695707    2.651414    0.003262
     36          6           0        2.018574    1.383640    0.065491
     37          6           0        1.885315    5.211124   -0.212122
     38          6           0        4.047144    2.398122    0.235149
     39          8           0        4.976444    3.155038    0.481401
     40          6           0        4.175763    0.877491    0.539861
     41          6           0        5.194143    0.376342   -0.457398
     42          8           0        6.161171   -0.323886   -0.147353
     43          8           0        4.879393    0.630366   -1.852899
     44          6           0        5.690992   -0.175727   -2.763418
     45          1           0       -0.163196   -4.505833   -0.219187
     46          1           0       -5.020902   -0.153933   -0.254773
     47          1           0       -0.961950    4.656704   -0.363789
     48          1           0        4.071613   -2.532441    0.155049
     49          1           0        2.049994   -4.218445    1.215178
     50          1           0        3.053079   -5.370551   -0.470574
     51          1           0        3.561212   -3.977594   -1.401969
     52          1           0        1.941012   -4.540810   -1.646311
     53          1           0        2.994105   -3.061320    2.958325
     54          1           0        3.625890   -1.406130    2.729733
     55          1           0        5.474561   -2.271650    3.305973
     56          1           0        5.547048   -3.032857    1.732319
     57          1           0       -3.774789   -5.641578   -0.756836
     58          1           0       -3.047736   -5.437692    0.914012
     59          1           0       -2.051817   -5.741144   -0.565370
     60          1           0       -6.483327   -1.542598   -0.844046
     61          1           0       -6.225476   -1.324444    0.942304
     62          1           0       -7.246742   -2.616181    0.453545
     63          1           0       -5.087857    2.407461    0.641952
     64          1           0       -3.425967    4.329026   -0.683342
     65          1           0       -4.975866    3.605822   -1.811625
     66          1           0       -6.300831    2.617808   -1.134254
     67          1           0       -4.986618    1.784818   -2.092326
     68          1           0       -2.412027    4.758185    1.554329
     69          1           0       -3.584066    3.578642    2.297022
     70          1           0       -4.942239    5.393678    0.744695
     71          1           0       -4.033331    6.346481    1.865863
     72          1           0       -5.216871    5.154218    2.503105
     73          1           0        1.276035    5.572335    0.615332
     74          1           0        1.436127    5.675302   -1.089931
     75          1           0        2.889084    5.546060    0.049623
     76          1           0        4.603099    0.791825    1.538749
     77          1           0        4.972786   -0.163527   -3.584130
     78          1           0        6.009702   -1.114285   -2.310000
     79          1           0        6.523339    0.457506   -3.070776
 ---------------------------------------------------------------------

 SCF Done:  E(RwB97XD) =  -2035.25329874     A.U. after   18 cycles

 Excitation energies and oscillator strengths:

 Excited State   1:      Singlet-A      1.6685 eV  743.09 nm  f=0.3521  <S**2>=0.000
     155 ->158        -0.20219
     156 ->157         0.67712
     155 <-158        -0.11959
 This state for optimization and/or second-order correction.
 Total Energy, E(TD-HF/TD-DFT) =  -2035.19198233
 Copying the excited state density for this state as the 1-particle RhoCI density.

 Excited State   2:      Singlet-A      2.1895 eV  566.28 nm  f=0.0672  <S**2>=0.000
     155 ->157         0.61436
     156 ->158         0.33143

 Excited State   3:      Singlet-A      3.2143 eV  385.73 nm  f=0.0158  <S**2>=0.000
     154 ->157         0.61803
     154 ->159         0.11998
     156 ->158        -0.24338

 Excited State   4:      Singlet-A      3.4154 eV  363.01 nm  f=0.0463  <S**2>=0.000
     153 ->157         0.54302
     153 ->159         0.28489
     153 ->160        -0.11153
     153 ->161         0.16374
     156 ->158        -0.17925

 Excited State   5:      Singlet-A      3.5046 eV  353.78 nm  f=0.7479  <S**2>=0.000
     152 ->157         0.18349
     153 ->157         0.13365
     154 ->157         0.24350
     155 ->157        -0.31135
     156 ->158         0.52786
     155 <-157         0.10684

 The electronic state is 1-A.
 Alpha  occ. eigenvalues --  -46.97100 -19.28939 -19.25032 -19.23833 -19.22901
 Alpha  occ. eigenvalues --  -14.47348 -14.46566 -14.45418 -14.43744 -10.43273
 Alpha  occ. eigenvalues --  -10.38896 -10.37488 -10.36413 -10.35966 -10.35648
 Alpha  occ. eigenvalues --  -10.35606 -10.35458 -10.35006 -10.34494 -10.33875
 Alpha  occ. eigenvalues --  -10.33367 -10.33235 -10.33066 -10.32981 -10.32902
 Alpha  occ. eigenvalues --  -10.32680 -10.32446 -10.32374 -10.32301 -10.32275
 Alpha  occ. eigenvalues --  -10.32114 -10.31594 -10.31399 -10.30873 -10.30850
 Alpha  occ. eigenvalues --  -10.30776 -10.30732 -10.30619 -10.30513 -10.30120
 Alpha  occ. eigenvalues --  -10.30037 -10.29652 -10.29256  -3.23002  -1.96526
 Alpha  occ. eigenvalues --   -1.96169  -1.95921  -1.16083  -1.12687  -1.11196
 Alpha  occ. eigenvalues --   -1.08553  -1.07110  -1.05365  -1.05355  -1.03091
 Alpha  occ. eigenvalues --   -0.94877  -0.90899  -0.90825  -0.90408  -0.88987
 Alpha  occ. eigenvalues --   -0.88887  -0.87858  -0.86928  -0.85771  -0.85603
 Alpha  occ. eigenvalues --   -0.84485  -0.83117  -0.81851  -0.80244  -0.79282
 Alpha  occ. eigenvalues --   -0.78962  -0.77770  -0.77233  -0.74831  -0.73924
 Alpha  occ. eigenvalues --   -0.71104  -0.70555  -0.69716  -0.69005  -0.67516
 Alpha  occ. eigenvalues --   -0.67332  -0.67004  -0.66036  -0.63891  -0.62419
 Alpha  occ. eigenvalues --   -0.61816  -0.61268  -0.60912  -0.59191  -0.59003
 Alpha  occ. eigenvalues --   -0.58672  -0.57595  -0.56754  -0.56302  -0.55841
 Alpha  occ. eigenvalues --   -0.55687  -0.55480  -0.55232  -0.54855  -0.54444
 Alpha  occ. eigenvalues --   -0.53912  -0.53684  -0.53424  -0.52974  -0.52527
 Alpha  occ. eigenvalues --   -0.51820  -0.51802  -0.51514  -0.51107  -0.50904
 Alpha  occ. eigenvalues --   -0.50569  -0.50339  -0.50092  -0.49902  -0.49669
 Alpha  occ. eigenvalues --   -0.49245  -0.48662  -0.48474  -0.48049  -0.47857
 Alpha  occ. eigenvalues --   -0.47321  -0.46910  -0.46613  -0.46445  -0.46323
 Alpha  occ. eigenvalues --   -0.46029  -0.45729  -0.45569  -0.45160  -0.44563
 Alpha  occ. eigenvalues --   -0.44390  -0.44265  -0.44048  -0.43912  -0.43430
 Alpha  occ. eigenvalues --   -0.43262  -0.42174  -0.42126  -0.41835  -0.41221
 Alpha  occ. eigenvalues --   -0.40782  -0.39817  -0.39621  -0.39168  -0.38291
 Alpha  occ. eigenvalues --   -0.37348  -0.36551  -0.35942  -0.35272  -0.33845
 Alpha  occ. eigenvalues --   -0.33532  -0.33211  -0.32123  -0.30872  -0.26406
 Alpha  occ. eigenvalues --   -0.23274
 Alpha virt. eigenvalues --   -0.07142  -0.00808   0.01873   0.03636   0.04313
 Alpha virt. eigenvalues --    0.06811   0.06976   0.08145   0.09561   0.10441
 Alpha virt. eigenvalues --    0.11211   0.11604   0.12512   0.12912   0.13505

 Mulliken charges:
               1
     1  Mg   0.966101
     2  C   -0.023618
     3  C   -0.063214
     4  C   -0.091989
     5  C   -0.100989
     6  N   -0.282573
     7  C   -0.034218
     8  C    0.018394
     9  C   -0.119673
    10  C   -0.008077
    11  C    0.015381
    12  C    0.017498
    13  C   -0.125798
    14  H    0.022205
    15  N   -0.499491
    16  C    0.163117
    17  C   -0.190084
    18  C   -0.055638
    19  C    0.215164
    20  C    0.096875
    21  C    0.017725
    22  O   -0.245745
    23  C    0.020204
    24  N   -0.384656
    25  C    0.048439
    26  C   -0.125748
    27  C   -0.090082
    28  C    0.045025
    29  C    0.037762
    30  C   -0.003797
    31  C   -0.042738
    32  N   -0.423477
    33  C    0.155380
    34  C   -0.159549
    35  C   -0.021061
    36  C    0.159009
    37  C    0.093598
    38  C    0.074411
    39  O   -0.216362
    40  C   -0.098745
    41  C    0.286678
    42  O   -0.256808
    43  O   -0.417814
    44  C    0.139069
    45  H   -0.001276
    46  H   -0.023777
    47  H   -0.001923
    48  H    0.034626
    49  H    0.044273
    50  H    0.048570
    51  H    0.036641
    52  H    0.049367
    53  H    0.048456
    54  H    0.043930
    55  H    0.057364
    56  H    0.052610
    57  H    0.068270
    58  H    0.069368
    59  H    0.030891
    60  H    0.075419
    61  H    0.063990
    62  H    0.054816
    63  H    0.035892
    64  H    0.019941
    65  H    0.037845
    66  H    0.042228
    67  H    0.042230
    68  H    0.028942
    69  H    0.036388
    70  H    0.015404
    71  H    0.040184
    72  H    0.050251
    73  H    0.034117
    74  H    0.047819
    75  H    0.062822
    76  H    0.072082
    77  H    0.050740
    78  H    0.068835
    79  H    0.052572
 Sum of Mulliken charges =  -0.00000

 Dipole moment (field-independent basis, Debye):
    X=             -5.2104    Y=             -0.0906    Z=             -2.0597  Tot=              5.6034
 Quadrupole moment (field-independent basis, Debye-Ang):
   XX=           -286.6717   YY=           -251.3646   ZZ=           -248.8245
   XY=            -41.6840   XZ=             -8.1321   YZ=              1.7143

 Normal termination of Gaussian 16 at Mon Sep 20 07:58:04 2021.
