 Gaussian 16, Revision A.03,
 Gaussian 16:  ES64L-G16RevA.03 25-Dec-2016

 --------------------------------
 #p wB97XD/Def2SVP td=(nstates=5)
 --------------------------------

 --------------------------------
 TDDFT excited states in gaussian
 --------------------------------
 Symbolic Z-matrix:
 Charge =  0 Multiplicity = 1

                         Standard orientation:
 ---------------------------------------------------------------------
 Center     Atomic      Atomic             Coordinates (Angstroms)
 Number     Number       Type             X           Y           Z
 ---------------------------------------------------------------------
      1         12           0      -27.448329   -0.538412   -0.339251
      2          6           0      -25.675700    2.577380   -0.390175
      3          6           0      -29.422124    0.763976    2.170620
      4          6           0      -28.609177   -3.559561    0.108290
      5          6           0      -25.191597   -1.673167   -2.711997
      6          7           0      -27.353080    1.413588    0.989626
      7          6           0      -26.616039    2.514467    0.646183
      8          6           0      -27.143903    3.752527    1.419465
      9          6           0      -28.322864    3.164251    2.302241
     10          6           0      -28.402976    1.662772    1.842775
     11          6           0      -28.180468    3.247028    3.880235
     12          6           0      -27.630279    4.928296    0.530749
     13          6           0      -27.211577    6.304086    0.910154
     14          1           0      -26.691143    6.690283    2.347231
     15          7           0      -28.856219   -1.350849    0.992400
     16          6           0      -29.678742   -0.649509    1.873635
     17          6           0      -30.536682   -1.611730    2.591386
     18          6           0      -30.372001   -2.870043    1.894576
     19          6           0      -29.246028   -2.640891    0.959617
     20          6           0      -31.444312   -1.297275    3.741838
     21          6           0      -31.114201   -4.218895    2.044843
     22          8           0      -31.106074   -5.138658    1.199702
     23          6           0      -32.033808   -4.364984    3.189857
     24          7           0      -26.923399   -2.296257   -1.127661
     25          6           0      -27.549286   -3.447207   -0.701831
     26          6           0      -27.179216   -4.654831   -1.606888
     27          6           0      -26.347670   -3.924170   -2.752121
     28          6           0      -26.143139   -2.530568   -2.183818
     29          6           0      -26.414606   -5.875590   -0.950085
     30          6           0      -26.979633   -3.862719   -4.133675
     31          6           0      -26.244998   -4.649351   -5.239383
     32          7           0      -25.895689    0.302099   -1.501879
     33          6           0      -25.050723   -0.298593   -2.404841
     34          6           0      -24.039000    0.663014   -2.862010
     35          6           0      -24.306982    1.804887   -2.128058
     36          6           0      -25.434272    1.545606   -1.316955
     37          6           0      -22.917300    0.463656   -3.827076
     38          6           0      -23.860536    3.141079   -1.960781
     39          8           0      -22.994681    3.828939   -2.572881
     40          6           0      -24.683699    3.683390   -0.870336
     41          6           0      -23.804504    4.263686    0.204222
     42          8           0      -23.125273    3.639507    0.945625
     43          8           0      -23.954622    5.587331    0.247790
     44          6           0      -23.009490    6.375404    0.963451
     45          1           0      -30.083761    1.091915    2.975276
     46          1           0      -28.929238   -4.604422    0.114845
     47          1           0      -24.439328   -2.063298   -3.399539
     48          1           0      -26.311418    4.094049    2.035748
     49          1           0      -29.262398    3.647006    2.034996
     50          1           0      -27.344234    3.844225    4.242708
     51          1           0      -27.970263    2.234621    4.228189
     52          1           0      -29.116289    3.579948    4.330152
     53          1           0      -28.717366    5.003629    0.485659
     54          1           0      -27.289382    4.845787   -0.500878
     55          1           0      -28.060026    6.983360    0.822165
     56          1           0      -26.444771    6.614189    0.200803
     57          1           0      -31.209842   -1.956083    4.577675
     58          1           0      -32.456380   -1.512416    3.398991
     59          1           0      -31.473912   -0.227032    3.948901
     60          1           0      -31.437219   -4.295789    4.099523
     61          1           0      -32.406410   -5.387295    3.130155
     62          1           0      -32.900489   -3.709831    3.106202
     63          1           0      -28.123488   -4.995299   -2.032979
     64          1           0      -25.403050   -4.460365   -2.842617
     65          1           0      -26.254830   -5.690230    0.111486
     66          1           0      -25.504861   -6.149701   -1.485620
     67          1           0      -27.045649   -6.754926   -1.080119
     68          1           0      -27.247645   -2.873514   -4.505082
     69          1           0      -27.950243   -4.350974   -4.052954
     70          1           0      -26.127530   -4.154556   -6.203271
     71          1           0      -26.913604   -5.455909   -5.541464
     72          1           0      -25.251393   -5.010231   -4.977097
     73          1           0      -23.055544   -0.417199   -4.454695
     74          1           0      -22.004570    0.206116   -3.289964
     75          1           0      -22.762233    1.422866   -4.320855
     76          1           0      -25.287726    4.471537   -1.319097
     77          1           0      -22.104935    6.391582    0.353853
     78          1           0      -22.708699    5.880659    1.887071
     79          1           0      -23.353466    7.404711    1.068391
     80         12           0       26.555755   -0.664881    0.320348
     81          6           0       27.427901    2.213922   -1.318988
     82          6           0       25.725329    1.113099    3.031168
     83          6           0       25.973161   -3.597586    1.876940
     84          6           0       27.959717   -2.554201   -2.450687
     85          7           0       26.844718    1.461843    0.873003
     86          6           0       27.100526    2.469503    0.029947
     87          6           0       26.945147    3.891566    0.777801
     88          6           0       26.382345    3.406137    2.165819
     89          6           0       26.336584    1.867786    2.070045
     90          6           0       27.145622    3.975864    3.377335
     91          6           0       26.008228    4.889746    0.040147
     92          6           0       25.493308    6.140928    0.823930
     93          1           0       26.171209    7.529204    0.513396
     94          7           0       25.974307   -1.175474    2.232460
     95          6           0       25.584524   -0.326335    3.160363
     96          6           0       25.133029   -1.080532    4.319899
     97          6           0       25.286923   -2.479159    4.080251
     98          6           0       25.759343   -2.468211    2.678301
     99          6           0       24.725687   -0.483570    5.656820
    100          6           0       25.080892   -3.676427    5.002302
    101          8           0       25.538546   -4.779808    4.719229
    102          6           0       24.314013   -3.484467    6.263723
    103          7           0       26.963630   -2.781791   -0.205652
    104          6           0       26.582204   -3.776417    0.586844
    105          6           0       26.741123   -5.148033   -0.089853
    106          6           0       27.161211   -4.726114   -1.495419
    107          6           0       27.405547   -3.270000   -1.354834
    108          6           0       27.669767   -6.176279    0.573012
    109          6           0       26.253884   -5.232452   -2.588000
    110          6           0       26.899191   -6.221959   -3.622642
    111          7           0       27.431768   -0.301050   -1.490666
    112          6           0       27.882045   -1.143260   -2.562076
    113          6           0       28.277645   -0.359701   -3.711682
    114          6           0       28.078675    0.959448   -3.217459
    115          6           0       27.591302    0.927050   -1.904830
    116          6           0       28.630020   -0.753762   -5.102672
    117          6           0       28.049125    2.309705   -3.720300
    118          8           0       28.143796    2.814954   -4.848846
    119          6           0       27.767164    3.214650   -2.547086
    120          6           0       29.067824    3.966581   -2.188244
    121          8           0       30.218576    3.506185   -2.135027
    122          8           0       28.733448    5.261138   -1.922047
    123          6           0       29.840088    6.210213   -1.580653
    124          1           0       25.308185    1.578084    3.926856
    125          1           0       26.005313   -4.574789    2.363254
    126          1           0       28.235930   -3.187092   -3.295958
    127          1           0       27.970300    4.249467    0.865860
    128          1           0       25.341270    3.723562    2.224611
    129          1           0       26.396788    4.268749    4.112442
    130          1           0       27.701427    4.878095    3.121838
    131          1           0       27.824496    3.232083    3.794670
    132          1           0       25.083035    4.337655   -0.125040
    133          1           0       26.498546    5.266552   -0.857393
    134          1           0       25.754485    5.984685    1.871084
    135          1           0       24.429359    6.263337    0.624074
    136          1           0       24.777299    0.605032    5.638557
    137          1           0       25.392851   -0.847795    6.437679
    138          1           0       23.713406   -0.770980    5.938199
    139          1           0       23.404183   -2.962590    5.965831
    140          1           0       24.705043   -2.934051    7.118892
    141          1           0       24.046382   -4.425790    6.742495
    142          1           0       25.755047   -5.609407   -0.131357
    143          1           0       28.126261   -5.191606   -1.694872
    144          1           0       27.146927   -7.123543    0.443326
    145          1           0       27.876707   -5.897360    1.606099
    146          1           0       28.681341   -6.196144    0.167641
    147          1           0       26.024796   -4.336870   -3.164664
    148          1           0       25.357835   -5.729254   -2.217118
    149          1           0       27.953550   -6.370685   -3.388080
    150          1           0       26.834258   -5.749452   -4.603236
    151          1           0       26.377513   -7.170372   -3.751754
    152          1           0       28.427121   -1.813477   -5.255122
    153          1           0       29.714611   -0.666662   -5.156047
    154          1           0       28.020079   -0.108447   -5.736492
    155          1           0       26.993497    3.890082   -2.912723
    156          1           0       30.559029    5.840706   -0.849020
    157          1           0       29.504823    7.198359   -1.267322
    158          1           0       30.419977    6.316409   -2.497311
 ---------------------------------------------------------------------

 SCF Done:  E(RwB97XD) =  -4070.60631973     A.U. after   19 cycles

 Excitation energies and oscillator strengths:

 Excited State   1:      Singlet-A      1.6636 eV  745.28 nm  f=0.3962  <S**2>=0.000
     310 -> 315       -0.18170
     312 -> 314        0.68162
     310 <- 315       -0.11252
 This state for optimization and/or second-order correction.
 Total Energy, E(TD-HF/TD-DFT) =  -4070.54518355
 Copying the excited state density for this state as the 1-particle RhoCI density.

 Excited State   2:      Singlet-A      1.6708 eV  742.07 nm  f=0.4249  <S**2>=0.000
     309 -> 316       -0.18120
     311 -> 313        0.68455
     309 <- 316       -0.11414

 Excited State   3:      Singlet-A      2.1576 eV  574.65 nm  f=0.1255  <S**2>=0.000
     309 -> 313        0.64762
     311 -> 316        0.26950

 Excited State   4:      Singlet-A      2.2222 eV  557.93 nm  f=0.1096  <S**2>=0.000
     310 -> 314        0.63694
     312 -> 315        0.28923

 Excited State   5:      Singlet-A      3.3919 eV  365.53 nm  f=0.0151  <S**2>=0.000
     300 -> 313       -0.20166
     300 -> 317       -0.16010
     301 -> 313        0.44268
     301 -> 317        0.28875
     301 -> 319        0.13113
     303 -> 313       -0.24661
     308 -> 313        0.14409
     311 -> 316        0.13783

 The electronic state is 1-A.
 Alpha  occ. eigenvalues --  -46.95525 -46.95265 -19.30824 -19.30263 -19.24631
 Alpha  occ. eigenvalues --  -19.24568 -19.24382 -19.24207 -19.23532 -19.22729
 Alpha  occ. eigenvalues --  -14.46671 -14.46654 -14.46259 -14.46238 -14.44675
 Alpha  occ. eigenvalues --  -14.44353 -14.44121 -14.43870 -10.43399 -10.42931
 Alpha  occ. eigenvalues --  -10.40069 -10.38883 -10.38812 -10.37341 -10.35912
 Alpha  occ. eigenvalues --  -10.35794 -10.35713 -10.35272 -10.35094 -10.34992
 Alpha  occ. eigenvalues --  -10.34954 -10.34694 -10.34477 -10.34424 -10.34339
 Alpha  occ. eigenvalues --  -10.34137 -10.34017 -10.33970 -10.33676 -10.33490
 Alpha  occ. eigenvalues --  -10.33400 -10.33332 -10.33011 -10.32823 -10.32780
 Alpha  occ. eigenvalues --  -10.32725 -10.32566 -10.32424 -10.32378 -10.32324
 Alpha  occ. eigenvalues --  -10.32318 -10.32186 -10.32174 -10.32146 -10.32116
 Alpha  occ. eigenvalues --  -10.31796 -10.31654 -10.31624 -10.31580 -10.31567
 Alpha  occ. eigenvalues --  -10.31268 -10.31094 -10.31040 -10.30963 -10.30880
 Alpha  occ. eigenvalues --  -10.30807 -10.30737 -10.30713 -10.30704 -10.30599
 Alpha  occ. eigenvalues --  -10.30438 -10.30398 -10.30234 -10.30177 -10.30167
 Alpha  occ. eigenvalues --  -10.30108 -10.30029 -10.29774 -10.29753 -10.29531
 Alpha  occ. eigenvalues --  -10.29499 -10.29409 -10.29333 -10.29294 -10.29175
 Alpha  occ. eigenvalues --  -10.28421  -3.21492  -3.21286  -1.95072  -1.94857
 Alpha  occ. eigenvalues --   -1.94606  -1.94476  -1.94421  -1.94254  -1.20851
 Alpha  occ. eigenvalues --   -1.17713  -1.12606  -1.11952  -1.10470  -1.10398
 Alpha  occ. eigenvalues --   -1.10176  -1.08711  -1.07723  -1.06931  -1.06399
 Alpha  occ. eigenvalues --   -1.05896  -1.05825  -1.04974  -1.04529  -1.03790
 Alpha  occ. eigenvalues --   -0.95660  -0.93228  -0.91768  -0.91052  -0.90576
 Alpha  occ. eigenvalues --   -0.90427  -0.90262  -0.90091  -0.89759  -0.89489
 Alpha  occ. eigenvalues --   -0.89073  -0.88939  -0.88787  -0.88227  -0.86542
 Alpha  occ. eigenvalues --   -0.86097  -0.85418  -0.85211  -0.84536  -0.84276
 Alpha  occ. eigenvalues --   -0.84050  -0.83981  -0.83673  -0.83023  -0.82495
 Alpha  occ. eigenvalues --   -0.81993  -0.80485  -0.80266  -0.79686  -0.79464
 Alpha  occ. eigenvalues --   -0.79110  -0.78657  -0.78295  -0.78003  -0.77275
 Alpha  occ. eigenvalues --   -0.77138  -0.75212  -0.74620  -0.73653  -0.73491
 Alpha  occ. eigenvalues --   -0.71403  -0.71353  -0.71052  -0.70954  -0.69687
 Alpha  occ. eigenvalues --   -0.69567  -0.69455  -0.68228  -0.67869  -0.67763
 Alpha  occ. eigenvalues --   -0.66888  -0.66883  -0.66844  -0.66486  -0.66403
 Alpha  occ. eigenvalues --   -0.65893  -0.65053  -0.64609  -0.62721  -0.62332
 Alpha  occ. eigenvalues --   -0.61903  -0.61610  -0.61325  -0.61159  -0.60859
 Alpha  occ. eigenvalues --   -0.60607  -0.60211  -0.59970  -0.59755  -0.59357
 Alpha  occ. eigenvalues --   -0.58452  -0.58300  -0.58106  -0.57632  -0.57152
 Alpha  occ. eigenvalues --   -0.57069  -0.56916  -0.56454  -0.56051  -0.55722
 Alpha  occ. eigenvalues --   -0.55672  -0.55353  -0.55335  -0.55247  -0.54939
 Alpha  occ. eigenvalues --   -0.54728  -0.54688  -0.54471  -0.54373  -0.54104
 Alpha  occ. eigenvalues --   -0.53664  -0.53613  -0.53518  -0.53435  -0.53114
 Alpha  occ. eigenvalues --   -0.53054  -0.53036  -0.52636  -0.52440  -0.52047
 Alpha  occ. eigenvalues --   -0.51966  -0.51850  -0.51809  -0.51723  -0.51589
 Alpha  occ. eigenvalues --   -0.51281  -0.51264  -0.51026  -0.50984  -0.50871
 Alpha  occ. eigenvalues --   -0.50714  -0.50557  -0.50469  -0.50230  -0.50164
 Alpha  occ. eigenvalues --   -0.50115  -0.49746  -0.49635  -0.49608  -0.49356
 Alpha  occ. eigenvalues --   -0.49226  -0.48879  -0.48722  -0.48722  -0.48311
 Alpha  occ. eigenvalues --   -0.48186  -0.48090  -0.48062  -0.48003  -0.47868
 Alpha  occ. eigenvalues --   -0.47772  -0.47203  -0.46899  -0.46768  -0.46664
 Alpha  occ. eigenvalues --   -0.46520  -0.46441  -0.46424  -0.46316  -0.46052
 Alpha  occ. eigenvalues --   -0.45922  -0.45762  -0.45643  -0.45523  -0.45379
 Alpha  occ. eigenvalues --   -0.44919  -0.44829  -0.44704  -0.44606  -0.44536
 Alpha  occ. eigenvalues --   -0.44164  -0.44153  -0.43964  -0.43883  -0.43852
 Alpha  occ. eigenvalues --   -0.43746  -0.43567  -0.43440  -0.43423  -0.43151
 Alpha  occ. eigenvalues --   -0.43090  -0.42909  -0.42710  -0.42337  -0.42198
 Alpha  occ. eigenvalues --   -0.42013  -0.41588  -0.41176  -0.41046  -0.40977
 Alpha  occ. eigenvalues --   -0.40170  -0.40099  -0.39863  -0.39773  -0.39168
 Alpha  occ. eigenvalues --   -0.39114  -0.38672  -0.38589  -0.38271  -0.38196
 Alpha  occ. eigenvalues --   -0.37874  -0.37780  -0.36686  -0.36259  -0.36136
 Alpha  occ. eigenvalues --   -0.35982  -0.35559  -0.35177  -0.33914  -0.33737
 Alpha  occ. eigenvalues --   -0.33586  -0.33320  -0.32882  -0.32779  -0.32620
 Alpha  occ. eigenvalues --   -0.31943  -0.31805  -0.31609  -0.26063  -0.25827
 Alpha  occ. eigenvalues --   -0.23131  -0.22909
 Alpha virt. eigenvalues --   -0.07301  -0.06892   0.00163   0.00432   0.01832
 Alpha virt. eigenvalues --    0.02635   0.04105   0.04623   0.05081   0.05385
 Alpha virt. eigenvalues --    0.07489   0.07798   0.07839   0.08333   0.08464

 Mulliken charges:
               1
     1  Mg   0.968435
     2  C   -0.020753
     3  C   -0.037317
     4  C   -0.068979
     5  C   -0.100342
     6  N   -0.318669
     7  C   -0.004841
     8  C   -0.025575
     9  C   -0.108463
    10  C    0.038755
    11  C    0.011080
    12  C    0.006999
    13  C   -0.131907
    14  H    0.014325
    15  N   -0.445061
    16  C    0.109696
    17  C   -0.188589
    18  C   -0.082149
    19  C    0.150606
    20  C    0.091050
    21  C    0.056856
    22  O   -0.260099
    23  C   -0.010254
    24  N   -0.428966
    25  C    0.096459
    26  C   -0.123041
    27  C   -0.081934
    28  C    0.106334
    29  C    0.027991
    30  C    0.012440
    31  C   -0.064936
    32  N   -0.411499
    33  C    0.113959
    34  C   -0.170982
    35  C   -0.051497
    36  C    0.143816
    37  C    0.088558
    38  C    0.115020
    39  O   -0.251360
    40  C   -0.029036
    41  C    0.225688
    42  O   -0.205808
    43  O   -0.332387
    44  C    0.138715
    45  H   -0.013844
    46  H    0.020127
    47  H   -0.001529
    48  H    0.046108
    49  H    0.041927
    50  H    0.041055
    51  H    0.040358
    52  H    0.039993
    53  H    0.033349
    54  H    0.031289
    55  H    0.045775
    56  H    0.057651
    57  H    0.058210
    58  H    0.041347
    59  H    0.035360
    60  H    0.054158
    61  H    0.046941
    62  H    0.066256
    63  H    0.046354
    64  H    0.023297
    65  H    0.051612
    66  H    0.034829
    67  H    0.038272
    68  H    0.040943
    69  H    0.022563
    70  H    0.029655
    71  H    0.032300
    72  H    0.037084
    73  H    0.030956
    74  H    0.058207
    75  H    0.072579
    76  H    0.069302
    77  H    0.047654
    78  H    0.056355
    79  H    0.061168
    80  Mg   0.970281
    81  C   -0.074902
    82  C   -0.078749
    83  C   -0.049449
    84  C   -0.066298
    85  N   -0.355527
    86  C   -0.026068
    87  C   -0.008918
    88  C   -0.153553
    89  C    0.119918
    90  C    0.024378
    91  C   -0.009677
    92  C   -0.131327
    93  H    0.015031
    94  N   -0.438294
    95  C    0.116678
    96  C   -0.187017
    97  C   -0.059091
    98  C    0.130882
    99  C    0.069607
   100  C    0.087665
   101  O   -0.227313
   102  C   -0.033281
   103  N   -0.274172
   104  C   -0.007245
   105  C   -0.114730
   106  C   -0.055430
   107  C    0.009633
   108  C    0.036087
   109  C    0.000427
   110  C   -0.068108
   111  N   -0.456707
   112  C    0.123418
   113  C   -0.170417
   114  C   -0.076935
   115  C    0.205927
   116  C    0.109147
   117  C    0.102660
   118  O   -0.239423
   119  C   -0.055441
   120  C    0.293590
   121  O   -0.266034
   122  O   -0.365215
   123  C    0.138575
   124  H   -0.019852
   125  H    0.029520
   126  H    0.004078
   127  H    0.040453
   128  H    0.037117
   129  H    0.034014
   130  H    0.041459
   131  H    0.049645
   132  H    0.031951
   133  H    0.073456
   134  H    0.048319
   135  H    0.065661
   136  H    0.031753
   137  H    0.051464
   138  H    0.041228
   139  H    0.048781
   140  H    0.063179
   141  H    0.052461
   142  H    0.038873
   143  H    0.021326
   144  H    0.046527
   145  H    0.044282
   146  H    0.029766
   147  H    0.030507
   148  H    0.036932
   149  H    0.033083
   150  H    0.033432
   151  H    0.041973
   152  H    0.019320
   153  H    0.065410
   154  H    0.081089
   155  H    0.069614
   156  H    0.058557
   157  H    0.063569
   158  H    0.056472
 Sum of Mulliken charges =  -0.00000

 Dipole moment (field-independent basis, Debye):
    X=             -6.0493    Y=              0.5923    Z=              4.1705  Tot=              7.3714
 Quadrupole moment (field-independent basis, Debye-Ang):
   XX=           -563.2203   YY=           -487.5608   ZZ=           -497.4608
   XY=            -54.8281   XZ=             85.4430   YZ=             51.5815

 Normal termination of Gaussian 16 at Mon Sep 20 09:44:12 2021.
