 Gaussian 16, Revision A.03,
 Gaussian 16:  ES64L-G16RevA.03 25-Dec-2016

 --------------------------------
 #p wB97XD/Def2SVP td=(nstates=5)
 --------------------------------

 --------------------------------
 TDDFT excited states in gaussian
 --------------------------------
 Symbolic Z-matrix:
 Charge =  0 Multiplicity = 1

                         Standard orientation:
 ---------------------------------------------------------------------
 Center     Atomic      Atomic             Coordinates (Angstroms)
 Number     Number       Type             X           Y           Z
 ---------------------------------------------------------------------
      1         12           0       -9.482626   -0.972824    0.508231
      2          6           0       -9.979903    2.502664   -0.079792
      3          6           0       -7.548096   -0.148687    3.228704
      4          6           0       -9.080386   -4.233764    0.859443
      5          6           0      -11.093058   -1.671103   -2.628366
      6          7           0       -8.752235    1.017335    1.467734
      7          6           0       -9.205929    2.260856    1.067571
      8          6           0       -8.606922    3.290333    2.086117
      9          6           0       -7.761972    2.422803    3.163355
     10          6           0       -8.021253    1.029358    2.581656
     11          6           0       -6.285301    2.827516    3.353444
     12          6           0       -9.605266    4.350245    2.711164
     13          6           0       -9.257633    5.790878    2.472462
     14          1           0       -7.851058    6.287348    2.265420
     15          7           0       -8.514586   -2.095369    1.996611
     16          6           0       -7.778360   -1.559751    3.006007
     17          6           0       -7.431204   -2.660935    3.867069
     18          6           0       -7.764309   -3.840111    3.166207
     19          6           0       -8.479098   -3.460665    1.904289
     20          6           0       -6.668809   -2.402445    5.177564
     21          6           0       -7.367531   -5.242486    3.515617
     22          8           0       -7.620416   -6.205274    2.753162
     23          6           0       -6.607102   -5.493587    4.764672
     24          7           0       -9.989860   -2.691939   -0.805357
     25          6           0       -9.783390   -3.889679   -0.380595
     26          6           0      -10.338450   -5.102148   -1.302005
     27          6           0      -10.961079   -4.255593   -2.422643
     28          6           0      -10.693377   -2.841446   -1.968876
     29          6           0       -9.140709   -6.022773   -1.739049
     30          6           0      -12.481964   -4.492125   -2.727993
     31          6           0      -13.489012   -3.958299   -1.681757
     32          7           0      -10.216927    0.139566   -1.042378
     33          6           0      -10.809643   -0.306800   -2.246979
     34          6           0      -11.308468    0.873445   -2.965952
     35          6           0      -11.011930    1.990518   -2.148595
     36          6           0      -10.381313    1.488084   -0.960489
     37          6           0      -12.053053    0.850573   -4.334410
     38          6           0      -11.157306    3.347924   -2.095213
     39          8           0      -11.606160    4.153189   -2.885320
     40          6           0      -10.559567    3.793209   -0.731356
     41          6           0       -9.575946    4.822330   -0.977375
     42          8           0       -8.381402    4.613882   -1.217768
     43          8           0      -10.215521    6.057361   -1.137034
     44          6           0       -9.321602    7.155084   -1.582003
     45          1           0       -6.730221   -0.026716    3.942443
     46          1           0       -8.798363   -5.287778    0.905689
     47          1           0      -11.593280   -1.827521   -3.586317
     48          1           0       -8.022593    3.878674    1.379827
     49          1           0       -8.190260    2.580060    4.152276
     50          1           0       -6.077899    3.047152    4.401530
     51          1           0       -5.921476    3.657348    2.747784
     52          1           0       -5.731883    1.940601    3.044871
     53          1           0       -9.702683    4.183262    3.784063
     54          1           0      -10.555589    4.180162    2.205080
     55          1           0       -9.405802    6.302100    3.424336
     56          1           0       -9.895152    6.157697    1.668806
     57          1           0       -6.725710   -1.358528    5.486802
     58          1           0       -5.624419   -2.687069    5.056357
     59          1           0       -7.163892   -3.041264    5.908230
     60          1           0       -7.214622   -5.112717    5.585645
     61          1           0       -5.668930   -4.937506    4.778092
     62          1           0       -6.343944   -6.547196    4.849153
     63          1           0      -11.102433   -5.679353   -0.780589
     64          1           0      -10.339498   -4.321537   -3.315903
     65          1           0       -8.246446   -5.401633   -1.789068
     66          1           0       -9.343567   -6.385908   -2.747179
     67          1           0       -8.907701   -6.888753   -1.118927
     68          1           0      -12.644625   -5.532684   -3.007061
     69          1           0      -12.701021   -4.006046   -3.678185
     70          1           0      -13.164198   -3.960224   -0.641818
     71          1           0      -14.433384   -4.485246   -1.822721
     72          1           0      -13.695661   -2.933854   -1.991060
     73          1           0      -12.976982    1.428964   -4.329460
     74          1           0      -12.258284   -0.156088   -4.696824
     75          1           0      -11.514705    1.484373   -5.039543
     76          1           0      -11.437616    4.203958   -0.234028
     77          1           0       -9.000581    6.994528   -2.610894
     78          1           0       -8.398387    7.245055   -1.010719
     79          1           0       -9.837304    8.085036   -1.341923
     80         12           0        9.723872   -0.575723   -0.161592
     81          6           0        7.886063    2.448186   -0.232106
     82          6           0       12.415502    1.195582    0.841836
     83          6           0       11.409075   -3.381252   -0.247637
     84          6           0        6.987841   -2.087271   -1.921480
     85          7           0       10.169505    1.636200    0.174128
     86          6           0        9.176837    2.590882    0.318928
     87          6           0        9.803750    3.768058    0.984549
     88          6           0       11.307818    3.566568    0.797467
     89          6           0       11.356164    2.029164    0.612668
     90          6           0       11.816235    4.297604   -0.501304
     91          6           0        9.423461    4.014827    2.542455
     92          6           0        9.125579    5.453444    3.065432
     93          1           0       10.157748    6.559268    2.700410
     94          7           0       11.687213   -0.996703    0.244755
     95          6           0       12.589810   -0.151168    0.646583
     96          6           0       13.865610   -0.873077    0.793118
     97          6           0       13.576245   -2.267716    0.693145
     98          6           0       12.174730   -2.273550    0.185828
     99          6           0       15.299679   -0.288968    1.064541
    100          6           0       14.424941   -3.505736    0.981044
    101          8           0       14.069067   -4.673339    0.731618
    102          6           0       15.810960   -3.315209    1.379929
    103          7           0        9.278772   -2.462439   -1.160501
    104          6           0       10.142493   -3.529065   -0.925819
    105          6           0        9.449949   -4.861903   -1.407663
    106          6           0        8.020369   -4.402310   -1.787990
    107          6           0        8.067067   -2.887246   -1.577507
    108          6           0       10.256430   -5.602466   -2.474776
    109          6           0        6.854312   -5.142725   -1.085910
    110          6           0        5.599095   -5.471596   -1.927356
    111          7           0        7.831608    0.004037   -0.949973
    112          6           0        6.863321   -0.685331   -1.673083
    113          6           0        5.705952    0.161519   -1.812014
    114          6           0        6.085756    1.409054   -1.314672
    115          6           0        7.396045    1.291376   -0.774377
    116          6           0        4.449256   -0.199192   -2.322773
    117          6           0        5.642029    2.782648   -1.034771
    118          8           0        4.583211    3.364235   -1.210961
    119          6           0        6.809795    3.505690   -0.287165
    120          6           0        7.159060    4.746465   -1.089494
    121          8           0        7.862735    4.942835   -2.054318
    122          8           0        6.535660    5.725836   -0.371603
    123          6           0        6.920117    7.131399   -0.643759
    124          1           0       13.269761    1.739836    1.250799
    125          1           0       11.934616   -4.321057   -0.066258
    126          1           0        6.070651   -2.580493   -2.248630
    127          1           0        9.559948    4.742797    0.561271
    128          1           0       11.874977    3.760717    1.707491
    129          1           0       12.836816    4.671556   -0.426887
    130          1           0       11.270259    5.215662   -0.719892
    131          1           0       11.794992    3.533456   -1.277549
    132          1           0       10.158596    3.518077    3.174778
    133          1           0        8.533058    3.437824    2.794904
    134          1           0        9.212107    5.325441    4.145037
    135          1           0        8.124659    5.626389    2.669950
    136          1           0       15.716059   -0.510768    2.046895
    137          1           0       15.228532    0.792063    0.941254
    138          1           0       16.093735   -0.697658    0.439546
    139          1           0       15.879787   -2.661904    2.250131
    140          1           0       16.395376   -2.895066    0.561272
    141          1           0       16.159695   -4.271186    1.769336
    142          1           0        9.312682   -5.466894   -0.511298
    143          1           0        7.883375   -4.432673   -2.868747
    144          1           0        9.957029   -5.243529   -3.460023
    145          1           0       10.068038   -6.674507   -2.522950
    146          1           0       11.291816   -5.265997   -2.432622
    147          1           0        6.531713   -4.679852   -0.153419
    148          1           0        7.188468   -6.098843   -0.680836
    149          1           0        4.901622   -4.669375   -1.685931
    150          1           0        5.212521   -6.395607   -1.496198
    151          1           0        5.854206   -5.505618   -2.986181
    152          1           0        3.780816    0.565498   -2.717778
    153          1           0        3.953865   -0.783924   -1.547035
    154          1           0        4.661575   -0.833354   -3.182746
    155          1           0        6.500965    3.764142    0.725548
    156          1           0        7.011602    7.585639    0.342432
    157          1           0        6.204070    7.725843   -1.210655
    158          1           0        7.893204    7.162694   -1.133181
 ---------------------------------------------------------------------

 SCF Done:  E(RwB97XD) =  -4070.60252541     A.U. after   19 cycles

 Excitation energies and oscillator strengths:

 Excited State   1:      Singlet-A      1.6741 eV  740.58 nm  f=0.3968  <S**2>=0.000
     309 -> 315        0.19694
     312 -> 314        0.67914
     309 <- 315        0.11756
 This state for optimization and/or second-order correction.
 Total Energy, E(TD-HF/TD-DFT) =  -4070.54100169
 Copying the excited state density for this state as the 1-particle RhoCI density.

 Excited State   2:      Singlet-A      1.7162 eV  722.42 nm  f=0.3603  <S**2>=0.000
     310 -> 316        0.19150
     311 -> 313        0.67986
     310 <- 316        0.11537

 Excited State   3:      Singlet-A      2.1582 eV  574.48 nm  f=0.1011  <S**2>=0.000
     310 -> 313        0.63951
     311 -> 316       -0.28234

 Excited State   4:      Singlet-A      2.2067 eV  561.84 nm  f=0.0683  <S**2>=0.000
     309 -> 314        0.62015
     312 -> 315       -0.32404

 Excited State   5:      Singlet-A      3.5753 eV  346.78 nm  f=0.0000  <S**2>=0.000
     312 -> 313        0.70695

 The electronic state is 1-A.
 Alpha  occ. eigenvalues --  -46.96069 -46.95699 -19.29578 -19.29317 -19.24945
 Alpha  occ. eigenvalues --  -19.24296 -19.24049 -19.23828 -19.23700 -19.22406
 Alpha  occ. eigenvalues --  -14.47188 -14.46372 -14.46354 -14.45993 -14.44418
 Alpha  occ. eigenvalues --  -14.44303 -14.44153 -14.43538 -10.43061 -10.42282
 Alpha  occ. eigenvalues --  -10.39487 -10.39042 -10.38805 -10.37113 -10.35912
 Alpha  occ. eigenvalues --  -10.35761 -10.35720 -10.35513 -10.35172 -10.35017
 Alpha  occ. eigenvalues --  -10.34973 -10.34823 -10.34806 -10.34362 -10.34315
 Alpha  occ. eigenvalues --  -10.34078 -10.34030 -10.33976 -10.33843 -10.33721
 Alpha  occ. eigenvalues --  -10.33637 -10.33548 -10.33536 -10.32823 -10.32632
 Alpha  occ. eigenvalues --  -10.32334 -10.32186 -10.32113 -10.32063 -10.32030
 Alpha  occ. eigenvalues --  -10.31979 -10.31945 -10.31917 -10.31913 -10.31819
 Alpha  occ. eigenvalues --  -10.31797 -10.31632 -10.31609 -10.31581 -10.31577
 Alpha  occ. eigenvalues --  -10.31569 -10.31366 -10.31352 -10.31336 -10.31304
 Alpha  occ. eigenvalues --  -10.31234 -10.31112 -10.31094 -10.31077 -10.30754
 Alpha  occ. eigenvalues --  -10.30554 -10.30412 -10.30294 -10.30233 -10.30216
 Alpha  occ. eigenvalues --  -10.30162 -10.29917 -10.29745 -10.29718 -10.29620
 Alpha  occ. eigenvalues --  -10.29615 -10.29549 -10.29456 -10.29048 -10.28818
 Alpha  occ. eigenvalues --  -10.27747  -3.21874  -3.21544  -1.95473  -1.95126
 Alpha  occ. eigenvalues --   -1.95028  -1.94794  -1.94664  -1.94502  -1.18261
 Alpha  occ. eigenvalues --   -1.16327  -1.11797  -1.11575  -1.11310  -1.10684
 Alpha  occ. eigenvalues --   -1.09939  -1.08326  -1.08051  -1.07174  -1.05934
 Alpha  occ. eigenvalues --   -1.05693  -1.05035  -1.04985  -1.04077  -1.03590
 Alpha  occ. eigenvalues --   -0.94728  -0.94126  -0.91531  -0.90752  -0.90355
 Alpha  occ. eigenvalues --   -0.90201  -0.89863  -0.89563  -0.89467  -0.89155
 Alpha  occ. eigenvalues --   -0.89063  -0.88793  -0.88624  -0.87325  -0.86131
 Alpha  occ. eigenvalues --   -0.86126  -0.85466  -0.85150  -0.84604  -0.84399
 Alpha  occ. eigenvalues --   -0.84344  -0.84138  -0.83428  -0.82551  -0.82511
 Alpha  occ. eigenvalues --   -0.81944  -0.80332  -0.80263  -0.79396  -0.79356
 Alpha  occ. eigenvalues --   -0.78936  -0.78246  -0.77767  -0.77505  -0.77034
 Alpha  occ. eigenvalues --   -0.76853  -0.74476  -0.74412  -0.73774  -0.73451
 Alpha  occ. eigenvalues --   -0.72289  -0.70940  -0.70850  -0.70653  -0.69719
 Alpha  occ. eigenvalues --   -0.69680  -0.69321  -0.68851  -0.67412  -0.67271
 Alpha  occ. eigenvalues --   -0.67176  -0.66959  -0.66800  -0.66487  -0.66309
 Alpha  occ. eigenvalues --   -0.66122  -0.63916  -0.63276  -0.62474  -0.62202
 Alpha  occ. eigenvalues --   -0.61544  -0.61398  -0.61214  -0.60523  -0.60275
 Alpha  occ. eigenvalues --   -0.60002  -0.59872  -0.59777  -0.59479  -0.59428
 Alpha  occ. eigenvalues --   -0.58146  -0.58143  -0.57906  -0.57841  -0.57115
 Alpha  occ. eigenvalues --   -0.57114  -0.56821  -0.56379  -0.55623  -0.55495
 Alpha  occ. eigenvalues --   -0.55376  -0.55172  -0.55162  -0.55129  -0.54865
 Alpha  occ. eigenvalues --   -0.54837  -0.54693  -0.54396  -0.54321  -0.54022
 Alpha  occ. eigenvalues --   -0.53891  -0.53582  -0.53484  -0.53383  -0.53136
 Alpha  occ. eigenvalues --   -0.53125  -0.52704  -0.52631  -0.52388  -0.52325
 Alpha  occ. eigenvalues --   -0.51879  -0.51663  -0.51584  -0.51405  -0.51313
 Alpha  occ. eigenvalues --   -0.51117  -0.51048  -0.50917  -0.50897  -0.50723
 Alpha  occ. eigenvalues --   -0.50682  -0.50423  -0.50081  -0.49887  -0.49794
 Alpha  occ. eigenvalues --   -0.49555  -0.49321  -0.49298  -0.49124  -0.49015
 Alpha  occ. eigenvalues --   -0.48844  -0.48576  -0.48558  -0.48446  -0.48358
 Alpha  occ. eigenvalues --   -0.48173  -0.48019  -0.47839  -0.47657  -0.47446
 Alpha  occ. eigenvalues --   -0.47339  -0.46947  -0.46798  -0.46736  -0.46584
 Alpha  occ. eigenvalues --   -0.46390  -0.46288  -0.46028  -0.45989  -0.45752
 Alpha  occ. eigenvalues --   -0.45659  -0.45606  -0.45575  -0.45321  -0.45046
 Alpha  occ. eigenvalues --   -0.44930  -0.44868  -0.44672  -0.44573  -0.44300
 Alpha  occ. eigenvalues --   -0.44218  -0.44178  -0.44076  -0.43911  -0.43685
 Alpha  occ. eigenvalues --   -0.43620  -0.43485  -0.43480  -0.43314  -0.43195
 Alpha  occ. eigenvalues --   -0.43077  -0.42942  -0.42783  -0.42426  -0.42395
 Alpha  occ. eigenvalues --   -0.42109  -0.41918  -0.41759  -0.41580  -0.41468
 Alpha  occ. eigenvalues --   -0.40929  -0.40657  -0.39684  -0.39313  -0.38803
 Alpha  occ. eigenvalues --   -0.38567  -0.38565  -0.38444  -0.38349  -0.37909
 Alpha  occ. eigenvalues --   -0.37825  -0.37341  -0.36624  -0.35900  -0.35815
 Alpha  occ. eigenvalues --   -0.35433  -0.35297  -0.35221  -0.33675  -0.33460
 Alpha  occ. eigenvalues --   -0.33351  -0.33138  -0.32718  -0.32435  -0.32406
 Alpha  occ. eigenvalues --   -0.31839  -0.31569  -0.31401  -0.25876  -0.25653
 Alpha  occ. eigenvalues --   -0.22980  -0.22760
 Alpha virt. eigenvalues --   -0.06806  -0.06606  -0.00133   0.00215   0.01940
 Alpha virt. eigenvalues --    0.02277   0.04303   0.04514   0.05018   0.05769
 Alpha virt. eigenvalues --    0.07344   0.07853   0.08067   0.08207   0.08316

 Mulliken charges:
               1
     1  Mg   0.949424
     2  C    0.012816
     3  C   -0.090441
     4  C   -0.048432
     5  C   -0.087892
     6  N   -0.314548
     7  C   -0.012993
     8  C   -0.056123
     9  C   -0.105235
    10  C    0.077947
    11  C    0.018350
    12  C    0.000235
    13  C   -0.139945
    14  H    0.032370
    15  N   -0.486356
    16  C    0.140151
    17  C   -0.180443
    18  C   -0.072370
    19  C    0.161096
    20  C    0.072907
    21  C    0.036347
    22  O   -0.262128
    23  C    0.006514
    24  N   -0.272013
    25  C    0.015733
    26  C   -0.109986
    27  C    0.029185
    28  C   -0.040042
    29  C   -0.003592
    30  C   -0.032778
    31  C   -0.036083
    32  N   -0.476774
    33  C    0.148640
    34  C   -0.175882
    35  C    0.006900
    36  C    0.138893
    37  C    0.087087
    38  C    0.031690
    39  O   -0.201338
    40  C   -0.063294
    41  C    0.267064
    42  O   -0.262697
    43  O   -0.379225
    44  C    0.149883
    45  H    0.007966
    46  H    0.028748
    47  H   -0.009135
    48  H    0.057830
    49  H    0.044664
    50  H    0.034798
    51  H    0.052622
    52  H    0.033832
    53  H    0.031383
    54  H    0.036083
    55  H    0.048255
    56  H    0.062237
    57  H    0.047893
    58  H    0.064025
    59  H    0.046057
    60  H    0.050903
    61  H    0.050231
    62  H    0.058151
    63  H    0.052201
    64  H    0.036486
    65  H    0.045612
    66  H    0.036921
    67  H    0.063800
    68  H    0.030737
    69  H    0.025091
    70  H    0.049776
    71  H    0.041066
    72  H    0.038695
    73  H    0.043662
    74  H    0.031440
    75  H    0.051389
    76  H    0.073410
    77  H    0.064920
    78  H    0.042119
    79  H    0.053513
    80  Mg   0.941965
    81  C   -0.052054
    82  C   -0.101234
    83  C   -0.067729
    84  C   -0.090759
    85  N   -0.320399
    86  C    0.052346
    87  C   -0.094537
    88  C   -0.080709
    89  C   -0.005971
    90  C    0.041941
    91  C   -0.020767
    92  C   -0.113955
    93  H    0.029733
    94  N   -0.427877
    95  C    0.194863
    96  C   -0.167354
    97  C   -0.071136
    98  C    0.113705
    99  C    0.058735
   100  C    0.066904
   101  O   -0.250818
   102  C   -0.004252
   103  N   -0.356406
   104  C    0.033160
   105  C   -0.062088
   106  C   -0.056348
   107  C    0.068561
   108  C    0.048378
   109  C   -0.039072
   110  C   -0.040835
   111  N   -0.439510
   112  C    0.135220
   113  C   -0.196731
   114  C   -0.015596
   115  C    0.167535
   116  C    0.061122
   117  C    0.109507
   118  O   -0.199119
   119  C   -0.077163
   120  C    0.279678
   121  O   -0.226349
   122  O   -0.373910
   123  C    0.131589
   124  H   -0.012543
   125  H    0.026106
   126  H   -0.012638
   127  H    0.024606
   128  H    0.019960
   129  H    0.029330
   130  H    0.045977
   131  H    0.057520
   132  H    0.021461
   133  H    0.024289
   134  H    0.064965
   135  H    0.071847
   136  H    0.043551
   137  H    0.041014
   138  H    0.041493
   139  H    0.037650
   140  H    0.075252
   141  H    0.054513
   142  H    0.039048
   143  H    0.033497
   144  H    0.016065
   145  H    0.046658
   146  H    0.047930
   147  H    0.025032
   148  H    0.022859
   149  H    0.043319
   150  H    0.039789
   151  H    0.045625
   152  H    0.060723
   153  H    0.054022
   154  H    0.038179
   155  H    0.081117
   156  H    0.047307
   157  H    0.064107
   158  H    0.058110
 Sum of Mulliken charges =  -0.00000

 Dipole moment (field-independent basis, Debye):
    X=              2.9582    Y=             -2.5690    Z=              7.7102  Tot=              8.6486
 Quadrupole moment (field-independent basis, Debye-Ang):
   XX=           -459.3474   YY=           -506.1799   ZZ=           -487.3619
   XY=             57.4869   XZ=              7.9837   YZ=             42.7672

 Normal termination of Gaussian 16 at Sun Sep 19 04:42:05 2021.
