 Gaussian 16, Revision A.03,
 Gaussian 16:  ES64L-G16RevA.03 25-Dec-2016

 --------------------------------
 #p wB97XD/Def2SVP td=(nstates=5)
 --------------------------------

 --------------------------------
 TDDFT excited states in gaussian
 --------------------------------
 Symbolic Z-matrix:
 Charge =  0 Multiplicity = 1

                         Standard orientation:
 ---------------------------------------------------------------------
 Center     Atomic      Atomic             Coordinates (Angstroms)
 Number     Number       Type             X           Y           Z
 ---------------------------------------------------------------------
      1         12           0       28.228591    0.563058    0.121092
      2          6           0       24.754984   -0.092405   -0.863813
      3          6           0       26.926714    1.056029    3.289969
      4          6           0       31.188001    0.093871    1.212709
      5          6           0       29.081662   -0.469518   -3.213249
      6          7           0       25.987881    0.331054    1.111125
      7          6           0       24.764922    0.077436    0.529480
      8          6           0       23.664478   -0.011795    1.649227
      9          6           0       24.321218    0.623503    2.887086
     10          6           0       25.824049    0.676806    2.415355
     11          6           0       23.854610    2.071045    3.334058
     12          6           0       23.109381   -1.460058    1.873472
     13          6           0       21.623378   -1.577825    2.135653
     14          1           0       21.187719   -1.800593    3.617927
     15          7           0       28.986667    0.690752    1.944913
     16          6           0       28.349832    1.003569    3.115003
     17          6           0       29.332148    1.028510    4.233138
     18          6           0       30.573395    0.720480    3.617764
     19          6           0       30.273698    0.444855    2.214855
     20          6           0       29.035370    1.251400    5.725103
     21          6           0       31.925922    0.449446    4.282851
     22          8           0       31.997225    0.614802    5.497627
     23          6           0       33.096492    0.057686    3.602057
     24          7           0       29.864352   -0.370190   -0.854740
     25          6           0       31.051051   -0.167799   -0.178507
     26          6           0       32.236822   -0.532578   -1.153286
     27          6           0       31.506917   -1.007021   -2.460792
     28          6           0       30.073944   -0.489524   -2.189333
     29          6           0       33.276228    0.594904   -1.401158
     30          6           0       31.557701   -2.538982   -2.851743
     31          6           0       32.829325   -3.068988   -3.536817
     32          7           0       27.219211   -0.102103   -1.735958
     33          6           0       27.707018   -0.346915   -3.004062
     34          6           0       26.645026   -0.502268   -3.968349
     35          6           0       25.450311   -0.392216   -3.162789
     36          6           0       25.796783   -0.202549   -1.779453
     37          6           0       26.862787   -0.804837   -5.418869
     38          6           0       24.060413   -0.487916   -3.220508
     39          8           0       23.315959   -0.848606   -4.122091
     40          6           0       23.542760   -0.433666   -1.753945
     41          6           0       22.548895    0.704282   -1.745110
     42          8           0       21.415703    0.612938   -1.266441
     43          8           0       23.064250    1.987273   -2.191606
     44          6           0       22.188330    3.098676   -1.824083
     45          1           0       26.537967    1.288384    4.283122
     46          1           0       32.263183    0.078397    1.402943
     47          1           0       29.496655   -0.684933   -4.199990
     48          1           0       22.876741    0.705789    1.415380
     49          1           0       24.313916   -0.052820    3.741852
     50          1           0       23.255145    1.901100    4.228159
     51          1           0       23.195724    2.519444    2.591044
     52          1           0       24.652903    2.797384    3.486222
     53          1           0       23.487764   -1.959110    2.765956
     54          1           0       23.294939   -2.076971    0.993954
     55          1           0       21.242545   -2.342510    1.458633
     56          1           0       21.162712   -0.635962    1.835991
     57          1           0       29.813787    1.874056    6.166888
     58          1           0       28.979075    0.241893    6.132155
     59          1           0       28.106017    1.802877    5.860856
     60          1           0       33.409770    0.886884    2.966915
     61          1           0       33.018901   -0.886047    3.062107
     62          1           0       33.751657   -0.173537    4.442634
     63          1           0       32.837767   -1.376354   -0.815816
     64          1           0       31.832468   -0.432403   -3.327594
     65          1           0       33.279672    0.745229   -2.480826
     66          1           0       34.251214    0.238554   -1.070180
     67          1           0       32.888834    1.429284   -0.815209
     68          1           0       30.712740   -2.651390   -3.531869
     69          1           0       31.484161   -3.170094   -1.965841
     70          1           0       33.393892   -2.143455   -3.653338
     71          1           0       32.620717   -3.400493   -4.555015
     72          1           0       33.411658   -3.814374   -2.995705
     73          1           0       27.446932   -1.724022   -5.434720
     74          1           0       27.501631   -0.080095   -5.923256
     75          1           0       25.944735   -1.081214   -5.937558
     76          1           0       23.001611   -1.362904   -1.576737
     77          1           0       22.973568    3.855597   -1.821077
     78          1           0       21.609013    2.886931   -0.925412
     79          1           0       21.568173    3.299197   -2.697839
     80         12           0      -27.388565   -0.898147    0.190588
     81          6           0      -28.360407    2.632842    0.032355
     82          6           0      -24.442461    0.058406   -1.446914
     83          6           0      -26.608300   -4.055803   -0.028451
     84          6           0      -30.255968   -1.572041    1.947231
     85          7           0      -26.609218    1.046906   -0.785625
     86          6           0      -27.099510    2.410199   -0.624540
     87          6           0      -26.219523    3.474261   -1.314910
     88          6           0      -25.069730    2.494925   -1.946873
     89          6           0      -25.361516    1.086634   -1.392672
     90          6           0      -24.997579    2.534122   -3.460996
     91          6           0      -25.758940    4.554833   -0.290336
     92          6           0      -24.667866    5.466643   -0.765358
     93          1           0      -24.761579    6.952520   -0.498791
     94          7           0      -25.747102   -1.912896   -0.650348
     95          6           0      -24.625862   -1.354561   -1.274581
     96          6           0      -23.693645   -2.415263   -1.652163
     97          6           0      -24.312658   -3.663542   -1.233169
     98          6           0      -25.625525   -3.278792   -0.594851
     99          6           0      -22.274377   -2.183854   -2.289042
    100          6           0      -23.881557   -5.077074   -1.391504
    101          8           0      -24.488332   -6.048285   -0.959853
    102          6           0      -22.580006   -5.386326   -2.006889
    103          7           0      -28.224136   -2.520783    0.919898
    104          6           0      -27.800077   -3.746150    0.605338
    105          6           0      -28.671538   -4.859378    1.232715
    106          6           0      -29.524728   -4.053795    2.190392
    107          6           0      -29.389980   -2.589654    1.617889
    108          6           0      -29.492468   -5.631726    0.206517
    109          6           0      -29.305231   -4.054022    3.681111
    110          6           0      -27.967990   -3.491837    4.113846
    111          7           0      -29.039745    0.224374    0.783296
    112          6           0      -30.102891   -0.200520    1.600388
    113          6           0      -30.983009    0.916817    1.838729
    114          6           0      -30.254157    2.004095    1.291771
    115          6           0      -29.088523    1.548512    0.646802
    116          6           0      -32.240196    0.961908    2.657261
    117          6           0      -30.317172    3.495138    1.192118
    118          8           0      -31.103691    4.317422    1.708623
    119          6           0      -29.110789    3.903670    0.349701
    120          6           0      -29.569901    4.715440   -0.863377
    121          8           0      -30.289012    4.377018   -1.849393
    122          8           0      -28.927953    5.916831   -0.800732
    123          6           0      -29.168954    6.834151   -1.937526
    124          1           0      -23.451665    0.383911   -1.767655
    125          1           0      -26.398938   -5.121006   -0.146213
    126          1           0      -31.198891   -1.716354    2.478978
    127          1           0      -26.885677    3.981697   -2.012593
    128          1           0      -24.111117    2.738240   -1.488614
    129          1           0      -23.992918    2.843061   -3.751056
    130          1           0      -25.712478    3.291217   -3.781257
    131          1           0      -25.423853    1.693613   -4.008232
    132          1           0      -25.554449    4.011086    0.632609
    133          1           0      -26.616715    5.178367   -0.037988
    134          1           0      -24.481981    5.498946   -1.838659
    135          1           0      -23.742533    5.215501   -0.247708
    136          1           0      -21.574921   -2.582682   -1.553763
    137          1           0      -22.040708   -1.132957   -2.458997
    138          1           0      -22.265548   -2.749935   -3.220565
    139          1           0      -22.364909   -4.801445   -2.901413
    140          1           0      -22.668535   -6.439452   -2.271378
    141          1           0      -21.857337   -5.033701   -1.271647
    142          1           0      -27.991544   -5.556600    1.722325
    143          1           0      -30.573449   -4.349896    2.152940
    144          1           0      -29.477809   -6.686805    0.477372
    145          1           0      -29.074759   -5.525793   -0.794114
    146          1           0      -30.546875   -5.366176    0.290809
    147          1           0      -29.490211   -5.064914    4.045442
    148          1           0      -29.985217   -3.360547    4.175618
    149          1           0      -27.482256   -4.120756    4.859017
    150          1           0      -28.057420   -2.523078    4.605893
    151          1           0      -27.243398   -3.383561    3.306689
    152          1           0      -32.173792    1.770939    3.384283
    153          1           0      -32.568028    0.090259    3.223648
    154          1           0      -33.056219    1.180855    1.968272
    155          1           0      -28.503810    4.590890    0.939804
    156          1           0      -28.327545    6.792087   -2.628853
    157          1           0      -29.306850    7.758415   -1.376419
    158          1           0      -30.130033    6.655068   -2.421264
 ---------------------------------------------------------------------

 SCF Done:  E(RwB97XD) =  -4070.56849709     A.U. after   20 cycles

 Excitation energies and oscillator strengths:

 Excited State   1:      Singlet-A      1.6111 eV  769.58 nm  f=0.3989  <S**2>=0.000
     310 -> 316        0.17049
     312 -> 313        0.68652
     310 <- 316        0.11382
 This state for optimization and/or second-order correction.
 Total Energy, E(TD-HF/TD-DFT) =  -4070.50929149
 Copying the excited state density for this state as the 1-particle RhoCI density.

 Excited State   2:      Singlet-A      1.6686 eV  743.03 nm  f=0.3527  <S**2>=0.000
     309 -> 315       -0.20212
     311 -> 314        0.67713
     309 <- 315       -0.11957

 Excited State   3:      Singlet-A      2.1162 eV  585.87 nm  f=0.1336  <S**2>=0.000
     310 -> 313        0.64977
     312 -> 316       -0.25753

 Excited State   4:      Singlet-A      2.1895 eV  566.27 nm  f=0.0674  <S**2>=0.000
     309 -> 314        0.61436
     311 -> 315        0.33146

 Excited State   5:      Singlet-A      3.2647 eV  379.77 nm  f=0.0056  <S**2>=0.000
     304 -> 313       -0.31914
     307 -> 313        0.60924

 The electronic state is 1-A.
 Alpha  occ. eigenvalues --  -46.97120 -46.94091 -19.30968 -19.28962 -19.25056
 Alpha  occ. eigenvalues --  -19.24591 -19.23852 -19.23839 -19.23476 -19.22922
 Alpha  occ. eigenvalues --  -14.47367 -14.47132 -14.46762 -14.46589 -14.45438
 Alpha  occ. eigenvalues --  -14.44600 -14.43764 -14.43414 -10.43808 -10.43297
 Alpha  occ. eigenvalues --  -10.38914 -10.38723 -10.38630 -10.37509 -10.36433
 Alpha  occ. eigenvalues --  -10.35999 -10.35987 -10.35668 -10.35629 -10.35627
 Alpha  occ. eigenvalues --  -10.35561 -10.35502 -10.35478 -10.35141 -10.35026
 Alpha  occ. eigenvalues --  -10.34788 -10.34731 -10.34582 -10.34518 -10.33894
 Alpha  occ. eigenvalues --  -10.33388 -10.33255 -10.33200 -10.33087 -10.33018
 Alpha  occ. eigenvalues --  -10.33002 -10.32978 -10.32923 -10.32897 -10.32865
 Alpha  occ. eigenvalues --  -10.32701 -10.32608 -10.32585 -10.32579 -10.32465
 Alpha  occ. eigenvalues --  -10.32433 -10.32396 -10.32321 -10.32299 -10.32133
 Alpha  occ. eigenvalues --  -10.31613 -10.31602 -10.31550 -10.31419 -10.31406
 Alpha  occ. eigenvalues --  -10.30995 -10.30979 -10.30894 -10.30870 -10.30795
 Alpha  occ. eigenvalues --  -10.30775 -10.30754 -10.30638 -10.30532 -10.30139
 Alpha  occ. eigenvalues --  -10.30128 -10.30057 -10.29785 -10.29778 -10.29719
 Alpha  occ. eigenvalues --  -10.29670 -10.29543 -10.29473 -10.29276 -10.28683
 Alpha  occ. eigenvalues --  -10.28350  -3.23024  -3.20247  -1.96548  -1.96190
 Alpha  occ. eigenvalues --   -1.95943  -1.93847  -1.93384  -1.93224  -1.18166
 Alpha  occ. eigenvalues --   -1.16107  -1.12706  -1.12636  -1.11217  -1.09979
 Alpha  occ. eigenvalues --   -1.08576  -1.07935  -1.07131  -1.07041  -1.05385
 Alpha  occ. eigenvalues --   -1.05376  -1.04793  -1.04342  -1.03111  -1.02600
 Alpha  occ. eigenvalues --   -0.94898  -0.94237  -0.91539  -0.90919  -0.90846
 Alpha  occ. eigenvalues --   -0.90808  -0.90545  -0.90427  -0.89250  -0.89007
 Alpha  occ. eigenvalues --   -0.88982  -0.88907  -0.87878  -0.87781  -0.86948
 Alpha  occ. eigenvalues --   -0.86663  -0.85916  -0.85791  -0.85623  -0.84848
 Alpha  occ. eigenvalues --   -0.84506  -0.84264  -0.83354  -0.83137  -0.82029
 Alpha  occ. eigenvalues --   -0.81872  -0.80513  -0.80264  -0.79302  -0.79174
 Alpha  occ. eigenvalues --   -0.78983  -0.78695  -0.77875  -0.77792  -0.77436
 Alpha  occ. eigenvalues --   -0.77254  -0.74851  -0.74722  -0.73944  -0.73906
 Alpha  occ. eigenvalues --   -0.72199  -0.71393  -0.71123  -0.70574  -0.69737
 Alpha  occ. eigenvalues --   -0.69613  -0.69154  -0.69026  -0.67537  -0.67352
 Alpha  occ. eigenvalues --   -0.67028  -0.67024  -0.66647  -0.66262  -0.66056
 Alpha  occ. eigenvalues --   -0.65792  -0.63913  -0.63901  -0.62439  -0.62235
 Alpha  occ. eigenvalues --   -0.61836  -0.61288  -0.61135  -0.61066  -0.60932
 Alpha  occ. eigenvalues --   -0.60279  -0.59659  -0.59376  -0.59212  -0.59023
 Alpha  occ. eigenvalues --   -0.58694  -0.58287  -0.57856  -0.57616  -0.57447
 Alpha  occ. eigenvalues --   -0.57207  -0.56775  -0.56702  -0.56321  -0.56219
 Alpha  occ. eigenvalues --   -0.55862  -0.55707  -0.55501  -0.55418  -0.55253
 Alpha  occ. eigenvalues --   -0.55027  -0.54874  -0.54690  -0.54465  -0.54386
 Alpha  occ. eigenvalues --   -0.54078  -0.53934  -0.53706  -0.53445  -0.53066
 Alpha  occ. eigenvalues --   -0.52995  -0.52785  -0.52690  -0.52546  -0.52282
 Alpha  occ. eigenvalues --   -0.52088  -0.51841  -0.51824  -0.51683  -0.51533
 Alpha  occ. eigenvalues --   -0.51511  -0.51128  -0.50925  -0.50736  -0.50711
 Alpha  occ. eigenvalues --   -0.50588  -0.50527  -0.50408  -0.50359  -0.50113
 Alpha  occ. eigenvalues --   -0.50019  -0.49922  -0.49690  -0.49650  -0.49528
 Alpha  occ. eigenvalues --   -0.49265  -0.48910  -0.48683  -0.48683  -0.48495
 Alpha  occ. eigenvalues --   -0.48422  -0.48076  -0.48070  -0.47918  -0.47878
 Alpha  occ. eigenvalues --   -0.47574  -0.47370  -0.47341  -0.46930  -0.46813
 Alpha  occ. eigenvalues --   -0.46633  -0.46466  -0.46460  -0.46344  -0.46255
 Alpha  occ. eigenvalues --   -0.46095  -0.46048  -0.45842  -0.45750  -0.45589
 Alpha  occ. eigenvalues --   -0.45369  -0.45181  -0.45142  -0.44585  -0.44582
 Alpha  occ. eigenvalues --   -0.44450  -0.44410  -0.44286  -0.44112  -0.44067
 Alpha  occ. eigenvalues --   -0.43934  -0.43831  -0.43710  -0.43451  -0.43282
 Alpha  occ. eigenvalues --   -0.43215  -0.42812  -0.42385  -0.42193  -0.42148
 Alpha  occ. eigenvalues --   -0.41864  -0.41854  -0.41242  -0.41140  -0.40985
 Alpha  occ. eigenvalues --   -0.40802  -0.40782  -0.39837  -0.39641  -0.39297
 Alpha  occ. eigenvalues --   -0.39190  -0.39128  -0.38778  -0.38464  -0.38313
 Alpha  occ. eigenvalues --   -0.38095  -0.37371  -0.36573  -0.36289  -0.36048
 Alpha  occ. eigenvalues --   -0.35963  -0.35294  -0.35285  -0.33864  -0.33712
 Alpha  occ. eigenvalues --   -0.33552  -0.33243  -0.33231  -0.32574  -0.32279
 Alpha  occ. eigenvalues --   -0.32145  -0.31279  -0.30893  -0.26426  -0.26167
 Alpha  occ. eigenvalues --   -0.23294  -0.23269
 Alpha virt. eigenvalues --   -0.07637  -0.07162  -0.00828   0.00270   0.01852
 Alpha virt. eigenvalues --    0.02386   0.03616   0.04293   0.04313   0.06270
 Alpha virt. eigenvalues --    0.06698   0.06790   0.06952   0.07709   0.08122

 Mulliken charges:
               1
     1  Mg   0.966591
     2  C   -0.023696
     3  C   -0.063229
     4  C   -0.092058
     5  C   -0.101028
     6  N   -0.282796
     7  C   -0.034154
     8  C    0.018440
     9  C   -0.119669
    10  C   -0.008087
    11  C    0.015363
    12  C    0.017503
    13  C   -0.125795
    14  H    0.022191
    15  N   -0.499506
    16  C    0.163210
    17  C   -0.190107
    18  C   -0.055621
    19  C    0.215219
    20  C    0.096951
    21  C    0.017733
    22  O   -0.245736
    23  C    0.020187
    24  N   -0.384919
    25  C    0.048446
    26  C   -0.125761
    27  C   -0.090058
    28  C    0.045151
    29  C    0.037757
    30  C   -0.003815
    31  C   -0.042749
    32  N   -0.423664
    33  C    0.155314
    34  C   -0.159569
    35  C   -0.021077
    36  C    0.159069
    37  C    0.093621
    38  C    0.074418
    39  O   -0.216382
    40  C   -0.098709
    41  C    0.286606
    42  O   -0.256829
    43  O   -0.417805
    44  C    0.139149
    45  H   -0.001275
    46  H   -0.023736
    47  H   -0.001913
    48  H    0.034631
    49  H    0.044262
    50  H    0.048561
    51  H    0.036627
    52  H    0.049379
    53  H    0.048467
    54  H    0.043926
    55  H    0.057345
    56  H    0.052606
    57  H    0.068267
    58  H    0.069354
    59  H    0.030866
    60  H    0.075420
    61  H    0.064011
    62  H    0.054837
    63  H    0.035906
    64  H    0.019948
    65  H    0.037854
    66  H    0.042243
    67  H    0.042232
    68  H    0.028944
    69  H    0.036392
    70  H    0.015415
    71  H    0.040193
    72  H    0.050265
    73  H    0.034114
    74  H    0.047821
    75  H    0.062809
    76  H    0.072057
    77  H    0.050748
    78  H    0.068776
    79  H    0.052549
    80  Mg   0.975195
    81  C   -0.025748
    82  C   -0.091763
    83  C   -0.091430
    84  C   -0.077732
    85  N   -0.366182
    86  C   -0.005820
    87  C   -0.064690
    88  C   -0.111904
    89  C    0.089006
    90  C    0.051902
    91  C   -0.005988
    92  C   -0.128114
    93  H    0.029125
    94  N   -0.467509
    95  C    0.163203
    96  C   -0.170339
    97  C   -0.057394
    98  C    0.152413
    99  C    0.067130
   100  C    0.022021
   101  O   -0.243514
   102  C    0.001985
   103  N   -0.422614
   104  C    0.103930
   105  C   -0.088074
   106  C   -0.066257
   107  C    0.109916
   108  C    0.042985
   109  C    0.010285
   110  C   -0.067789
   111  N   -0.449896
   112  C    0.078865
   113  C   -0.151490
   114  C   -0.101735
   115  C    0.167338
   116  C    0.064821
   117  C    0.158592
   118  O   -0.236443
   119  C   -0.063575
   120  C    0.279014
   121  O   -0.286789
   122  O   -0.366299
   123  C    0.125346
   124  H   -0.007257
   125  H    0.021592
   126  H    0.001308
   127  H    0.052013
   128  H    0.035114
   129  H    0.045607
   130  H    0.021889
   131  H    0.048114
   132  H    0.034822
   133  H    0.058200
   134  H    0.052528
   135  H    0.055241
   136  H    0.061462
   137  H    0.044242
   138  H    0.067064
   139  H    0.027177
   140  H    0.066576
   141  H    0.059738
   142  H    0.041430
   143  H    0.013860
   144  H    0.035648
   145  H    0.048285
   146  H    0.036536
   147  H    0.035153
   148  H    0.029049
   149  H    0.029063
   150  H    0.034943
   151  H    0.040801
   152  H    0.061463
   153  H    0.026446
   154  H    0.055479
   155  H    0.079586
   156  H    0.065869
   157  H    0.060820
   158  H    0.076154
 Sum of Mulliken charges =  -0.00000

 Dipole moment (field-independent basis, Debye):
    X=             10.6471    Y=              0.9800    Z=             -0.0230  Tot=             10.6921
 Quadrupole moment (field-independent basis, Debye-Ang):
   XX=           -523.2552   YY=           -506.1071   ZZ=           -520.9800
   XY=             81.1152   XZ=             -1.9232   YZ=            -18.7849

 Normal termination of Gaussian 16 at Mon Sep 20 05:49:00 2021.
