 Gaussian 16, Revision A.03,
 Gaussian 16:  ES64L-G16RevA.03 25-Dec-2016

 --------------------------------
 #p wB97XD/Def2SVP td=(nstates=5)
 --------------------------------

 --------------------------------
 TDDFT excited states in gaussian
 --------------------------------
 Symbolic Z-matrix:
 Charge =  0 Multiplicity = 1

                         Standard orientation:
 ---------------------------------------------------------------------
 Center     Atomic      Atomic             Coordinates (Angstroms)
 Number     Number       Type             X           Y           Z
 ---------------------------------------------------------------------
      1         12           0       25.492765    0.377455    0.640608
      2          6           0       24.210184   -1.774093   -1.863356
      3          6           0       25.985611    2.687546   -1.936053
      4          6           0       26.606510    2.539214    2.846487
      5          6           0       25.667634   -2.317985    2.830116
      6          7           0       25.093162    0.414866   -1.608824
      7          6           0       24.438752   -0.499039   -2.378014
      8          6           0       24.276938   -0.136370   -3.864180
      9          6           0       25.004228    1.301634   -3.819876
     10          6           0       25.382737    1.440860   -2.375045
     11          6           0       26.295813    1.405956   -4.723806
     12          6           0       22.781878   -0.049280   -4.313442
     13          6           0       22.113005   -1.016134   -5.282766
     14          1           0       21.053481   -0.541013   -6.268245
     15          7           0       26.136310    2.380117    0.521274
     16          6           0       26.338204    3.140226   -0.639778
     17          6           0       26.948844    4.387654   -0.237774
     18          6           0       26.992199    4.439470    1.153291
     19          6           0       26.514217    3.106942    1.570712
     20          6           0       27.185526    5.429805   -1.276941
     21          6           0       27.514788    5.509975    2.110686
     22          8           0       27.522333    5.408284    3.341242
     23          6           0       27.905015    6.806817    1.518750
     24          7           0       26.164688    0.159274    2.543034
     25          6           0       26.387838    1.230166    3.363488
     26          6           0       26.361854    0.801331    4.869752
     27          6           0       26.168605   -0.707545    4.792248
     28          6           0       26.058772   -1.012448    3.272414
     29          6           0       27.605069    1.292099    5.681389
     30          6           0       24.920397   -1.110191    5.592243
     31          6           0       25.001315   -2.301403    6.476038
     32          7           0       25.145489   -1.664169    0.537439
     33          6           0       25.227449   -2.634521    1.503878
     34          6           0       24.807344   -3.908692    1.002191
     35          6           0       24.268838   -3.653950   -0.353083
     36          6           0       24.511167   -2.238582   -0.557509
     37          6           0       24.858953   -5.240520    1.770249
     38          6           0       23.624877   -4.217978   -1.566099
     39          8           0       23.133914   -5.342255   -1.764397
     40          6           0       23.567059   -2.999261   -2.576507
     41          6           0       24.359328   -3.567946   -3.711967
     42          8           0       25.572793   -3.551156   -3.879275
     43          8           0       23.569683   -4.019680   -4.647521
     44          6           0       24.139314   -4.773913   -5.790434
     45          1           0       25.938412    3.353725   -2.799638
     46          1           0       27.001710    3.137689    3.669559
     47          1           0       25.663022   -3.135672    3.553367
     48          1           0       24.871160   -0.844656   -4.442886
     49          1           0       24.408824    2.188696   -4.038222
     50          1           0       26.732277    0.471855   -5.076377
     51          1           0       27.091047    1.909239   -4.175005
     52          1           0       26.054005    2.012794   -5.596566
     53          1           0       22.660677    0.928302   -4.780355
     54          1           0       22.124474   -0.105795   -3.446776
     55          1           0       21.548405   -1.632534   -4.583057
     56          1           0       22.976739   -1.483234   -5.756034
     57          1           0       26.612909    6.335618   -1.082484
     58          1           0       26.904855    5.068636   -2.266648
     59          1           0       28.225620    5.748571   -1.338392
     60          1           0       27.109858    7.160344    0.862239
     61          1           0       28.730776    6.711426    0.813537
     62          1           0       28.067855    7.602583    2.244920
     63          1           0       25.480613    1.331749    5.230174
     64          1           0       26.987899   -1.234932    5.280558
     65          1           0       28.240151    1.997181    5.145276
     66          1           0       28.270881    0.488822    5.994710
     67          1           0       27.284216    1.669979    6.652031
     68          1           0       24.188993   -1.291195    4.805630
     69          1           0       24.552644   -0.346658    6.277275
     70          1           0       24.184674   -2.942320    6.144567
     71          1           0       24.983165   -1.996750    7.522395
     72          1           0       25.882580   -2.925565    6.326512
     73          1           0       25.815618   -5.724084    1.576083
     74          1           0       24.017326   -5.852802    1.446759
     75          1           0       24.812577   -5.095530    2.849789
     76          1           0       22.520767   -2.875427   -2.855269
     77          1           0       24.848233   -4.203218   -6.389302
     78          1           0       23.392567   -5.195170   -6.463210
     79          1           0       24.683498   -5.687715   -5.553802
     80         12           0      -25.634692   -0.552707   -0.241819
     81          6           0      -24.195417    2.669536   -0.237566
     82          6           0      -22.497816   -1.892096    0.488751
     83          6           0      -27.215778   -3.408116    0.738581
     84          6           0      -28.809140    1.090513   -0.471083
     85          7           0      -23.631891    0.294996    0.042268
     86          6           0      -23.293478    1.601742    0.027703
     87          6           0      -21.795829    1.798769    0.430702
     88          6           0      -21.259061    0.302729    0.268063
     89          6           0      -22.569129   -0.548796    0.226569
     90          6           0      -20.421713   -0.109427   -0.963882
     91          6           0      -21.733395    2.356662    1.902805
     92          6           0      -20.580994    3.369879    2.147835
     93          1           0      -19.829928    3.228090    3.533998
     94          7           0      -24.934588   -2.517019    0.334647
     95          6           0      -23.611255   -2.820402    0.515634
     96          6           0      -23.551156   -4.197888    0.827279
     97          6           0      -24.878592   -4.695579    0.986483
     98          6           0      -25.778286   -3.546265    0.634968
     99          6           0      -22.278648   -4.980065    1.051718
    100          6           0      -25.276674   -6.020746    1.541191
    101          8           0      -24.455991   -6.807393    1.985501
    102          6           0      -26.633649   -6.482178    1.677292
    103          7           0      -27.761697   -1.020951    0.187637
    104          6           0      -28.121745   -2.356999    0.417791
    105          6           0      -29.608791   -2.518183    0.362953
    106          6           0      -30.155168   -1.077874    0.042144
    107          6           0      -28.873594   -0.273481   -0.091072
    108          6           0      -29.957520   -3.577050   -0.690827
    109          6           0      -31.294819   -0.599755    1.018688
    110          6           0      -32.601085   -0.209874    0.396067
    111          7           0      -26.416933    1.488052   -0.376638
    112          6           0      -27.704369    1.945324   -0.515749
    113          6           0      -27.709124    3.400251   -0.783888
    114          6           0      -26.330288    3.690964   -0.607373
    115          6           0      -25.612526    2.519257   -0.456908
    116          6           0      -28.884680    4.346546   -0.970892
    117          6           0      -25.412003    4.789968   -0.469123
    118          8           0      -25.624751    6.012371   -0.487203
    119          6           0      -24.004729    4.235533   -0.249239
    120          6           0      -23.064132    4.745776   -1.264146
    121          8           0      -22.099964    5.360079   -0.982015
    122          8           0      -23.307354    4.275013   -2.522004
    123          6           0      -22.188731    4.607384   -3.430696
    124          1           0      -21.519643   -2.353921    0.641294
    125          1           0      -27.653559   -4.380231    0.970768
    126          1           0      -29.669735    1.762039   -0.516006
    127          1           0      -21.346731    2.500862   -0.271994
    128          1           0      -20.864620   -0.151257    1.176990
    129          1           0      -20.650557    0.537199   -1.811765
    130          1           0      -20.508312   -1.147879   -1.283757
    131          1           0      -19.384658    0.081086   -0.689678
    132          1           0      -21.686309    1.540552    2.624370
    133          1           0      -22.693093    2.853354    2.045879
    134          1           0      -21.080631    4.336653    2.083642
    135          1           0      -19.957834    3.239600    1.262799
    136          1           0      -22.345541   -6.060220    0.921122
    137          1           0      -22.012798   -4.738162    2.080395
    138          1           0      -21.376349   -4.589551    0.581085
    139          1           0      -27.055136   -6.517855    0.671898
    140          1           0      -27.201807   -5.842610    2.353366
    141          1           0      -26.615331   -7.482929    2.108973
    142          1           0      -30.007987   -2.732715    1.353987
    143          1           0      -30.478462   -0.876036   -0.979290
    144          1           0      -29.101226   -4.178240   -0.997454
    145          1           0      -30.338563   -3.125047   -1.606578
    146          1           0      -30.564145   -4.358079   -0.233423
    147          1           0      -30.858285    0.244899    1.551710
    148          1           0      -31.650208   -1.374879    1.696663
    149          1           0      -32.827199    0.801001    0.734270
    150          1           0      -33.420134   -0.840773    0.741857
    151          1           0      -32.620455   -0.348832   -0.684909
    152          1           0      -29.315728    4.674654   -0.024818
    153          1           0      -29.654285    3.950952   -1.634894
    154          1           0      -28.378071    5.222855   -1.375092
    155          1           0      -23.592771    4.639188    0.674775
    156          1           0      -22.434086    4.209515   -4.415725
    157          1           0      -21.254743    4.181780   -3.064040
    158          1           0      -22.079258    5.671332   -3.637918
 ---------------------------------------------------------------------

 SCF Done:  E(RwB97XD) =  -4070.57800646     A.U. after   19 cycles

 Excitation energies and oscillator strengths:

 Excited State   1:      Singlet-A      1.6192 eV  765.69 nm  f=0.4048  <S**2>=0.000
     309 -> 315       -0.17889
     311 -> 313        0.68466
     309 <- 315       -0.11647
 This state for optimization and/or second-order correction.
 Total Energy, E(TD-HF/TD-DFT) =  -4070.51850018
 Copying the excited state density for this state as the 1-particle RhoCI density.

 Excited State   2:      Singlet-A      1.7237 eV  719.29 nm  f=0.3819  <S**2>=0.000
     310 -> 316        0.18635
     312 -> 314        0.68177
     310 <- 316        0.11196

 Excited State   3:      Singlet-A      2.1452 eV  577.96 nm  f=0.1102  <S**2>=0.000
     309 -> 313        0.63985
     311 -> 315        0.28463

 Excited State   4:      Singlet-A      2.1685 eV  571.76 nm  f=0.1027  <S**2>=0.000
     310 -> 314        0.63396
     312 -> 316       -0.29506

 Excited State   5:      Singlet-A      3.2205 eV  384.99 nm  f=0.0034  <S**2>=0.000
     303 -> 313       -0.13564
     306 -> 313        0.11705
     307 -> 313        0.65569
     307 -> 318        0.10335

 The electronic state is 1-A.
 Alpha  occ. eigenvalues --  -46.97175 -46.94869 -19.30461 -19.30357 -19.24863
 Alpha  occ. eigenvalues --  -19.24679 -19.23959 -19.23875 -19.23104 -19.22318
 Alpha  occ. eigenvalues --  -14.47616 -14.47285 -14.47169 -14.46484 -14.44491
 Alpha  occ. eigenvalues --  -14.44460 -14.43905 -14.43549 -10.42580 -10.42449
 Alpha  occ. eigenvalues --  -10.40006 -10.39432 -10.38837 -10.37415 -10.36315
 Alpha  occ. eigenvalues --  -10.36022 -10.35893 -10.35750 -10.35675 -10.35589
 Alpha  occ. eigenvalues --  -10.35467 -10.35281 -10.35105 -10.35013 -10.34892
 Alpha  occ. eigenvalues --  -10.34867 -10.34491 -10.34252 -10.33875 -10.33662
 Alpha  occ. eigenvalues --  -10.33533 -10.33124 -10.33119 -10.33111 -10.33083
 Alpha  occ. eigenvalues --  -10.32812 -10.32775 -10.32770 -10.32711 -10.32648
 Alpha  occ. eigenvalues --  -10.32590 -10.32508 -10.32502 -10.32362 -10.32289
 Alpha  occ. eigenvalues --  -10.32217 -10.32206 -10.32142 -10.32021 -10.32006
 Alpha  occ. eigenvalues --  -10.31853 -10.31749 -10.31582 -10.31565 -10.31527
 Alpha  occ. eigenvalues --  -10.31060 -10.30994 -10.30985 -10.30914 -10.30766
 Alpha  occ. eigenvalues --  -10.30745 -10.30425 -10.30423 -10.30397 -10.30316
 Alpha  occ. eigenvalues --  -10.30262 -10.29898 -10.29728 -10.29700 -10.29573
 Alpha  occ. eigenvalues --  -10.29544 -10.29446 -10.29173 -10.29140 -10.29114
 Alpha  occ. eigenvalues --  -10.28641  -3.22818  -3.20897  -1.96411  -1.95910
 Alpha  occ. eigenvalues --   -1.95770  -1.94489  -1.94023  -1.93874  -1.20156
 Alpha  occ. eigenvalues --   -1.19947  -1.12360  -1.11735  -1.11275  -1.11233
 Alpha  occ. eigenvalues --   -1.10570  -1.08632  -1.07489  -1.07187  -1.06113
 Alpha  occ. eigenvalues --   -1.05761  -1.05452  -1.04776  -1.04572  -1.03329
 Alpha  occ. eigenvalues --   -0.94648  -0.93769  -0.91482  -0.91299  -0.90967
 Alpha  occ. eigenvalues --   -0.90955  -0.90687  -0.90134  -0.89970  -0.89702
 Alpha  occ. eigenvalues --   -0.89006  -0.88676  -0.87766  -0.87039  -0.86795
 Alpha  occ. eigenvalues --   -0.86610  -0.86204  -0.85353  -0.84767  -0.84664
 Alpha  occ. eigenvalues --   -0.84645  -0.84412  -0.82905  -0.82757  -0.82536
 Alpha  occ. eigenvalues --   -0.82493  -0.80788  -0.80624  -0.79568  -0.79404
 Alpha  occ. eigenvalues --   -0.78816  -0.78769  -0.78426  -0.78082  -0.77375
 Alpha  occ. eigenvalues --   -0.77121  -0.75169  -0.74511  -0.74187  -0.73799
 Alpha  occ. eigenvalues --   -0.71374  -0.71222  -0.71212  -0.70108  -0.69941
 Alpha  occ. eigenvalues --   -0.69588  -0.68964  -0.68861  -0.68305  -0.67766
 Alpha  occ. eigenvalues --   -0.67666  -0.67189  -0.67023  -0.66869  -0.66665
 Alpha  occ. eigenvalues --   -0.66189  -0.65329  -0.64361  -0.63010  -0.62104
 Alpha  occ. eigenvalues --   -0.62041  -0.61480  -0.61002  -0.60934  -0.60884
 Alpha  occ. eigenvalues --   -0.60457  -0.60294  -0.59770  -0.59637  -0.59067
 Alpha  occ. eigenvalues --   -0.58741  -0.58467  -0.58040  -0.57554  -0.57538
 Alpha  occ. eigenvalues --   -0.57093  -0.56925  -0.56524  -0.56209  -0.56117
 Alpha  occ. eigenvalues --   -0.55760  -0.55546  -0.55508  -0.55330  -0.55107
 Alpha  occ. eigenvalues --   -0.54900  -0.54786  -0.54582  -0.54581  -0.54485
 Alpha  occ. eigenvalues --   -0.54223  -0.54046  -0.53687  -0.53450  -0.53346
 Alpha  occ. eigenvalues --   -0.53295  -0.52837  -0.52549  -0.52406  -0.51981
 Alpha  occ. eigenvalues --   -0.51967  -0.51857  -0.51799  -0.51665  -0.51553
 Alpha  occ. eigenvalues --   -0.51385  -0.51251  -0.51044  -0.51039  -0.50591
 Alpha  occ. eigenvalues --   -0.50578  -0.50453  -0.50336  -0.50118  -0.50116
 Alpha  occ. eigenvalues --   -0.50007  -0.49725  -0.49473  -0.49327  -0.49269
 Alpha  occ. eigenvalues --   -0.48954  -0.48723  -0.48635  -0.48559  -0.48281
 Alpha  occ. eigenvalues --   -0.48262  -0.48257  -0.48003  -0.47762  -0.47693
 Alpha  occ. eigenvalues --   -0.47521  -0.47389  -0.47109  -0.47058  -0.47049
 Alpha  occ. eigenvalues --   -0.46965  -0.46812  -0.46649  -0.46547  -0.46311
 Alpha  occ. eigenvalues --   -0.46296  -0.46197  -0.46005  -0.45927  -0.45541
 Alpha  occ. eigenvalues --   -0.45315  -0.45166  -0.44999  -0.44939  -0.44828
 Alpha  occ. eigenvalues --   -0.44743  -0.44562  -0.44353  -0.44275  -0.43966
 Alpha  occ. eigenvalues --   -0.43711  -0.43622  -0.43312  -0.43296  -0.43144
 Alpha  occ. eigenvalues --   -0.42914  -0.42693  -0.42657  -0.42314  -0.42074
 Alpha  occ. eigenvalues --   -0.41967  -0.41724  -0.41553  -0.41402  -0.41141
 Alpha  occ. eigenvalues --   -0.40598  -0.40345  -0.39936  -0.39868  -0.39672
 Alpha  occ. eigenvalues --   -0.39273  -0.39254  -0.38949  -0.38699  -0.38362
 Alpha  occ. eigenvalues --   -0.38345  -0.37769  -0.36920  -0.36412  -0.36145
 Alpha  occ. eigenvalues --   -0.35765  -0.35519  -0.35142  -0.34124  -0.33818
 Alpha  occ. eigenvalues --   -0.33725  -0.32991  -0.32619  -0.32603  -0.32484
 Alpha  occ. eigenvalues --   -0.31921  -0.31341  -0.30821  -0.26439  -0.25858
 Alpha  occ. eigenvalues --   -0.23378  -0.23007
 Alpha virt. eigenvalues --   -0.07767  -0.06857  -0.00353   0.00062   0.01858
 Alpha virt. eigenvalues --    0.02319   0.04172   0.04401   0.04538   0.05783
 Alpha virt. eigenvalues --    0.07264   0.07703   0.07992   0.08198   0.08342

 Mulliken charges:
               1
     1  Mg   0.972745
     2  C    0.039518
     3  C   -0.094817
     4  C   -0.084761
     5  C   -0.089027
     6  N   -0.280033
     7  C   -0.033778
     8  C   -0.039323
     9  C   -0.125381
    10  C    0.009613
    11  C    0.001864
    12  C   -0.006469
    13  C   -0.125531
    14  H    0.045848
    15  N   -0.445431
    16  C    0.189164
    17  C   -0.135242
    18  C   -0.078215
    19  C    0.174115
    20  C    0.050561
    21  C    0.084272
    22  O   -0.232477
    23  C   -0.006800
    24  N   -0.424763
    25  C    0.030656
    26  C   -0.065399
    27  C   -0.064768
    28  C    0.113656
    29  C    0.012627
    30  C   -0.040711
    31  C   -0.047855
    32  N   -0.454816
    33  C    0.145728
    34  C   -0.198964
    35  C   -0.045513
    36  C    0.123201
    37  C    0.077714
    38  C    0.112922
    39  O   -0.226547
    40  C   -0.112675
    41  C    0.232765
    42  O   -0.268600
    43  O   -0.310150
    44  C    0.148263
    45  H    0.001867
    46  H    0.016038
    47  H   -0.006135
    48  H    0.060630
    49  H    0.045614
    50  H    0.052681
    51  H    0.037782
    52  H    0.037484
    53  H    0.038498
    54  H    0.032734
    55  H    0.062013
    56  H    0.051815
    57  H    0.054657
    58  H    0.035473
    59  H    0.048385
    60  H    0.039642
    61  H    0.049803
    62  H    0.061282
    63  H    0.053994
    64  H    0.031667
    65  H    0.057293
    66  H    0.025270
    67  H    0.035175
    68  H    0.036535
    69  H    0.031256
    70  H    0.037269
    71  H    0.043620
    72  H    0.025476
    73  H    0.056346
    74  H    0.061400
    75  H    0.025338
    76  H    0.075600
    77  H    0.050758
    78  H    0.052457
    79  H    0.053101
    80  Mg   0.930752
    81  C   -0.012501
    82  C   -0.078784
    83  C   -0.029806
    84  C   -0.055285
    85  N   -0.359447
    86  C   -0.011199
    87  C   -0.090486
    88  C   -0.100357
    89  C    0.079461
    90  C    0.033001
    91  C    0.011761
    92  C   -0.106951
    93  H    0.041693
    94  N   -0.446572
    95  C    0.131732
    96  C   -0.166235
    97  C   -0.071363
    98  C    0.121582
    99  C    0.092330
   100  C   -0.000428
   101  O   -0.245872
   102  C    0.011320
   103  N   -0.354222
   104  C    0.049153
   105  C   -0.068713
   106  C   -0.054124
   107  C    0.053357
   108  C    0.028799
   109  C   -0.008422
   110  C   -0.059103
   111  N   -0.368206
   112  C    0.038806
   113  C   -0.158759
   114  C   -0.038410
   115  C    0.117579
   116  C    0.062072
   117  C    0.094556
   118  O   -0.225737
   119  C   -0.017518
   120  C    0.221576
   121  O   -0.212658
   122  O   -0.366515
   123  C    0.140037
   124  H    0.006042
   125  H   -0.031076
   126  H   -0.001354
   127  H    0.038000
   128  H    0.035495
   129  H    0.032281
   130  H    0.046132
   131  H    0.040155
   132  H    0.042490
   133  H    0.036096
   134  H    0.065964
   135  H    0.053250
   136  H    0.070792
   137  H    0.039811
   138  H    0.017360
   139  H    0.051117
   140  H    0.064324
   141  H    0.052308
   142  H    0.048001
   143  H    0.037677
   144  H    0.035139
   145  H    0.041429
   146  H    0.037085
   147  H    0.041961
   148  H    0.039588
   149  H    0.042339
   150  H    0.030776
   151  H    0.032994
   152  H    0.064836
   153  H    0.051565
   154  H    0.065768
   155  H    0.062031
   156  H    0.046746
   157  H    0.053333
   158  H    0.057649
 Sum of Mulliken charges =  -0.00000

 Dipole moment (field-independent basis, Debye):
    X=             -3.3648    Y=              2.6660    Z=             -3.9571  Tot=              5.8385
 Quadrupole moment (field-independent basis, Debye-Ang):
   XX=           -300.6679   YY=           -576.0361   ZZ=           -476.2471
   XY=            193.8529   XZ=             23.0770   YZ=            -17.7145

 Normal termination of Gaussian 16 at Mon Sep 20 12:36:20 2021.
