 Gaussian 16, Revision A.03,
 Gaussian 16:  ES64L-G16RevA.03 25-Dec-2016

 --------------------------------
 #p wB97XD/Def2SVP td=(nstates=5)
 --------------------------------

 --------------------------------
 TDDFT excited states in gaussian
 --------------------------------
 Symbolic Z-matrix:
 Charge =  0 Multiplicity = 1

                         Standard orientation:
 ---------------------------------------------------------------------
 Center     Atomic      Atomic             Coordinates (Angstroms)
 Number     Number       Type             X           Y           Z
 ---------------------------------------------------------------------
      1         12           0       24.984632   -0.007991    0.063931
      2          6           0       21.801868   -1.218432   -0.209405
      3          6           0       25.206640   -0.224845   -3.480968
      4          6           0       27.971748    1.550149    0.251692
      5          6           0       24.290467    0.995493    3.327103
      6          7           0       23.437969   -0.326814   -1.735239
      7          6           0       22.294645   -1.039790   -1.532277
      8          6           0       21.633932   -1.329872   -2.851466
      9          6           0       22.741964   -0.973385   -3.935315
     10          6           0       23.920691   -0.475232   -3.040532
     11          6           0       22.876921   -1.912937   -5.077485
     12          6           0       20.176704   -0.741022   -3.159887
     13          6           0       19.802330    0.578459   -2.552611
     14          1           0       19.184961    1.616244   -3.479515
     15          7           0       26.469901    0.353403   -1.379269
     16          6           0       26.397866    0.182225   -2.726958
     17          6           0       27.602035    0.590772   -3.387784
     18          6           0       28.489434    1.014899   -2.268880
     19          6           0       27.651180    0.980426   -1.050528
     20          6           0       27.916636    0.556329   -4.806874
     21          6           0       29.956381    1.417802   -2.314602
     22          8           0       30.504265    1.571510   -3.347993
     23          6           0       30.826859    1.759023   -1.137037
     24          7           0       25.908808    1.201883    1.506153
     25          6           0       27.199188    1.551839    1.393021
     26          6           0       27.647891    2.489610    2.632473
     27          6           0       26.593770    1.958357    3.721535
     28          6           0       25.534269    1.412082    2.794376
     29          6           0       29.106771    2.354281    3.077491
     30          6           0       26.184894    3.042417    4.735080
     31          6           0       26.176690    2.746620    6.239497
     32          7           0       23.338544    0.013009    1.292044
     33          6           0       23.178360    0.406506    2.614835
     34          6           0       21.921405    0.016486    3.124279
     35          6           0       21.324727   -0.683953    2.088943
     36          6           0       22.228168   -0.667932    0.967849
     37          6           0       21.382840    0.230558    4.505078
     38          6           0       20.244860   -1.455089    1.631651
     39          8           0       19.223042   -1.744061    2.251056
     40          6           0       20.401759   -1.690762    0.102370
     41          6           0       20.192137   -3.191294   -0.038245
     42          8           0       19.381557   -3.714671   -0.831849
     43          8           0       21.138158   -3.814626    0.740915
     44          6           0       21.389683   -5.274195    0.658025
     45          1           0       25.164642   -0.197943   -4.571767
     46          1           0       28.833474    2.220683    0.256795
     47          1           0       24.108591    1.251048    4.372736
     48          1           0       21.398058   -2.393970   -2.890189
     49          1           0       22.421499   -0.036555   -4.390198
     50          1           0       23.907116   -2.206868   -5.278145
     51          1           0       22.353342   -1.560224   -5.966070
     52          1           0       22.398139   -2.858446   -4.822595
     53          1           0       19.355354   -1.379814   -2.834978
     54          1           0       20.096864   -0.514359   -4.223526
     55          1           0       20.555493    1.007831   -1.892780
     56          1           0       18.935327    0.396009   -1.916841
     57          1           0       27.381731   -0.276054   -5.263099
     58          1           0       28.979079    0.455200   -5.025206
     59          1           0       27.559042    1.496555   -5.228188
     60          1           0       30.329574    1.074139   -0.449787
     61          1           0       30.713534    2.792166   -0.810086
     62          1           0       31.894563    1.560852   -1.232465
     63          1           0       27.362447    3.503740    2.351254
     64          1           0       26.860870    1.093802    4.328736
     65          1           0       29.100346    1.794308    4.013031
     66          1           0       29.605425    3.322453    3.042290
     67          1           0       29.711355    1.763466    2.390008
     68          1           0       25.180064    3.361801    4.457370
     69          1           0       26.782133    3.930965    4.529864
     70          1           0       26.673988    3.445807    6.911927
     71          1           0       26.485219    1.727102    6.474467
     72          1           0       25.109450    2.663515    6.442410
     73          1           0       20.742526   -0.570921    4.874283
     74          1           0       20.814748    1.161074    4.512110
     75          1           0       22.161408    0.293328    5.266460
     76          1           0       19.592628   -1.092950   -0.315415
     77          1           0       22.447879   -5.522212    0.738685
     78          1           0       21.011882   -5.628178   -0.301310
     79          1           0       20.930443   -5.959204    1.369641
     80         12           0      -24.892623    0.583103    0.271106
     81          6           0      -21.997028   -1.350612    0.584831
     82          6           0      -26.719581   -2.343732    0.322055
     83          6           0      -27.649966    2.328405   -0.729913
     84          6           0      -22.895269    3.326924   -0.418100
     85          7           0      -24.374972   -1.527572    0.523925
     86          6           0      -23.179079   -2.037286    0.845400
     87          6           0      -23.211348   -3.495454    1.326123
     88          6           0      -24.718301   -3.876393    1.060820
     89          6           0      -25.399604   -2.446153    0.679552
     90          6           0      -24.997094   -4.954436   -0.008662
     91          6           0      -22.757285   -3.700574    2.771488
     92          6           0      -22.189045   -5.106544    3.036869
     93          1           0      -22.155341   -6.131068    1.894015
     94          7           0      -26.922248    0.113112   -0.041678
     95          6           0      -27.509371   -1.165915    0.095244
     96          6           0      -28.933777   -1.040025   -0.139792
     97          6           0      -29.222843    0.323897   -0.518574
     98          6           0      -27.930124    0.998215   -0.409881
     99          6           0      -29.864046   -2.196897    0.101288
    100          6           0      -30.615013    1.044369   -0.810352
    101          8           0      -30.733045    2.233603   -0.980302
    102          6           0      -31.831028    0.146851   -0.886671
    103          7           0      -25.210527    2.496710   -0.550666
    104          6           0      -26.432886    3.022473   -0.851502
    105          6           0      -26.339302    4.523082   -1.314219
    106          6           0      -24.847586    4.797774   -1.131193
    107          6           0      -24.292864    3.459627   -0.680352
    108          6           0      -26.946247    5.002306   -2.694137
    109          6           0      -24.607308    5.914524   -0.088385
    110          6           0      -24.623172    5.550137    1.412740
    111          7           0      -22.848585    1.040153    0.241975
    112          6           0      -22.174528    2.196656   -0.053519
    113          6           0      -20.765777    2.016118    0.056739
    114          6           0      -20.620760    0.578736    0.311898
    115          6           0      -21.864205    0.082910    0.381774
    116          6           0      -19.650001    2.954907   -0.079511
    117          6           0      -19.679625   -0.527878    0.415102
    118          8           0      -18.445269   -0.518124    0.470633
    119          6           0      -20.503205   -1.835700    0.604641
    120          6           0      -20.201239   -2.814280   -0.434986
    121          8           0      -20.625851   -2.799923   -1.585525
    122          8           0      -19.187927   -3.632135   -0.001827
    123          6           0      -18.414618   -4.420175   -0.981145
    124          1           0      -27.210672   -3.319279    0.324723
    125          1           0      -28.545728    2.936620   -0.871609
    126          1           0      -22.265639    4.210811   -0.539297
    127          1           0      -22.656859   -4.151280    0.655286
    128          1           0      -25.269667   -4.118338    1.968720
    129          1           0      -25.619215   -5.640260    0.566140
    130          1           0      -24.070775   -5.435827   -0.321276
    131          1           0      -25.490266   -4.514386   -0.875487
    132          1           0      -23.555324   -3.496550    3.484335
    133          1           0      -21.974361   -2.984991    3.024054
    134          1           0      -22.845942   -5.436593    3.841905
    135          1           0      -21.208110   -5.065912    3.512539
    136          1           0      -29.217874   -3.061100    0.255709
    137          1           0      -30.509405   -2.320932   -0.768586
    138          1           0      -30.516962   -2.047594    0.962545
    139          1           0      -31.947826   -0.456409   -1.787557
    140          1           0      -32.710606    0.767126   -0.714365
    141          1           0      -31.685829   -0.496562   -0.018963
    142          1           0      -26.948311    5.006721   -0.550817
    143          1           0      -24.468852    5.092543   -2.109186
    144          1           0      -26.275822    5.611314   -3.299404
    145          1           0      -27.800709    5.643858   -2.481070
    146          1           0      -27.312193    4.118627   -3.217762
    147          1           0      -25.361469    6.671223   -0.301177
    148          1           0      -23.641441    6.340873   -0.360953
    149          1           0      -25.165672    6.369078    1.884419
    150          1           0      -23.630796    5.528422    1.862509
    151          1           0      -25.036160    4.566229    1.632338
    152          1           0      -18.931882    2.729002    0.707987
    153          1           0      -19.914290    4.011389   -0.032705
    154          1           0      -19.075303    2.720241   -0.975659
    155          1           0      -20.222790   -2.179912    1.600011
    156          1           0      -18.793915   -4.301756   -1.996735
    157          1           0      -18.518389   -5.472150   -0.714154
    158          1           0      -17.420112   -3.997374   -0.843092
 ---------------------------------------------------------------------

 SCF Done:  E(RwB97XD) =  -4070.57267102     A.U. after   19 cycles

 Excitation energies and oscillator strengths:

 Excited State   1:      Singlet-A      1.5770 eV  786.20 nm  f=0.3915  <S**2>=0.000
     309 -> 315        0.17490
     311 -> 313        0.68653
     309 <- 315        0.11856
 This state for optimization and/or second-order correction.
 Total Energy, E(TD-HF/TD-DFT) =  -4070.51471689
 Copying the excited state density for this state as the 1-particle RhoCI density.

 Excited State   2:      Singlet-A      1.6569 eV  748.28 nm  f=0.4082  <S**2>=0.000
     310 -> 316        0.18739
     312 -> 314        0.68176
     310 <- 316        0.11635

 Excited State   3:      Singlet-A      2.0777 eV  596.74 nm  f=0.1515  <S**2>=0.000
     310 -> 314        0.65644
     312 -> 316       -0.23982

 Excited State   4:      Singlet-A      2.0921 eV  592.63 nm  f=0.1442  <S**2>=0.000
     309 -> 313        0.64989
     311 -> 315       -0.25883

 Excited State   5:      Singlet-A      3.0083 eV  412.14 nm  f=0.0074  <S**2>=0.000
     306 -> 313       -0.21828
     308 -> 313        0.63564
     308 -> 317       -0.12409

 The electronic state is 1-A.
 Alpha  occ. eigenvalues --  -46.96307 -46.94572 -19.31478 -19.29092 -19.25326
 Alpha  occ. eigenvalues --  -19.24943 -19.23903 -19.23744 -19.23609 -19.22184
 Alpha  occ. eigenvalues --  -14.47177 -14.46862 -14.46652 -14.46447 -14.44611
 Alpha  occ. eigenvalues --  -14.44285 -14.44039 -14.42755 -10.44396 -10.42487
 Alpha  occ. eigenvalues --  -10.40146 -10.39088 -10.38353 -10.37467 -10.36569
 Alpha  occ. eigenvalues --  -10.36147 -10.35661 -10.35013 -10.34924 -10.34902
 Alpha  occ. eigenvalues --  -10.34892 -10.34864 -10.34860 -10.34696 -10.34694
 Alpha  occ. eigenvalues --  -10.34641 -10.34361 -10.34151 -10.33879 -10.33446
 Alpha  occ. eigenvalues --  -10.33044 -10.32958 -10.32825 -10.32807 -10.32696
 Alpha  occ. eigenvalues --  -10.32577 -10.32507 -10.32365 -10.32365 -10.32276
 Alpha  occ. eigenvalues --  -10.32249 -10.32129 -10.31993 -10.31916 -10.31874
 Alpha  occ. eigenvalues --  -10.31790 -10.31690 -10.31677 -10.31673 -10.31593
 Alpha  occ. eigenvalues --  -10.31560 -10.31441 -10.31280 -10.31138 -10.30914
 Alpha  occ. eigenvalues --  -10.30905 -10.30861 -10.30756 -10.30752 -10.30707
 Alpha  occ. eigenvalues --  -10.30690 -10.30623 -10.30260 -10.30209 -10.30174
 Alpha  occ. eigenvalues --  -10.30068 -10.29953 -10.29910 -10.29817 -10.29678
 Alpha  occ. eigenvalues --  -10.29641 -10.29623 -10.29277 -10.29003 -10.28937
 Alpha  occ. eigenvalues --  -10.28778  -3.22240  -3.20534  -1.95781  -1.95398
 Alpha  occ. eigenvalues --   -1.95179  -1.94124  -1.93654  -1.93512  -1.17889
 Alpha  occ. eigenvalues --   -1.17232  -1.13785  -1.13579  -1.11656  -1.11082
 Alpha  occ. eigenvalues --   -1.09489  -1.08811  -1.07213  -1.06432  -1.06426
 Alpha  occ. eigenvalues --   -1.05307  -1.04936  -1.04457  -1.04163  -1.03039
 Alpha  occ. eigenvalues --   -0.95746  -0.94033  -0.91721  -0.91014  -0.90629
 Alpha  occ. eigenvalues --   -0.90626  -0.90315  -0.90054  -0.89915  -0.89188
 Alpha  occ. eigenvalues --   -0.88999  -0.88372  -0.88008  -0.87790  -0.86457
 Alpha  occ. eigenvalues --   -0.86103  -0.85914  -0.85306  -0.85009  -0.84202
 Alpha  occ. eigenvalues --   -0.84100  -0.83855  -0.82941  -0.82930  -0.82556
 Alpha  occ. eigenvalues --   -0.82112  -0.80470  -0.80074  -0.79754  -0.79025
 Alpha  occ. eigenvalues --   -0.78918  -0.78729  -0.78656  -0.77803  -0.77438
 Alpha  occ. eigenvalues --   -0.76943  -0.75593  -0.74400  -0.73748  -0.73050
 Alpha  occ. eigenvalues --   -0.71975  -0.71711  -0.71386  -0.70393  -0.70354
 Alpha  occ. eigenvalues --   -0.69631  -0.68567  -0.68207  -0.68047  -0.67512
 Alpha  occ. eigenvalues --   -0.66697  -0.66692  -0.66606  -0.66423  -0.66384
 Alpha  occ. eigenvalues --   -0.65710  -0.65607  -0.63372  -0.62289  -0.61758
 Alpha  occ. eigenvalues --   -0.61459  -0.61055  -0.61013  -0.60860  -0.60258
 Alpha  occ. eigenvalues --   -0.60054  -0.59638  -0.59579  -0.59379  -0.59216
 Alpha  occ. eigenvalues --   -0.58507  -0.57804  -0.57798  -0.57360  -0.57264
 Alpha  occ. eigenvalues --   -0.57095  -0.57069  -0.56590  -0.56402  -0.55960
 Alpha  occ. eigenvalues --   -0.55598  -0.55286  -0.55253  -0.55095  -0.54768
 Alpha  occ. eigenvalues --   -0.54594  -0.54430  -0.54228  -0.54050  -0.54035
 Alpha  occ. eigenvalues --   -0.53873  -0.53757  -0.53733  -0.53525  -0.53330
 Alpha  occ. eigenvalues --   -0.53045  -0.52713  -0.52648  -0.52559  -0.52550
 Alpha  occ. eigenvalues --   -0.52155  -0.51915  -0.51630  -0.51601  -0.51497
 Alpha  occ. eigenvalues --   -0.51453  -0.51289  -0.51125  -0.50949  -0.50946
 Alpha  occ. eigenvalues --   -0.50890  -0.50425  -0.50141  -0.50125  -0.50010
 Alpha  occ. eigenvalues --   -0.49821  -0.49529  -0.49484  -0.49290  -0.49156
 Alpha  occ. eigenvalues --   -0.49042  -0.49028  -0.48820  -0.48654  -0.48377
 Alpha  occ. eigenvalues --   -0.48169  -0.48065  -0.48016  -0.47762  -0.47578
 Alpha  occ. eigenvalues --   -0.47540  -0.47471  -0.47265  -0.47172  -0.46967
 Alpha  occ. eigenvalues --   -0.46917  -0.46819  -0.46544  -0.46218  -0.46125
 Alpha  occ. eigenvalues --   -0.45941  -0.45862  -0.45571  -0.45307  -0.45302
 Alpha  occ. eigenvalues --   -0.45129  -0.44985  -0.44961  -0.44720  -0.44663
 Alpha  occ. eigenvalues --   -0.44639  -0.44553  -0.44374  -0.44250  -0.44045
 Alpha  occ. eigenvalues --   -0.43938  -0.43900  -0.43650  -0.43418  -0.43387
 Alpha  occ. eigenvalues --   -0.43206  -0.42990  -0.42774  -0.42495  -0.42456
 Alpha  occ. eigenvalues --   -0.42180  -0.42134  -0.41798  -0.40945  -0.40630
 Alpha  occ. eigenvalues --   -0.40412  -0.40284  -0.39948  -0.39727  -0.39577
 Alpha  occ. eigenvalues --   -0.39438  -0.38978  -0.38754  -0.38153  -0.38028
 Alpha  occ. eigenvalues --   -0.37666  -0.37539  -0.36802  -0.36292  -0.35855
 Alpha  occ. eigenvalues --   -0.35719  -0.35484  -0.35320  -0.33801  -0.33544
 Alpha  occ. eigenvalues --   -0.33081  -0.33068  -0.32773  -0.32581  -0.31771
 Alpha  occ. eigenvalues --   -0.31530  -0.30816  -0.30399  -0.26387  -0.25401
 Alpha  occ. eigenvalues --   -0.23523  -0.23088
 Alpha virt. eigenvalues --   -0.08040  -0.07253  -0.00023   0.00639   0.02336
 Alpha virt. eigenvalues --    0.02669   0.04076   0.04615   0.04831   0.05703
 Alpha virt. eigenvalues --    0.06653   0.07358   0.07469   0.07797   0.08491

 Mulliken charges:
               1
     1  Mg   0.958572
     2  C    0.008302
     3  C   -0.083414
     4  C   -0.083867
     5  C   -0.096662
     6  N   -0.330870
     7  C   -0.005410
     8  C   -0.018786
     9  C   -0.091841
    10  C    0.035638
    11  C    0.041619
    12  C   -0.010900
    13  C   -0.168611
    14  H    0.030027
    15  N   -0.448393
    16  C    0.171549
    17  C   -0.181799
    18  C   -0.096605
    19  C    0.137286
    20  C    0.086393
    21  C    0.013473
    22  O   -0.209809
    23  C   -0.014950
    24  N   -0.361569
    25  C    0.084138
    26  C   -0.139071
    27  C   -0.084223
    28  C    0.074824
    29  C    0.050061
    30  C   -0.015361
    31  C   -0.044741
    32  N   -0.442084
    33  C    0.139281
    34  C   -0.188098
    35  C    0.058669
    36  C    0.109993
    37  C    0.078515
    38  C    0.062403
    39  O   -0.216421
    40  C   -0.121498
    41  C    0.313022
    42  O   -0.256645
    43  O   -0.379233
    44  C    0.145009
    45  H    0.008466
    46  H    0.003728
    47  H   -0.014189
    48  H    0.042118
    49  H    0.049770
    50  H    0.035472
    51  H    0.041470
    52  H    0.026939
    53  H    0.059223
    54  H    0.045138
    55  H    0.064463
    56  H    0.055827
    57  H    0.031659
    58  H    0.063166
    59  H    0.053801
    60  H    0.032368
    61  H    0.070919
    62  H    0.057970
    63  H    0.056105
    64  H    0.040598
    65  H    0.038890
    66  H    0.039567
    67  H    0.032348
    68  H    0.030284
    69  H    0.027707
    70  H    0.056401
    71  H    0.025812
    72  H    0.030890
    73  H    0.060958
    74  H    0.060895
    75  H    0.031911
    76  H    0.065616
    77  H    0.053555
    78  H    0.053931
    79  H    0.058314
    80  Mg   0.960087
    81  C   -0.000764
    82  C   -0.090059
    83  C   -0.073996
    84  C   -0.086967
    85  N   -0.357147
    86  C   -0.011363
    87  C   -0.047834
    88  C   -0.148985
    89  C    0.067710
    90  C    0.032185
    91  C    0.017118
    92  C   -0.110770
    93  H    0.046866
    94  N   -0.477742
    95  C    0.165536
    96  C   -0.178419
    97  C   -0.089989
    98  C    0.129236
    99  C    0.057064
   100  C    0.082247
   101  O   -0.208423
   102  C   -0.022503
   103  N   -0.338067
   104  C    0.039889
   105  C   -0.081602
   106  C   -0.049203
   107  C    0.051000
   108  C    0.022584
   109  C   -0.042561
   110  C   -0.033369
   111  N   -0.449893
   112  C    0.142249
   113  C   -0.165021
   114  C   -0.034687
   115  C    0.132193
   116  C    0.085493
   117  C    0.094072
   118  O   -0.220634
   119  C   -0.058951
   120  C    0.274337
   121  O   -0.254783
   122  O   -0.379411
   123  C    0.128361
   124  H    0.001324
   125  H    0.020120
   126  H   -0.015912
   127  H    0.038865
   128  H    0.031178
   129  H    0.040089
   130  H    0.043123
   131  H    0.055430
   132  H    0.031055
   133  H    0.031059
   134  H    0.040483
   135  H    0.054387
   136  H    0.029118
   137  H    0.047909
   138  H    0.067771
   139  H    0.082032
   140  H    0.053776
   141  H    0.031787
   142  H    0.039742
   143  H    0.036118
   144  H    0.039818
   145  H    0.035645
   146  H    0.050978
   147  H    0.030120
   148  H    0.031124
   149  H    0.040348
   150  H    0.037235
   151  H    0.046613
   152  H    0.052962
   153  H    0.034593
   154  H    0.057873
   155  H    0.073277
   156  H    0.066893
   157  H    0.054431
   158  H    0.073555
 Sum of Mulliken charges =  -0.00000

 Dipole moment (field-independent basis, Debye):
    X=             -0.0111    Y=             -1.2288    Z=              5.3726  Tot=              5.5113
 Quadrupole moment (field-independent basis, Debye-Ang):
   XX=           -290.1177   YY=           -464.7048   ZZ=           -492.7754
   XY=             20.0986   XZ=             48.6036   YZ=              6.3106

 Normal termination of Gaussian 16 at Sat Sep 18 22:36:33 2021.
