 Gaussian 16, Revision A.03,
 Gaussian 16:  ES64L-G16RevA.03 25-Dec-2016

 --------------------------------
 #p wB97XD/Def2SVP td=(nstates=5)
 --------------------------------

 --------------------------------
 TDDFT excited states in gaussian
 --------------------------------
 Symbolic Z-matrix:
 Charge =  0 Multiplicity = 1

                         Standard orientation:
 ---------------------------------------------------------------------
 Center     Atomic      Atomic             Coordinates (Angstroms)
 Number     Number       Type             X           Y           Z
 ---------------------------------------------------------------------
      1         12           0      -30.001293    0.133884    0.277817
      2          6           0      -28.017948   -1.969149   -1.682436
      3          6           0      -29.297273    2.665475   -2.043784
      4          6           0      -31.392246    2.402927    2.306529
      5          6           0      -29.706123   -2.107815    2.872226
      6          7           0      -28.855460    0.325610   -1.756816
      7          6           0      -28.105581   -0.698536   -2.243883
      8          6           0      -27.365720   -0.261787   -3.570029
      9          6           0      -27.598656    1.332117   -3.521752
     10          6           0      -28.597501    1.488125   -2.362792
     11          6           0      -26.242224    1.988723   -3.081344
     12          6           0      -28.142075   -0.909826   -4.774755
     13          6           0      -27.688248   -0.522953   -6.208695
     14          1           0      -28.527518   -0.163953   -7.398694
     15          7           0      -30.460114    2.160706    0.039304
     16          6           0      -30.136039    3.054947   -0.994620
     17          6           0      -30.650755    4.313416   -0.650751
     18          6           0      -31.417336    4.218711    0.503038
     19          6           0      -31.117314    2.885416    0.998300
     20          6           0      -30.504604    5.466130   -1.589305
     21          6           0      -32.262111    5.293913    1.262960
     22          8           0      -32.916038    5.082189    2.278584
     23          6           0      -32.524718    6.683967    0.677191
     24          7           0      -30.360952    0.161962    2.320558
     25          6           0      -31.077717    1.162838    2.878891
     26          6           0      -31.564865    0.851751    4.307625
     27          6           0      -30.905198   -0.535852    4.540351
     28          6           0      -30.389359   -0.929433    3.167835
     29          6           0      -31.306983    1.993798    5.345818
     30          6           0      -31.773769   -1.631227    5.217499
     31          6           0      -32.803140   -2.263248    4.380045
     32          7           0      -29.154374   -1.713154    0.564450
     33          6           0      -29.109115   -2.488545    1.622898
     34          6           0      -28.490924   -3.785118    1.327309
     35          6           0      -28.052486   -3.580503   -0.019981
     36          6           0      -28.436321   -2.316355   -0.422770
     37          6           0      -28.662163   -5.062001    2.007989
     38          6           0      -27.380200   -4.248206   -1.120810
     39          8           0      -26.992866   -5.389115   -1.233773
     40          6           0      -27.283280   -3.169531   -2.206484
     41          6           0      -25.832774   -2.922525   -2.634198
     42          8           0      -25.042036   -2.267374   -2.006459
     43          8           0      -25.573619   -3.622858   -3.788067
     44          6           0      -24.187400   -3.426665   -4.271272
     45          1           0      -29.179990    3.406438   -2.836226
     46          1           0      -32.033751    3.038594    2.920835
     47          1           0      -29.877502   -2.678550    3.786558
     48          1           0      -26.295865   -0.469765   -3.539973
     49          1           0      -27.943312    1.769774   -4.459475
     50          1           0      -26.191069    2.362304   -2.059143
     51          1           0      -26.091954    2.955209   -3.563038
     52          1           0      -25.372385    1.349126   -3.229618
     53          1           0      -29.197793   -0.675942   -4.640124
     54          1           0      -28.092329   -1.990376   -4.637748
     55          1           0      -26.990713   -1.315684   -6.480700
     56          1           0      -27.156180    0.404476   -6.000481
     57          1           0      -29.927919    5.269434   -2.493497
     58          1           0      -30.187611    6.331943   -1.006329
     59          1           0      -31.524807    5.649859   -1.927368
     60          1           0      -31.634383    7.309702    0.614107
     61          1           0      -33.347780    7.225993    1.143165
     62          1           0      -32.920111    6.520688   -0.325534
     63          1           0      -32.628024    0.786360    4.077974
     64          1           0      -30.029606   -0.311055    5.149377
     65          1           0      -31.313415    2.969902    4.861891
     66          1           0      -30.328499    1.847265    5.803952
     67          1           0      -32.074672    2.043489    6.118291
     68          1           0      -32.238326   -1.065038    6.024178
     69          1           0      -31.128252   -2.364485    5.701353
     70          1           0      -32.352205   -3.063493    3.793431
     71          1           0      -33.313772   -1.525290    3.761665
     72          1           0      -33.555946   -2.776729    4.978880
     73          1           0      -29.626215   -4.979710    2.510476
     74          1           0      -27.994268   -5.335431    2.824998
     75          1           0      -28.626703   -5.830068    1.236111
     76          1           0      -27.870881   -3.507363   -3.060756
     77          1           0      -23.847193   -4.358045   -4.723531
     78          1           0      -23.423478   -3.306047   -3.502882
     79          1           0      -24.148798   -2.662383   -5.046790
     80         12           0       29.562339    0.605399   -0.366826
     81          6           0       27.783282   -2.344008   -0.111124
     82          6           0       26.586930    2.312860   -0.080745
     83          6           0       31.354408    3.514990   -0.017580
     84          6           0       32.505384   -1.172765   -0.533590
     85          7           0       27.477221    0.062965    0.073256
     86          6           0       26.995786   -1.231307    0.060429
     87          6           0       25.480567   -1.276434    0.238992
     88          6           0       25.092180    0.211569   -0.097355
     89          6           0       26.444366    0.900170    0.016703
     90          6           0       24.296274    0.472590   -1.455526
     91          6           0       24.958243   -1.809883    1.611054
     92          6           0       23.813441   -2.798259    1.539604
     93          1           0       22.513644   -2.209064    2.065133
     94          7           0       29.014989    2.588879   -0.076620
     95          6           0       27.773760    3.084080   -0.014855
     96          6           0       27.800663    4.533618    0.076446
     97          6           0       29.108371    4.988473    0.107566
     98          6           0       29.913929    3.693589    0.055709
     99          6           0       26.469371    5.413367    0.224006
    100          6           0       29.591240    6.478197    0.114598
    101          8           0       28.724468    7.395117    0.182218
    102          6           0       31.027676    6.837256    0.095877
    103          7           0       31.713963    1.115309   -0.036521
    104          6           0       32.181322    2.340895   -0.098894
    105          6           0       33.671220    2.389078   -0.365947
    106          6           0       34.156467    0.902521   -0.456838
    107          6           0       32.718743    0.193623   -0.418382
    108          6           0       34.246853    3.405267   -1.403354
    109          6           0       35.118642    0.317455    0.617305
    110          6           0       35.805585   -0.954896    0.166062
    111          7           0       30.068362   -1.397532   -0.318530
    112          6           0       31.335289   -2.003348   -0.484497
    113          6           0       31.137299   -3.425330   -0.556763
    114          6           0       29.741198   -3.637607   -0.449261
    115          6           0       29.190811   -2.371838   -0.267935
    116          6           0       32.176724   -4.466447   -0.944708
    117          6           0       28.789889   -4.634502   -0.467299
    118          8           0       28.806565   -5.835180   -0.479990
    119          6           0       27.428392   -3.847913   -0.092616
    120          6           0       27.220817   -4.160150    1.388590
    121          8           0       27.785537   -3.611829    2.315421
    122          8           0       26.293156   -5.187305    1.453112
    123          6           0       26.025433   -5.721630    2.784451
    124          1           0       25.676599    2.904809   -0.194866
    125          1           0       31.859873    4.477280    0.084092
    126          1           0       33.334701   -1.858128   -0.720510
    127          1           0       25.076554   -1.890148   -0.565613
    128          1           0       24.578966    0.603652    0.781455
    129          1           0       24.542006    1.515668   -1.654490
    130          1           0       23.212093    0.494570   -1.342446
    131          1           0       24.531726   -0.178752   -2.297090
    132          1           0       24.637836   -0.901945    2.122427
    133          1           0       25.707141   -2.141972    2.329764
    134          1           0       24.105367   -3.673070    2.121073
    135          1           0       23.605024   -3.123025    0.520007
    136          1           0       25.540588    4.844513    0.284394
    137          1           0       26.380278    6.114302   -0.606638
    138          1           0       26.415743    5.952410    1.168854
    139          1           0       31.490370    6.438621   -0.806402
    140          1           0       31.513814    6.599271    1.042084
    141          1           0       31.026771    7.902299   -0.132689
    142          1           0       34.292105    2.671313    0.484564
    143          1           0       34.437639    0.616492   -1.470637
    144          1           0       33.435296    4.101362   -1.619756
    145          1           0       34.702068    2.935078   -2.275781
    146          1           0       35.054029    4.028738   -1.018571
    147          1           0       34.522183    0.200305    1.521976
    148          1           0       35.811737    1.132286    0.826268
    149          1           0       36.784786   -0.985196    0.644571
    150          1           0       35.969671   -1.041073   -0.908720
    151          1           0       35.275053   -1.810839    0.583271
    152          1           0       31.761195   -5.456521   -1.132517
    153          1           0       32.923344   -4.496620   -0.152198
    154          1           0       32.709640   -4.174975   -1.849844
    155          1           0       26.619728   -4.104041   -0.777825
    156          1           0       26.923820   -6.204667    3.169092
    157          1           0       25.169615   -6.395800    2.786284
    158          1           0       25.822546   -4.899626    3.470346
 ---------------------------------------------------------------------

 SCF Done:  E(RwB97XD) =  -4070.62590952     A.U. after   20 cycles

 Excitation energies and oscillator strengths:

 Excited State   1:      Singlet-A      1.6939 eV  731.94 nm  f=0.3881  <S**2>=0.000
     310 -> 316       -0.19055
     312 -> 314        0.68142
     310 <- 316       -0.11528
 This state for optimization and/or second-order correction.
 Total Energy, E(TD-HF/TD-DFT) =  -4070.56365954
 Copying the excited state density for this state as the 1-particle RhoCI density.

 Excited State   2:      Singlet-A      1.8711 eV  662.62 nm  f=0.3750  <S**2>=0.000
     309 -> 315        0.14188
     311 -> 313        0.68597

 Excited State   3:      Singlet-A      2.2136 eV  560.09 nm  f=0.1131  <S**2>=0.000
     310 -> 314        0.64262
     312 -> 316        0.27806

 Excited State   4:      Singlet-A      2.2254 eV  557.12 nm  f=0.1257  <S**2>=0.000
     309 -> 313        0.64384
     311 -> 315       -0.24649
     311 -> 317        0.10815

 Excited State   5:      Singlet-A      3.4508 eV  359.30 nm  f=0.0477  <S**2>=0.000
     305 -> 314        0.54946
     307 -> 314       -0.31341
     312 -> 316       -0.23887

 The electronic state is 1-A.
 Alpha  occ. eigenvalues --  -46.95754 -46.95053 -19.31018 -19.29683 -19.25346
 Alpha  occ. eigenvalues --  -19.25341 -19.24727 -19.24496 -19.23851 -19.22649
 Alpha  occ. eigenvalues --  -14.46917 -14.46859 -14.46633 -14.45616 -14.45218
 Alpha  occ. eigenvalues --  -14.43785 -14.43689 -14.43009 -10.43635 -10.42886
 Alpha  occ. eigenvalues --  -10.41103 -10.40198 -10.38488 -10.37345 -10.37290
 Alpha  occ. eigenvalues --  -10.36527 -10.35830 -10.35561 -10.35251 -10.35128
 Alpha  occ. eigenvalues --  -10.34844 -10.34682 -10.34568 -10.34460 -10.34350
 Alpha  occ. eigenvalues --  -10.34084 -10.33940 -10.33770 -10.33740 -10.33570
 Alpha  occ. eigenvalues --  -10.33388 -10.32755 -10.32672 -10.32647 -10.32572
 Alpha  occ. eigenvalues --  -10.32491 -10.32414 -10.32300 -10.32238 -10.32211
 Alpha  occ. eigenvalues --  -10.32118 -10.32001 -10.31728 -10.31689 -10.31651
 Alpha  occ. eigenvalues --  -10.31567 -10.31566 -10.31525 -10.31374 -10.31362
 Alpha  occ. eigenvalues --  -10.31178 -10.31152 -10.31105 -10.31058 -10.31037
 Alpha  occ. eigenvalues --  -10.31009 -10.30944 -10.30908 -10.30825 -10.30786
 Alpha  occ. eigenvalues --  -10.30780 -10.30768 -10.30490 -10.30254 -10.30097
 Alpha  occ. eigenvalues --  -10.29976 -10.29880 -10.29873 -10.29709 -10.29631
 Alpha  occ. eigenvalues --  -10.29323 -10.29105 -10.29082 -10.28931 -10.28305
 Alpha  occ. eigenvalues --  -10.26992  -3.21648  -3.21058  -1.95217  -1.94772
 Alpha  occ. eigenvalues --   -1.94632  -1.94620  -1.94195  -1.94016  -1.18994
 Alpha  occ. eigenvalues --   -1.17549  -1.12652  -1.12509  -1.11932  -1.11443
 Alpha  occ. eigenvalues --   -1.10968  -1.10027  -1.06962  -1.06607  -1.05872
 Alpha  occ. eigenvalues --   -1.05802  -1.05358  -1.05281  -1.04540  -1.04504
 Alpha  occ. eigenvalues --   -0.95798  -0.93466  -0.91283  -0.91032  -0.90514
 Alpha  occ. eigenvalues --   -0.90351  -0.90095  -0.89952  -0.89461  -0.89136
 Alpha  occ. eigenvalues --   -0.89003  -0.88701  -0.88112  -0.87715  -0.86406
 Alpha  occ. eigenvalues --   -0.85981  -0.85545  -0.85515  -0.85127  -0.84302
 Alpha  occ. eigenvalues --   -0.83990  -0.83468  -0.82858  -0.82617  -0.82369
 Alpha  occ. eigenvalues --   -0.82150  -0.80503  -0.79591  -0.79520  -0.79100
 Alpha  occ. eigenvalues --   -0.78641  -0.78513  -0.78050  -0.77261  -0.77089
 Alpha  occ. eigenvalues --   -0.76807  -0.74452  -0.74354  -0.73761  -0.73677
 Alpha  occ. eigenvalues --   -0.71955  -0.71662  -0.71131  -0.71099  -0.70316
 Alpha  occ. eigenvalues --   -0.69846  -0.69369  -0.69028  -0.67547  -0.67395
 Alpha  occ. eigenvalues --   -0.67338  -0.66781  -0.66699  -0.66411  -0.66028
 Alpha  occ. eigenvalues --   -0.65972  -0.64481  -0.63666  -0.62103  -0.62033
 Alpha  occ. eigenvalues --   -0.61450  -0.61424  -0.61332  -0.61035  -0.60563
 Alpha  occ. eigenvalues --   -0.60468  -0.60244  -0.59759  -0.59344  -0.59322
 Alpha  occ. eigenvalues --   -0.58476  -0.58463  -0.57600  -0.57467  -0.57405
 Alpha  occ. eigenvalues --   -0.57227  -0.56966  -0.56559  -0.56085  -0.55936
 Alpha  occ. eigenvalues --   -0.55916  -0.55662  -0.55270  -0.55226  -0.55110
 Alpha  occ. eigenvalues --   -0.55070  -0.54697  -0.54596  -0.54508  -0.54030
 Alpha  occ. eigenvalues --   -0.53946  -0.53496  -0.53063  -0.52972  -0.52917
 Alpha  occ. eigenvalues --   -0.52665  -0.52503  -0.52494  -0.52271  -0.52130
 Alpha  occ. eigenvalues --   -0.51960  -0.51867  -0.51740  -0.51607  -0.51404
 Alpha  occ. eigenvalues --   -0.51369  -0.51165  -0.50980  -0.50901  -0.50739
 Alpha  occ. eigenvalues --   -0.50609  -0.50457  -0.50397  -0.50125  -0.49845
 Alpha  occ. eigenvalues --   -0.49519  -0.49434  -0.49278  -0.49166  -0.49050
 Alpha  occ. eigenvalues --   -0.48612  -0.48501  -0.48116  -0.48067  -0.48034
 Alpha  occ. eigenvalues --   -0.47916  -0.47902  -0.47638  -0.47273  -0.47125
 Alpha  occ. eigenvalues --   -0.47108  -0.46990  -0.46959  -0.46909  -0.46795
 Alpha  occ. eigenvalues --   -0.46637  -0.46598  -0.46348  -0.46256  -0.46122
 Alpha  occ. eigenvalues --   -0.45984  -0.45846  -0.45762  -0.45616  -0.45502
 Alpha  occ. eigenvalues --   -0.45309  -0.45263  -0.45176  -0.45082  -0.44832
 Alpha  occ. eigenvalues --   -0.44769  -0.44521  -0.44452  -0.44444  -0.44424
 Alpha  occ. eigenvalues --   -0.44309  -0.44084  -0.43974  -0.43807  -0.43620
 Alpha  occ. eigenvalues --   -0.43498  -0.42645  -0.42628  -0.42331  -0.42154
 Alpha  occ. eigenvalues --   -0.42077  -0.41762  -0.41504  -0.41226  -0.40880
 Alpha  occ. eigenvalues --   -0.40727  -0.40395  -0.39999  -0.39817  -0.39671
 Alpha  occ. eigenvalues --   -0.39320  -0.39269  -0.38815  -0.38595  -0.38312
 Alpha  occ. eigenvalues --   -0.38271  -0.37273  -0.36904  -0.36382  -0.36254
 Alpha  occ. eigenvalues --   -0.36139  -0.35406  -0.35332  -0.34476  -0.34125
 Alpha  occ. eigenvalues --   -0.33618  -0.33101  -0.33063  -0.32774  -0.32258
 Alpha  occ. eigenvalues --   -0.31597  -0.31329  -0.31153  -0.26048  -0.25728
 Alpha  occ. eigenvalues --   -0.23347  -0.22889
 Alpha virt. eigenvalues --   -0.06734  -0.06725   0.00154   0.00598   0.02184
 Alpha virt. eigenvalues --    0.02487   0.04099   0.04353   0.04935   0.05392
 Alpha virt. eigenvalues --    0.07353   0.07624   0.08069   0.08189   0.08846

 Mulliken charges:
               1
     1  Mg   0.973013
     2  C   -0.006695
     3  C   -0.074206
     4  C   -0.111256
     5  C   -0.060480
     6  N   -0.282091
     7  C   -0.051715
     8  C   -0.080583
     9  C   -0.121443
    10  C    0.038221
    11  C    0.009316
    12  C   -0.013386
    13  C   -0.096448
    14  H    0.058567
    15  N   -0.474652
    16  C    0.176343
    17  C   -0.164555
    18  C   -0.081356
    19  C    0.151513
    20  C    0.071290
    21  C    0.085599
    22  O   -0.233803
    23  C   -0.021756
    24  N   -0.406233
    25  C    0.075556
    26  C   -0.112102
    27  C   -0.035741
    28  C   -0.010078
    29  C    0.035577
    30  C   -0.020871
    31  C   -0.015399
    32  N   -0.411225
    33  C    0.152305
    34  C   -0.157213
    35  C   -0.070558
    36  C    0.151172
    37  C    0.070544
    38  C    0.116282
    39  O   -0.187641
    40  C   -0.074594
    41  C    0.263601
    42  O   -0.227582
    43  O   -0.360615
    44  C    0.124812
    45  H   -0.012645
    46  H    0.022347
    47  H   -0.019461
    48  H    0.047353
    49  H    0.048734
    50  H    0.042535
    51  H    0.025844
    52  H    0.050549
    53  H    0.035474
    54  H    0.032133
    55  H    0.051127
    56  H    0.036237
    57  H    0.044486
    58  H    0.048659
    59  H    0.050188
    60  H    0.058418
    61  H    0.054792
    62  H    0.041326
    63  H    0.041042
    64  H    0.042839
    65  H    0.049050
    66  H    0.031780
    67  H    0.040098
    68  H    0.022777
    69  H    0.034928
    70  H    0.032046
    71  H    0.032796
    72  H    0.035430
    73  H    0.029557
    74  H    0.041856
    75  H    0.063979
    76  H    0.079194
    77  H    0.049952
    78  H    0.069083
    79  H    0.056062
    80  Mg   0.966600
    81  C   -0.041314
    82  C   -0.128735
    83  C   -0.109178
    84  C   -0.042181
    85  N   -0.333126
    86  C   -0.011713
    87  C   -0.074597
    88  C   -0.075979
    89  C    0.063485
    90  C    0.034900
    91  C    0.028266
    92  C   -0.107186
    93  H    0.024761
    94  N   -0.465995
    95  C    0.186026
    96  C   -0.152997
    97  C   -0.065493
    98  C    0.142272
    99  C    0.072262
   100  C    0.052369
   101  O   -0.253980
   102  C    0.003650
   103  N   -0.331042
   104  C    0.128686
   105  C   -0.083497
   106  C   -0.090959
   107  C    0.027379
   108  C    0.020531
   109  C    0.009837
   110  C   -0.034574
   111  N   -0.438401
   112  C    0.046333
   113  C   -0.148220
   114  C    0.002708
   115  C    0.157779
   116  C    0.059524
   117  C    0.057950
   118  O   -0.195132
   119  C   -0.117850
   120  C    0.296964
   121  O   -0.238878
   122  O   -0.364123
   123  C    0.141280
   124  H   -0.003504
   125  H   -0.019487
   126  H   -0.016852
   127  H    0.023290
   128  H    0.032781
   129  H    0.025018
   130  H    0.044685
   131  H    0.053881
   132  H    0.020247
   133  H    0.052821
   134  H    0.048285
   135  H    0.048689
   136  H    0.019557
   137  H    0.064650
   138  H    0.059482
   139  H    0.061873
   140  H    0.091282
   141  H    0.055056
   142  H    0.038389
   143  H    0.031577
   144  H    0.030241
   145  H    0.041597
   146  H    0.029149
   147  H    0.042118
   148  H    0.025813
   149  H    0.032467
   150  H    0.043078
   151  H    0.051711
   152  H    0.058576
   153  H    0.038070
   154  H    0.040752
   155  H    0.054831
   156  H    0.058155
   157  H    0.060947
   158  H    0.042365
 Sum of Mulliken charges =  -0.00000

 Dipole moment (field-independent basis, Debye):
    X=              0.5717    Y=              7.4023    Z=             -3.3223  Tot=              8.1338
 Quadrupole moment (field-independent basis, Debye-Ang):
   XX=           -294.1002   YY=           -553.8451   ZZ=           -482.7869
   XY=             34.6901   XZ=             -4.1827   YZ=            -26.9496

 Normal termination of Gaussian 16 at Sat Sep 18 17:39:54 2021.
