 Gaussian 16, Revision A.03,
 Gaussian 16:  ES64L-G16RevA.03 25-Dec-2016

 --------------------------------
 #p wB97XD/Def2SVP td=(nstates=5)
 --------------------------------

 --------------------------------
 TDDFT excited states in gaussian
 --------------------------------
 Symbolic Z-matrix:
 Charge =  0 Multiplicity = 1

                         Standard orientation:
 ---------------------------------------------------------------------
 Center     Atomic      Atomic             Coordinates (Angstroms)
 Number     Number       Type             X           Y           Z
 ---------------------------------------------------------------------
      1         12           0       25.685862   -0.331883   -0.249549
      2          6           0       22.074390   -0.412016    0.395795
      3          6           0       24.823977    1.247713   -3.206188
      4          6           0       28.701145    0.699803   -0.365997
      5          6           0       26.035823   -1.588174    3.098739
      6          7           0       23.568800    0.472539   -1.211698
      7          6           0       22.267005    0.316893   -0.788182
      8          6           0       21.305702    1.084656   -1.767573
      9          6           0       22.160764    1.349052   -3.019041
     10          6           0       23.594638    1.008888   -2.460322
     11          6           0       21.882724    0.490709   -4.322432
     12          6           0       20.654256    2.363303   -1.137840
     13          6           0       19.206046    2.624332   -1.491907
     14          1           0       18.933671    3.718559   -2.571277
     15          7           0       26.666174    0.693445   -1.629766
     16          6           0       26.205272    1.174632   -2.824987
     17          6           0       27.313212    1.842952   -3.560928
     18          6           0       28.438847    1.698789   -2.708623
     19          6           0       27.949125    1.048236   -1.495819
     20          6           0       27.219193    2.592555   -4.899946
     21          6           0       29.831836    2.317614   -2.856170
     22          8           0       30.063248    2.939297   -3.889643
     23          6           0       30.872230    2.199023   -1.912398
     24          7           0       27.102247   -0.209737    1.324568
     25          6           0       28.374986    0.044841    0.853574
     26          6           0       29.397463   -0.276961    2.011285
     27          6           0       28.476079   -0.710497    3.207333
     28          6           0       27.138261   -0.942908    2.464950
     29          6           0       30.496198   -1.320319    1.668928
     30          6           0       28.342179    0.250575    4.456628
     31          6           0       29.469601    0.237493    5.503531
     32          7           0       24.404994   -0.954573    1.447966
     33          6           0       24.712848   -1.549210    2.655281
     34          6           0       23.532968   -2.019542    3.339737
     35          6           0       22.458500   -1.602365    2.468036
     36          6           0       22.984421   -0.896608    1.330079
     37          6           0       23.546718   -2.680579    4.683545
     38          6           0       21.068803   -1.557068    2.363158
     39          8           0       20.192040   -1.828651    3.172288
     40          6           0       20.738260   -0.689800    1.114038
     41          6           0       19.858517   -1.573931    0.261314
     42          8           0       18.787536   -1.201151   -0.224097
     43          8           0       20.429148   -2.860158   -0.100649
     44          6           0       19.706788   -3.501933   -1.197847
     45          1           0       24.579877    1.681542   -4.177617
     46          1           0       29.785674    0.825170   -0.343049
     47          1           0       26.308160   -2.031450    4.058749
     48          1           0       20.562952    0.379624   -2.143593
     49          1           0       22.195839    2.409330   -3.269381
     50          1           0       21.382374    1.180100   -5.002171
     51          1           0       21.182036   -0.318577   -4.119076
     52          1           0       22.755293    0.011034   -4.765746
     53          1           0       21.091058    3.306068   -1.468226
     54          1           0       20.676721    2.302709   -0.049544
     55          1           0       18.679654    2.807519   -0.555163
     56          1           0       18.798823    1.701030   -1.905185
     57          1           0       28.097671    2.373655   -5.507538
     58          1           0       27.122163    3.637632   -4.606067
     59          1           0       26.366021    2.247341   -5.482335
     60          1           0       31.179770    1.153314   -1.880300
     61          1           0       30.646121    2.606401   -0.926947
     62          1           0       31.600409    2.898132   -2.325046
     63          1           0       29.956705    0.592108    2.356167
     64          1           0       28.745108   -1.699682    3.576996
     65          1           0       30.383188   -2.106642    2.415398
     66          1           0       31.468089   -0.839684    1.776384
     67          1           0       30.258326   -1.611379    0.645062
     68          1           0       27.414900   -0.078527    4.926746
     69          1           0       28.319557    1.294894    4.144503
     70          1           0       30.096592   -0.563950    5.111745
     71          1           0       29.111213   -0.131444    6.465604
     72          1           0       30.043740    1.155404    5.627303
     73          1           0       24.040102   -1.970890    5.346334
     74          1           0       24.182524   -3.564688    4.726917
     75          1           0       22.551919   -2.780668    5.117827
     76          1           0       20.141390    0.152015    1.464498
     77          1           0       20.551244   -4.097893   -1.546073
     78          1           0       19.223167   -2.776968   -1.852514
     79          1           0       19.006483   -4.197611   -0.735397
     80         12           0      -25.360719    0.507655    0.065563
     81          6           0      -22.240897   -0.823607   -0.551213
     82          6           0      -26.694660   -2.512978   -1.321620
     83          6           0      -28.361836    1.773318    0.276661
     84          6           0      -23.939331    3.497993    1.066929
     85          7           0      -24.491345   -1.385481   -1.041099
     86          6           0      -23.223997   -1.748156   -0.935292
     87          6           0      -23.059234   -3.274912   -1.179140
     88          6           0      -24.395021   -3.567061   -1.948081
     89          6           0      -25.302553   -2.437566   -1.435011
     90          6           0      -24.210279   -3.524412   -3.506698
     91          6           0      -22.977630   -3.925475    0.219759
     92          6           0      -22.664544   -5.427410    0.259723
     93          1           0      -22.700216   -6.247763   -1.014072
     94          7           0      -27.274706   -0.210082   -0.313158
     95          6           0      -27.596063   -1.502980   -0.852682
     96          6           0      -29.043228   -1.630675   -0.748466
     97          6           0      -29.527296   -0.413643   -0.174654
     98          6           0      -28.378649    0.485189   -0.071028
     99          6           0      -29.862971   -2.913331   -1.149706
    100          6           0      -30.990689   -0.103747    0.283601
    101          8           0      -31.246623    1.015307    0.634936
    102          6           0      -32.040940   -1.165893    0.243940
    103          7           0      -26.060850    2.366283    0.691784
    104          6           0      -27.376175    2.679448    0.701838
    105          6           0      -27.648848    4.126613    1.110316
    106          6           0      -26.234539    4.621081    1.492772
    107          6           0      -25.334790    3.397284    1.048022
    108          6           0      -28.340354    5.023586    0.018890
    109          6           0      -26.036732    5.139978    2.894191
    110          6           0      -26.566826    4.361647    4.122512
    111          7           0      -23.503620    1.277766    0.239252
    112          6           0      -23.052796    2.494287    0.665314
    113          6           0      -21.608168    2.417952    0.720743
    114          6           0      -21.192546    1.114154    0.281094
    115          6           0      -22.424531    0.468648   -0.013933
    116          6           0      -20.726297    3.544921    1.159922
    117          6           0      -20.098201    0.256555   -0.028152
    118          8           0      -18.857990    0.408455    0.018037
    119          6           0      -20.801976   -0.955541   -0.850107
    120          6           0      -20.063437   -2.234505   -0.452109
    121          8           0      -19.888738   -2.608190    0.644297
    122          8           0      -19.610522   -2.830633   -1.594528
    123          6           0      -19.202010   -4.218376   -1.521568
    124          1           0      -27.092060   -3.406856   -1.805974
    125          1           0      -29.336848    2.263257    0.319076
    126          1           0      -23.428943    4.418484    1.355294
    127          1           0      -22.225213   -3.499191   -1.843966
    128          1           0      -24.698419   -4.541283   -1.563993
    129          1           0      -24.204816   -4.541219   -3.897413
    130          1           0      -23.273594   -3.007568   -3.716374
    131          1           0      -25.031534   -3.033448   -4.028881
    132          1           0      -23.963324   -3.835233    0.675491
    133          1           0      -22.343455   -3.357373    0.899645
    134          1           0      -23.113873   -5.936679    1.112572
    135          1           0      -21.635046   -5.473748    0.615306
    136          1           0      -30.700881   -2.681258   -1.807756
    137          1           0      -30.166543   -3.370916   -0.208270
    138          1           0      -29.193786   -3.643916   -1.605771
    139          1           0      -32.710019   -0.845640    1.042919
    140          1           0      -31.668081   -2.138342    0.563493
    141          1           0      -32.467569   -1.489182   -0.705532
    142          1           0      -28.299714    4.053435    1.981304
    143          1           0      -25.859641    5.396152    0.824366
    144          1           0      -27.914336    6.018201    0.147893
    145          1           0      -29.386370    4.991721    0.324454
    146          1           0      -28.252148    4.563009   -0.965027
    147          1           0      -26.729597    5.980648    2.880526
    148          1           0      -25.034470    5.463869    3.176664
    149          1           0      -27.315301    4.840263    4.752637
    150          1           0      -25.783743    4.211842    4.865738
    151          1           0      -27.006072    3.421866    3.787566
    152          1           0      -19.706355    3.185183    1.027269
    153          1           0      -20.860082    3.729192    2.226717
    154          1           0      -20.939049    4.509995    0.701009
    155          1           0      -20.696423   -0.676604   -1.898717
    156          1           0      -18.234990   -3.982700   -1.966129
    157          1           0      -19.884810   -4.905113   -2.022296
    158          1           0      -19.033963   -4.586393   -0.509094
 ---------------------------------------------------------------------

 SCF Done:  E(RwB97XD) =  -4070.55409088     A.U. after   20 cycles

 Excitation energies and oscillator strengths:

 Excited State   1:      Singlet-A      1.6685 eV  743.09 nm  f=0.3669  <S**2>=0.000
     309 -> 315        0.20198
     311 -> 313        0.67670
     309 <- 315        0.11949
 This state for optimization and/or second-order correction.
 Total Energy, E(TD-HF/TD-DFT) =  -4070.49277504
 Copying the excited state density for this state as the 1-particle RhoCI density.

 Excited State   2:      Singlet-A      1.6763 eV  739.65 nm  f=0.3595  <S**2>=0.000
     310 -> 316       -0.20164
     312 -> 314        0.67830
     310 <- 316       -0.12031

 Excited State   3:      Singlet-A      2.1629 eV  573.23 nm  f=0.0893  <S**2>=0.000
     310 -> 314        0.63323
     312 -> 316        0.30173

 Excited State   4:      Singlet-A      2.1895 eV  566.27 nm  f=0.0672  <S**2>=0.000
     309 -> 313        0.61432
     311 -> 315       -0.33152

 Excited State   5:      Singlet-A      3.2140 eV  385.77 nm  f=0.0156  <S**2>=0.000
     308 -> 313        0.61825
     308 -> 317        0.12010
     311 -> 315        0.24287

 The electronic state is 1-A.
 Alpha  occ. eigenvalues --  -46.97080 -46.94587 -19.29610 -19.28913 -19.25169
 Alpha  occ. eigenvalues --  -19.25005 -19.24107 -19.24046 -19.23814 -19.22876
 Alpha  occ. eigenvalues --  -14.47326 -14.46545 -14.46303 -14.46267 -14.45395
 Alpha  occ. eigenvalues --  -14.43878 -14.43874 -14.43719 -10.43247 -10.42753
 Alpha  occ. eigenvalues --  -10.39177 -10.39119 -10.38875 -10.37463 -10.36391
 Alpha  occ. eigenvalues --  -10.35943 -10.35625 -10.35583 -10.35436 -10.35182
 Alpha  occ. eigenvalues --  -10.34984 -10.34722 -10.34609 -10.34561 -10.34468
 Alpha  occ. eigenvalues --  -10.34419 -10.34285 -10.33852 -10.33658 -10.33354
 Alpha  occ. eigenvalues --  -10.33345 -10.33212 -10.33043 -10.32957 -10.32935
 Alpha  occ. eigenvalues --  -10.32877 -10.32774 -10.32720 -10.32657 -10.32553
 Alpha  occ. eigenvalues --  -10.32426 -10.32349 -10.32278 -10.32247 -10.32130
 Alpha  occ. eigenvalues --  -10.32093 -10.31823 -10.31782 -10.31745 -10.31707
 Alpha  occ. eigenvalues --  -10.31680 -10.31600 -10.31572 -10.31523 -10.31378
 Alpha  occ. eigenvalues --  -10.30848 -10.30828 -10.30755 -10.30705 -10.30680
 Alpha  occ. eigenvalues --  -10.30597 -10.30562 -10.30497 -10.30494 -10.30366
 Alpha  occ. eigenvalues --  -10.30108 -10.30101 -10.30089 -10.30033 -10.30014
 Alpha  occ. eigenvalues --  -10.29828 -10.29682 -10.29633 -10.29233 -10.29050
 Alpha  occ. eigenvalues --  -10.28906  -3.22982  -3.20652  -1.96506  -1.96148
 Alpha  occ. eigenvalues --   -1.95903  -1.94244  -1.93794  -1.93613  -1.19763
 Alpha  occ. eigenvalues --   -1.16057  -1.13678  -1.12667  -1.11995  -1.11171
 Alpha  occ. eigenvalues --   -1.10267  -1.08526  -1.07200  -1.07088  -1.06064
 Alpha  occ. eigenvalues --   -1.05342  -1.05333  -1.05089  -1.04068  -1.03068
 Alpha  occ. eigenvalues --   -0.95019  -0.94853  -0.91189  -0.90876  -0.90801
 Alpha  occ. eigenvalues --   -0.90572  -0.90387  -0.90368  -0.89224  -0.88965
 Alpha  occ. eigenvalues --   -0.88864  -0.88376  -0.87835  -0.87573  -0.86905
 Alpha  occ. eigenvalues --   -0.85962  -0.85750  -0.85589  -0.85580  -0.84461
 Alpha  occ. eigenvalues --   -0.84295  -0.83633  -0.83353  -0.83094  -0.82224
 Alpha  occ. eigenvalues --   -0.81827  -0.80222  -0.79917  -0.79260  -0.79244
 Alpha  occ. eigenvalues --   -0.78938  -0.78711  -0.77801  -0.77745  -0.77417
 Alpha  occ. eigenvalues --   -0.77211  -0.74808  -0.74657  -0.73960  -0.73901
 Alpha  occ. eigenvalues --   -0.72152  -0.71082  -0.70842  -0.70533  -0.70060
 Alpha  occ. eigenvalues --   -0.69692  -0.68981  -0.68161  -0.67491  -0.67309
 Alpha  occ. eigenvalues --   -0.67133  -0.66982  -0.66840  -0.66258  -0.66103
 Alpha  occ. eigenvalues --   -0.66013  -0.64326  -0.63865  -0.62457  -0.62398
 Alpha  occ. eigenvalues --   -0.61793  -0.61605  -0.61244  -0.61122  -0.60890
 Alpha  occ. eigenvalues --   -0.60800  -0.60133  -0.59856  -0.59168  -0.58981
 Alpha  occ. eigenvalues --   -0.58647  -0.58100  -0.58079  -0.57612  -0.57572
 Alpha  occ. eigenvalues --   -0.57259  -0.56730  -0.56281  -0.56171  -0.55818
 Alpha  occ. eigenvalues --   -0.55664  -0.55602  -0.55457  -0.55440  -0.55209
 Alpha  occ. eigenvalues --   -0.54873  -0.54833  -0.54421  -0.54291  -0.54181
 Alpha  occ. eigenvalues --   -0.53980  -0.53887  -0.53688  -0.53660  -0.53402
 Alpha  occ. eigenvalues --   -0.52951  -0.52690  -0.52623  -0.52506  -0.52042
 Alpha  occ. eigenvalues --   -0.51883  -0.51797  -0.51779  -0.51598  -0.51493
 Alpha  occ. eigenvalues --   -0.51470  -0.51228  -0.51190  -0.51083  -0.50881
 Alpha  occ. eigenvalues --   -0.50728  -0.50547  -0.50317  -0.50156  -0.50068
 Alpha  occ. eigenvalues --   -0.50055  -0.49880  -0.49875  -0.49644  -0.49539
 Alpha  occ. eigenvalues --   -0.49222  -0.48798  -0.48640  -0.48524  -0.48449
 Alpha  occ. eigenvalues --   -0.48443  -0.48025  -0.47896  -0.47834  -0.47733
 Alpha  occ. eigenvalues --   -0.47512  -0.47298  -0.47143  -0.46918  -0.46888
 Alpha  occ. eigenvalues --   -0.46595  -0.46590  -0.46420  -0.46299  -0.46008
 Alpha  occ. eigenvalues --   -0.45772  -0.45706  -0.45546  -0.45269  -0.45181
 Alpha  occ. eigenvalues --   -0.45136  -0.44886  -0.44829  -0.44606  -0.44542
 Alpha  occ. eigenvalues --   -0.44367  -0.44243  -0.44242  -0.44029  -0.44026
 Alpha  occ. eigenvalues --   -0.43931  -0.43888  -0.43767  -0.43550  -0.43406
 Alpha  occ. eigenvalues --   -0.43312  -0.43239  -0.42830  -0.42153  -0.42100
 Alpha  occ. eigenvalues --   -0.42092  -0.41815  -0.41471  -0.41302  -0.41196
 Alpha  occ. eigenvalues --   -0.40760  -0.40274  -0.39832  -0.39794  -0.39598
 Alpha  occ. eigenvalues --   -0.39540  -0.39145  -0.39144  -0.38356  -0.38266
 Alpha  occ. eigenvalues --   -0.37734  -0.37322  -0.37155  -0.36527  -0.35922
 Alpha  occ. eigenvalues --   -0.35919  -0.35549  -0.35248  -0.33823  -0.33647
 Alpha  occ. eigenvalues --   -0.33510  -0.33190  -0.32999  -0.32481  -0.32098
 Alpha  occ. eigenvalues --   -0.31998  -0.31487  -0.30849  -0.26384  -0.25709
 Alpha  occ. eigenvalues --   -0.23251  -0.22882
 Alpha virt. eigenvalues --   -0.07119  -0.06767  -0.00786   0.00047   0.01895
 Alpha virt. eigenvalues --    0.02260   0.03658   0.04335   0.04737   0.06125
 Alpha virt. eigenvalues --    0.06834   0.07001   0.08023   0.08172   0.08246

 Mulliken charges:
               1
     1  Mg   0.966334
     2  C   -0.023770
     3  C   -0.063170
     4  C   -0.091966
     5  C   -0.101021
     6  N   -0.282664
     7  C   -0.034098
     8  C    0.018366
     9  C   -0.119611
    10  C   -0.008112
    11  C    0.015355
    12  C    0.017525
    13  C   -0.125812
    14  H    0.022231
    15  N   -0.499411
    16  C    0.163074
    17  C   -0.190191
    18  C   -0.055706
    19  C    0.215164
    20  C    0.097112
    21  C    0.017768
    22  O   -0.245784
    23  C    0.020203
    24  N   -0.384823
    25  C    0.048256
    26  C   -0.125733
    27  C   -0.090081
    28  C    0.045121
    29  C    0.037757
    30  C   -0.003804
    31  C   -0.042740
    32  N   -0.423509
    33  C    0.155365
    34  C   -0.159536
    35  C   -0.021090
    36  C    0.159068
    37  C    0.093611
    38  C    0.074469
    39  O   -0.216314
    40  C   -0.098778
    41  C    0.286683
    42  O   -0.256768
    43  O   -0.417832
    44  C    0.139114
    45  H   -0.001283
    46  H   -0.023772
    47  H   -0.001928
    48  H    0.034655
    49  H    0.044274
    50  H    0.048585
    51  H    0.036658
    52  H    0.049352
    53  H    0.048454
    54  H    0.043931
    55  H    0.057390
    56  H    0.052618
    57  H    0.068178
    58  H    0.069323
    59  H    0.030875
    60  H    0.075415
    61  H    0.063991
    62  H    0.054799
    63  H    0.035877
    64  H    0.019928
    65  H    0.037831
    66  H    0.042207
    67  H    0.042226
    68  H    0.028960
    69  H    0.036389
    70  H    0.015390
    71  H    0.040182
    72  H    0.050243
    73  H    0.034115
    74  H    0.047801
    75  H    0.062842
    76  H    0.072114
    77  H    0.050707
    78  H    0.068822
    79  H    0.052595
    80  Mg   0.965860
    81  C   -0.025630
    82  C   -0.077092
    83  C   -0.088071
    84  C   -0.117709
    85  N   -0.288305
    86  C   -0.036148
    87  C   -0.083749
    88  C   -0.089631
    89  C    0.019684
    90  C    0.040485
    91  C    0.000248
    92  C   -0.089385
    93  H    0.044106
    94  N   -0.478590
    95  C    0.175859
    96  C   -0.189341
    97  C   -0.081163
    98  C    0.188724
    99  C    0.062354
   100  C    0.064875
   101  O   -0.213742
   102  C   -0.007222
   103  N   -0.342141
   104  C    0.014450
   105  C   -0.099244
   106  C   -0.054362
   107  C    0.091276
   108  C    0.035521
   109  C   -0.009986
   110  C   -0.072537
   111  N   -0.486579
   112  C    0.144435
   113  C   -0.184327
   114  C   -0.031072
   115  C    0.180568
   116  C    0.067887
   117  C    0.153427
   118  O   -0.233675
   119  C   -0.147618
   120  C    0.242669
   121  O   -0.185761
   122  O   -0.368571
   123  C    0.110511
   124  H    0.003743
   125  H    0.009634
   126  H   -0.005488
   127  H    0.019474
   128  H    0.022924
   129  H    0.039823
   130  H    0.043881
   131  H    0.040331
   132  H    0.025758
   133  H    0.065941
   134  H    0.042724
   135  H    0.038200
   136  H    0.059050
   137  H    0.057769
   138  H    0.030215
   139  H    0.058139
   140  H    0.020556
   141  H    0.069217
   142  H    0.047931
   143  H    0.031233
   144  H    0.046305
   145  H    0.047885
   146  H    0.054215
   147  H    0.029199
   148  H    0.040715
   149  H    0.032761
   150  H    0.032903
   151  H    0.039565
   152  H    0.062308
   153  H    0.042971
   154  H    0.047412
   155  H    0.085735
   156  H    0.070137
   157  H    0.062600
   158  H    0.062944
 Sum of Mulliken charges =  -0.00000

 Dipole moment (field-independent basis, Debye):
    X=              1.5749    Y=             -2.6468    Z=             -1.9503  Tot=              3.6455
 Quadrupole moment (field-independent basis, Debye-Ang):
   XX=           -106.4466   YY=           -472.8249   ZZ=           -501.2653
   XY=             17.4116   XZ=             32.9222   YZ=             26.1680

 Normal termination of Gaussian 16 at Mon Sep 20 05:36:44 2021.
