 Gaussian 16, Revision A.03,
 Gaussian 16:  ES64L-G16RevA.03 25-Dec-2016

 --------------------------------
 #p wB97XD/Def2SVP td=(nstates=5)
 --------------------------------

 --------------------------------
 TDDFT excited states in gaussian
 --------------------------------
 Symbolic Z-matrix:
 Charge =  0 Multiplicity = 1

                         Standard orientation:
 ---------------------------------------------------------------------
 Center     Atomic      Atomic             Coordinates (Angstroms)
 Number     Number       Type             X           Y           Z
 ---------------------------------------------------------------------
      1         12           0      -10.823777   -0.066829   -0.241514
      2          6           0       -7.921780   -1.062223    1.358843
      3          6           0      -10.243831    3.184599    0.785927
      4          6           0      -13.197110    0.940392   -2.420420
      5          6           0      -11.038421   -3.368517   -1.462345
      6          7           0       -9.092332    0.991338    0.707519
      7          6           0       -8.171587    0.326377    1.410992
      8          6           0       -7.185125    1.330377    2.083719
      9          6           0       -8.084343    2.654642    2.130327
     10          6           0       -9.288279    2.253402    1.194809
     11          6           0       -8.427867    3.099793    3.572319
     12          6           0       -5.974552    1.549507    1.205135
     13          6           0       -4.642575    1.634362    1.934001
     14          1           0       -3.491741    2.616922    1.496641
     15          7           0      -11.716058    1.840423   -0.595039
     16          6           0      -11.319535    3.048733   -0.159703
     17          6           0      -12.236196    4.013197   -0.675167
     18          6           0      -13.224731    3.366398   -1.477246
     19          6           0      -12.776166    1.968985   -1.515605
     20          6           0      -12.219227    5.424889   -0.217833
     21          6           0      -14.281124    4.083513   -2.240265
     22          8           0      -14.408746    5.291046   -2.124086
     23          6           0      -15.271815    3.337891   -3.126358
     24          7           0      -12.054366   -1.155064   -1.727412
     25          6           0      -12.896704   -0.435614   -2.520581
     26          6           0      -13.407333   -1.275411   -3.646016
     27          6           0      -12.689683   -2.670464   -3.323269
     28          6           0      -11.906547   -2.463441   -2.050626
     29          6           0      -14.941687   -1.326729   -3.769397
     30          6           0      -11.804230   -3.286896   -4.494988
     31          6           0      -12.017953   -4.747691   -4.956530
     32          7           0       -9.768821   -1.840288   -0.091020
     33          6           0      -10.011980   -3.088446   -0.571880
     34          6           0       -9.234276   -4.024911    0.110574
     35          6           0       -8.375893   -3.304529    0.929506
     36          6           0       -8.687829   -1.985092    0.716994
     37          6           0       -9.267053   -5.559105   -0.152028
     38          6           0       -7.353482   -3.375328    1.864986
     39          8           0       -6.723232   -4.364510    2.221998
     40          6           0       -6.902866   -1.878350    2.225683
     41          6           0       -7.148081   -1.563675    3.586844
     42          8           0       -8.196400   -1.291700    4.176888
     43          8           0       -5.907358   -1.594294    4.216073
     44          6           0       -5.786714   -1.317077    5.637146
     45          1           0      -10.155410    4.177054    1.232256
     46          1           0      -13.976086    1.113569   -3.166466
     47          1           0      -11.254007   -4.373177   -1.832278
     48          1           0       -6.891627    0.914091    3.046994
     49          1           0       -7.662930    3.497001    1.582703
     50          1           0       -8.087764    2.374804    4.311530
     51          1           0       -9.505208    3.242831    3.661726
     52          1           0       -7.973920    4.078038    3.728975
     53          1           0       -5.998169    2.391362    0.512866
     54          1           0       -6.012149    0.730805    0.486536
     55          1           0       -4.261701    0.615151    1.996906
     56          1           0       -4.971229    1.908123    2.936554
     57          1           0      -12.998237    5.437368    0.544230
     58          1           0      -12.428854    6.113728   -1.036385
     59          1           0      -11.263775    5.725787    0.212039
     60          1           0      -14.739524    3.136324   -4.056072
     61          1           0      -16.029628    4.071898   -3.399228
     62          1           0      -15.638697    2.441094   -2.627271
     63          1           0      -12.951992   -0.755610   -4.488352
     64          1           0      -13.415293   -3.473288   -3.192510
     65          1           0      -15.190407   -0.713665   -4.636280
     66          1           0      -15.452454   -0.982046   -2.869687
     67          1           0      -15.250459   -2.345462   -4.002538
     68          1           0      -10.757530   -3.227524   -4.197015
     69          1           0      -11.919440   -2.753074   -5.438569
     70          1           0      -11.318995   -5.249890   -4.287809
     71          1           0      -11.674223   -4.875142   -5.982215
     72          1           0      -12.947437   -5.266441   -4.722260
     73          1           0       -8.765959   -5.756579   -1.098800
     74          1           0      -10.253741   -6.001701   -0.289990
     75          1           0       -8.741683   -6.100077    0.635503
     76          1           0       -5.857133   -1.805699    1.926513
     77          1           0       -4.944795   -1.903316    6.004092
     78          1           0       -6.702684   -1.443751    6.214866
     79          1           0       -5.449908   -0.285527    5.740900
     80         12           0       10.519425    0.104377   -0.620069
     81          6           0        8.060437    0.857739    1.752792
     82          6           0       10.230879   -3.214101    0.144818
     83          6           0       13.081328   -0.489345   -2.626394
     84          6           0       10.851596    3.618642   -1.182231
     85          7           0        9.295459   -1.022879    0.843824
     86          6           0        8.300764   -0.558730    1.675594
     87          6           0        7.503814   -1.716042    2.248704
     88          6           0        8.414357   -2.966802    1.928718
     89          6           0        9.324996   -2.343661    0.816430
     90          6           0        9.217285   -3.460108    3.125663
     91          6           0        6.026882   -1.669151    1.711721
     92          6           0        5.197233   -2.931909    2.074828
     93          1           0        5.563475   -3.638757    3.363306
     94          7           0       11.471667   -1.559385   -1.158239
     95          6           0       11.294133   -2.845986   -0.665322
     96          6           0       12.260563   -3.792340   -1.249797
     97          6           0       13.066896   -2.970548   -2.096065
     98          6           0       12.551663   -1.609618   -1.971326
     99          6           0       12.240985   -5.248940   -0.972922
    100          6           0       14.230645   -3.432544   -2.934643
    101          8           0       14.862771   -2.644941   -3.691876
    102          6           0       14.643786   -4.879004   -2.968464
    103          7           0       11.758399    1.401764   -1.797071
    104          6           0       12.733525    0.856149   -2.524370
    105          6           0       13.621496    1.991381   -3.200298
    106          6           0       12.907146    3.363342   -2.688074
    107          6           0       11.786017    2.775529   -1.830012
    108          6           0       15.120124    1.808647   -2.722155
    109          6           0       12.283031    4.252091   -3.847278
    110          6           0       13.257966    5.250539   -4.534918
    111          7           0        9.736548    1.879499    0.125973
    112          6           0        9.860962    3.240505   -0.259277
    113          6           0        8.885573    4.092075    0.552331
    114          6           0        8.212488    3.220912    1.402941
    115          6           0        8.715401    1.871069    1.041180
    116          6           0        8.642349    5.564671    0.441829
    117          6           0        7.185473    3.081578    2.408679
    118          8           0        6.467269    3.908184    2.979907
    119          6           0        6.905835    1.504178    2.556163
    120          6           0        6.850353    1.052082    3.997467
    121          8           0        7.813873    0.732378    4.639881
    122          8           0        5.517541    0.827406    4.410181
    123          6           0        5.312685   -0.023455    5.592041
    124          1           0       10.054769   -4.220059    0.532394
    125          1           0       13.936499   -0.690107   -3.275348
    126          1           0       10.970719    4.703302   -1.226646
    127          1           0        7.438542   -1.565349    3.325511
    128          1           0        7.903455   -3.818231    1.477948
    129          1           0        8.945688   -4.508467    3.248353
    130          1           0        9.011401   -2.805292    3.972067
    131          1           0       10.280810   -3.557951    2.909163
    132          1           0        6.185664   -1.347510    0.682903
    133          1           0        5.575740   -0.802295    2.193388
    134          1           0        5.347055   -3.579403    1.210834
    135          1           0        4.150969   -2.636102    2.150498
    136          1           0       13.191453   -5.400907   -0.461726
    137          1           0       12.117562   -5.856041   -1.869352
    138          1           0       11.496567   -5.654773   -0.286712
    139          1           0       13.832772   -5.467733   -3.394929
    140          1           0       14.831494   -5.014183   -1.902563
    141          1           0       15.580147   -5.104591   -3.478045
    142          1           0       13.420667    1.783603   -4.252017
    143          1           0       13.423855    3.945376   -1.923772
    144          1           0       15.274785    0.988095   -2.021741
    145          1           0       15.461984    2.715644   -2.222847
    146          1           0       15.677811    1.535485   -3.617474
    147          1           0       11.324782    4.687286   -3.565054
    148          1           0       12.002210    3.551226   -4.632757
    149          1           0       13.226186    5.032059   -5.601739
    150          1           0       14.238954    5.150643   -4.070210
    151          1           0       12.941020    6.285831   -4.406927
    152          1           0        7.673095    5.674782   -0.044992
    153          1           0        9.441573    6.037493   -0.130225
    154          1           0        8.548773    6.135737    1.365298
    155          1           0        5.962158    1.318786    2.043947
    156          1           0        5.528263    0.625170    6.440689
    157          1           0        5.886522   -0.946610    5.508347
    158          1           0        4.267838   -0.331542    5.564451
 ---------------------------------------------------------------------

 SCF Done:  E(RwB97XD) =  -4070.60131301     A.U. after   20 cycles

 Excitation energies and oscillator strengths:

 Excited State   1:      Singlet-A      1.6373 eV  757.24 nm  f=0.3777  <S**2>=0.000
     309 -> 315        0.19076
     311 -> 313        0.68224
     309 <- 315        0.11958
 This state for optimization and/or second-order correction.
 Total Energy, E(TD-HF/TD-DFT) =  -4070.54114279
 Copying the excited state density for this state as the 1-particle RhoCI density.

 Excited State   2:      Singlet-A      1.6547 eV  749.29 nm  f=0.3984  <S**2>=0.000
     310 -> 316       -0.20527
     312 -> 314        0.67770
     310 <- 316       -0.12135

 Excited State   3:      Singlet-A      2.1719 eV  570.85 nm  f=0.0984  <S**2>=0.000
     309 -> 313        0.63465
     311 -> 315       -0.29639

 Excited State   4:      Singlet-A      2.2347 eV  554.81 nm  f=0.0336  <S**2>=0.000
     310 -> 314        0.58757
     312 -> 316        0.38592

 Excited State   5:      Singlet-A      3.2965 eV  376.11 nm  f=0.0000  <S**2>=0.000
     312 -> 313        0.70699

 The electronic state is 1-A.
 Alpha  occ. eigenvalues --  -46.96050 -46.94396 -19.29915 -19.29196 -19.25203
 Alpha  occ. eigenvalues --  -19.25163 -19.24357 -19.24251 -19.23437 -19.23385
 Alpha  occ. eigenvalues --  -14.46938 -14.46714 -14.46634 -14.46104 -14.44561
 Alpha  occ. eigenvalues --  -14.44485 -14.44442 -14.43839 -10.43483 -10.43259
 Alpha  occ. eigenvalues --  -10.39565 -10.39290 -10.39218 -10.38592 -10.35578
 Alpha  occ. eigenvalues --  -10.35468 -10.35456 -10.35415 -10.35347 -10.35178
 Alpha  occ. eigenvalues --  -10.34915 -10.34909 -10.34740 -10.34642 -10.34372
 Alpha  occ. eigenvalues --  -10.34348 -10.34346 -10.34153 -10.33830 -10.33522
 Alpha  occ. eigenvalues --  -10.33472 -10.33453 -10.33389 -10.33222 -10.32791
 Alpha  occ. eigenvalues --  -10.32768 -10.32595 -10.32510 -10.32499 -10.32419
 Alpha  occ. eigenvalues --  -10.32375 -10.32334 -10.32271 -10.32239 -10.32230
 Alpha  occ. eigenvalues --  -10.32224 -10.31936 -10.31932 -10.31913 -10.31767
 Alpha  occ. eigenvalues --  -10.31717 -10.31679 -10.31544 -10.31447 -10.31098
 Alpha  occ. eigenvalues --  -10.31065 -10.30963 -10.30771 -10.30755 -10.30727
 Alpha  occ. eigenvalues --  -10.30619 -10.30485 -10.30366 -10.30288 -10.30074
 Alpha  occ. eigenvalues --  -10.30035 -10.29973 -10.29924 -10.29762 -10.29686
 Alpha  occ. eigenvalues --  -10.29583 -10.29414 -10.29188 -10.29177 -10.28892
 Alpha  occ. eigenvalues --  -10.28834  -3.21839  -3.20495  -1.95437  -1.94952
 Alpha  occ. eigenvalues --   -1.94797  -1.94095  -1.93607  -1.93497  -1.17940
 Alpha  occ. eigenvalues --   -1.17601  -1.12322  -1.12210  -1.11362  -1.10007
 Alpha  occ. eigenvalues --   -1.09963  -1.09744  -1.07584  -1.06303  -1.06103
 Alpha  occ. eigenvalues --   -1.05895  -1.05458  -1.04806  -1.04690  -1.03384
 Alpha  occ. eigenvalues --   -0.95928  -0.93559  -0.91432  -0.91001  -0.90832
 Alpha  occ. eigenvalues --   -0.90394  -0.90291  -0.89852  -0.89730  -0.89466
 Alpha  occ. eigenvalues --   -0.88874  -0.88627  -0.88221  -0.88192  -0.87396
 Alpha  occ. eigenvalues --   -0.86551  -0.86121  -0.84970  -0.84828  -0.84171
 Alpha  occ. eigenvalues --   -0.84092  -0.83795  -0.83478  -0.82768  -0.82668
 Alpha  occ. eigenvalues --   -0.81938  -0.80919  -0.80161  -0.79580  -0.79327
 Alpha  occ. eigenvalues --   -0.78866  -0.78523  -0.78439  -0.77672  -0.77140
 Alpha  occ. eigenvalues --   -0.76461  -0.75526  -0.74404  -0.74049  -0.73414
 Alpha  occ. eigenvalues --   -0.71861  -0.71307  -0.71229  -0.70497  -0.70265
 Alpha  occ. eigenvalues --   -0.70105  -0.69357  -0.69062  -0.68119  -0.67855
 Alpha  occ. eigenvalues --   -0.67512  -0.67393  -0.67088  -0.66886  -0.65886
 Alpha  occ. eigenvalues --   -0.65738  -0.64740  -0.63252  -0.62639  -0.62511
 Alpha  occ. eigenvalues --   -0.61948  -0.61444  -0.61121  -0.61091  -0.60678
 Alpha  occ. eigenvalues --   -0.60186  -0.60026  -0.59715  -0.59498  -0.58744
 Alpha  occ. eigenvalues --   -0.58357  -0.58133  -0.58111  -0.57792  -0.57480
 Alpha  occ. eigenvalues --   -0.56818  -0.56506  -0.56347  -0.56095  -0.55864
 Alpha  occ. eigenvalues --   -0.55581  -0.55533  -0.55342  -0.55178  -0.54611
 Alpha  occ. eigenvalues --   -0.54426  -0.54279  -0.54128  -0.54073  -0.54029
 Alpha  occ. eigenvalues --   -0.53834  -0.53804  -0.53628  -0.53469  -0.53323
 Alpha  occ. eigenvalues --   -0.53213  -0.53076  -0.52769  -0.52374  -0.52323
 Alpha  occ. eigenvalues --   -0.52100  -0.52015  -0.51961  -0.51536  -0.51446
 Alpha  occ. eigenvalues --   -0.51439  -0.51352  -0.51211  -0.50995  -0.50948
 Alpha  occ. eigenvalues --   -0.50897  -0.50763  -0.50406  -0.50345  -0.50211
 Alpha  occ. eigenvalues --   -0.50032  -0.49990  -0.49465  -0.49336  -0.48862
 Alpha  occ. eigenvalues --   -0.48762  -0.48736  -0.48663  -0.48558  -0.48099
 Alpha  occ. eigenvalues --   -0.48081  -0.47986  -0.47914  -0.47787  -0.47645
 Alpha  occ. eigenvalues --   -0.47492  -0.47428  -0.47277  -0.47121  -0.47118
 Alpha  occ. eigenvalues --   -0.47076  -0.46752  -0.46668  -0.46601  -0.46504
 Alpha  occ. eigenvalues --   -0.46073  -0.45886  -0.45851  -0.45585  -0.45401
 Alpha  occ. eigenvalues --   -0.45392  -0.45099  -0.45039  -0.44975  -0.44848
 Alpha  occ. eigenvalues --   -0.44803  -0.44449  -0.44207  -0.44174  -0.44077
 Alpha  occ. eigenvalues --   -0.44023  -0.43877  -0.43805  -0.43469  -0.43356
 Alpha  occ. eigenvalues --   -0.43275  -0.42938  -0.42801  -0.42238  -0.42231
 Alpha  occ. eigenvalues --   -0.42056  -0.41629  -0.41075  -0.40939  -0.40415
 Alpha  occ. eigenvalues --   -0.40285  -0.40168  -0.40088  -0.39931  -0.39877
 Alpha  occ. eigenvalues --   -0.39412  -0.39244  -0.38802  -0.38313  -0.38231
 Alpha  occ. eigenvalues --   -0.37779  -0.37597  -0.36863  -0.36516  -0.36464
 Alpha  occ. eigenvalues --   -0.36120  -0.35782  -0.35390  -0.34059  -0.33458
 Alpha  occ. eigenvalues --   -0.33303  -0.33048  -0.32701  -0.32644  -0.32579
 Alpha  occ. eigenvalues --   -0.32433  -0.32212  -0.31666  -0.26503  -0.25892
 Alpha  occ. eigenvalues --   -0.23370  -0.22199
 Alpha virt. eigenvalues --   -0.07574  -0.06218  -0.00396  -0.00219   0.01854
 Alpha virt. eigenvalues --    0.01868   0.04275   0.04425   0.05656   0.06195
 Alpha virt. eigenvalues --    0.06337   0.06725   0.07217   0.07757   0.08132

 Mulliken charges:
               1
     1  Mg   0.939155
     2  C   -0.063787
     3  C   -0.087967
     4  C   -0.039824
     5  C   -0.124338
     6  N   -0.332224
     7  C    0.013287
     8  C   -0.124585
     9  C   -0.102973
    10  C    0.083860
    11  C    0.035752
    12  C    0.029685
    13  C   -0.117146
    14  H    0.046386
    15  N   -0.455961
    16  C    0.158424
    17  C   -0.182083
    18  C   -0.057265
    19  C    0.198630
    20  C    0.076188
    21  C    0.004739
    22  O   -0.235890
    23  C    0.002841
    24  N   -0.354007
    25  C   -0.009495
    26  C   -0.086570
    27  C   -0.051293
    28  C    0.062251
    29  C    0.022929
    30  C   -0.053170
    31  C   -0.067772
    32  N   -0.434088
    33  C    0.194213
    34  C   -0.187482
    35  C    0.053464
    36  C    0.162264
    37  C    0.075204
    38  C    0.056124
    39  O   -0.207672
    40  C   -0.077219
    41  C    0.295233
    42  O   -0.257174
    43  O   -0.389011
    44  C    0.139764
    45  H    0.000177
    46  H   -0.030071
    47  H   -0.003749
    48  H    0.037047
    49  H    0.046037
    50  H    0.048933
    51  H    0.033921
    52  H    0.036510
    53  H    0.037381
    54  H    0.026747
    55  H    0.055057
    56  H    0.044700
    57  H    0.060792
    58  H    0.065695
    59  H    0.024663
    60  H    0.059363
    61  H    0.052073
    62  H    0.063606
    63  H    0.053046
    64  H    0.024056
    65  H    0.042404
    66  H    0.053204
    67  H    0.040405
    68  H    0.043537
    69  H    0.030902
    70  H    0.022214
    71  H    0.047919
    72  H    0.040150
    73  H    0.047214
    74  H    0.037823
    75  H    0.061985
    76  H    0.082719
    77  H    0.056278
    78  H    0.068936
    79  H    0.036928
    80  Mg   0.984936
    81  C   -0.029868
    82  C   -0.097638
    83  C   -0.088174
    84  C   -0.091718
    85  N   -0.320877
    86  C   -0.001361
    87  C   -0.052590
    88  C   -0.133750
    89  C    0.011245
    90  C    0.044454
    91  C   -0.023052
    92  C   -0.099830
    93  H    0.046743
    94  N   -0.499710
    95  C    0.214794
    96  C   -0.158568
    97  C   -0.076644
    98  C    0.175237
    99  C    0.073739
   100  C    0.037652
   101  O   -0.272556
   102  C    0.020743
   103  N   -0.348891
   104  C    0.045903
   105  C   -0.087878
   106  C   -0.049374
   107  C    0.040494
   108  C    0.013521
   109  C   -0.039880
   110  C   -0.032194
   111  N   -0.451947
   112  C    0.124972
   113  C   -0.194164
   114  C   -0.009101
   115  C    0.139172
   116  C    0.070694
   117  C    0.151137
   118  O   -0.215279
   119  C   -0.144280
   120  C    0.289322
   121  O   -0.219332
   122  O   -0.405927
   123  C    0.143349
   124  H   -0.010980
   125  H    0.021170
   126  H    0.001133
   127  H    0.028655
   128  H    0.029686
   129  H    0.028776
   130  H    0.059055
   131  H    0.036075
   132  H    0.041178
   133  H    0.036707
   134  H    0.058580
   135  H    0.060089
   136  H    0.054071
   137  H    0.057852
   138  H    0.036258
   139  H    0.065626
   140  H    0.039214
   141  H    0.055156
   142  H    0.050589
   143  H    0.044429
   144  H    0.052666
   145  H    0.038240
   146  H    0.049554
   147  H    0.034776
   148  H    0.019186
   149  H    0.041718
   150  H    0.039424
   151  H    0.036777
   152  H    0.060473
   153  H    0.027098
   154  H    0.060348
   155  H    0.091862
   156  H    0.068308
   157  H    0.050350
   158  H    0.052377
 Sum of Mulliken charges =  -0.00000

 Dipole moment (field-independent basis, Debye):
    X=             -1.4110    Y=             -5.1485    Z=             -3.5691  Tot=              6.4215
 Quadrupole moment (field-independent basis, Debye-Ang):
   XX=           -508.0995   YY=           -505.0304   ZZ=           -504.0124
   XY=             13.5495   XZ=             25.0902   YZ=              2.3349

 Normal termination of Gaussian 16 at Sun Sep 19 03:11:30 2021.
