 Gaussian 16, Revision A.03,
 Gaussian 16:  ES64L-G16RevA.03 25-Dec-2016

 --------------------------------
 #p wB97XD/Def2SVP td=(nstates=5)
 --------------------------------

 --------------------------------
 TDDFT excited states in gaussian
 --------------------------------
 Symbolic Z-matrix:
 Charge =  0 Multiplicity = 1

                         Standard orientation:
 ---------------------------------------------------------------------
 Center     Atomic      Atomic             Coordinates (Angstroms)
 Number     Number       Type             X           Y           Z
 ---------------------------------------------------------------------
      1         12           0       24.870048   -0.580441    0.513098
      2          6           0       25.217628    1.895740   -1.903745
      3          6           0       24.160623    1.844383    2.828225
      4          6           0       24.859927   -3.017562    2.895233
      5          6           0       25.875576   -2.886204   -1.998016
      6          7           0       24.742455    1.608346    0.477195
      7          6           0       24.806712    2.368253   -0.660870
      8          6           0       24.490073    3.805595   -0.240422
      9          6           0       24.463093    3.794967    1.277614
     10          6           0       24.416242    2.295109    1.546323
     11          6           0       25.537112    4.510918    2.051812
     12          6           0       23.194176    4.455195   -0.923734
     13          6           0       22.735065    5.831647   -0.343867
     14          1           0       23.288683    7.129683   -0.987820
     15          7           0       24.407885   -0.578203    2.536271
     16          6           0       24.175398    0.509367    3.312600
     17          6           0       24.001032    0.025978    4.657590
     18          6           0       24.211968   -1.384209    4.666964
     19          6           0       24.531015   -1.726078    3.354073
     20          6           0       23.671766    0.975813    5.767625
     21          6           0       24.249933   -2.302575    5.923078
     22          8           0       24.767056   -3.405050    5.896583
     23          6           0       23.791818   -1.885713    7.238460
     24          7           0       25.280178   -2.531638    0.435943
     25          6           0       25.172636   -3.386074    1.532804
     26          6           0       25.466700   -4.851844    1.169129
     27          6           0       25.495496   -4.788403   -0.395913
     28          6           0       25.505065   -3.293308   -0.668796
     29          6           0       26.558396   -5.509846    1.906786
     30          6           0       24.372189   -5.601298   -1.248853
     31          6           0       24.786188   -6.679460   -2.254846
     32          7           0       25.508564   -0.535770   -1.587458
     33          6           0       25.886864   -1.551772   -2.419602
     34          6           0       26.198826   -1.063643   -3.720594
     35          6           0       25.870948    0.340747   -3.599569
     36          6           0       25.540152    0.607709   -2.241456
     37          6           0       26.622321   -1.917884   -4.854167
     38          6           0       25.725546    1.563073   -4.356134
     39          8           0       25.825256    1.845475   -5.534020
     40          6           0       25.285633    2.659108   -3.218160
     41          6           0       26.142791    3.870917   -3.269161
     42          8           0       27.321159    3.873735   -2.987790
     43          8           0       25.463042    4.967253   -3.648411
     44          6           0       26.159071    6.301846   -3.491694
     45          1           0       23.881479    2.606998    3.558638
     46          1           0       24.856608   -3.777658    3.679039
     47          1           0       26.137136   -3.743053   -2.622689
     48          1           0       25.377630    4.309703   -0.622556
     49          1           0       23.553350    4.284444    1.624397
     50          1           0       26.096577    3.646603    2.408345
     51          1           0       25.133376    5.159589    2.829328
     52          1           0       26.229822    5.047650    1.403249
     53          1           0       22.439983    3.693446   -0.725036
     54          1           0       23.359492    4.569723   -1.994373
     55          1           0       23.008147    5.937482    0.705301
     56          1           0       21.646575    5.865425   -0.390037
     57          1           0       23.485134    2.020253    5.515860
     58          1           0       24.560359    1.006367    6.397287
     59          1           0       22.869777    0.617523    6.413328
     60          1           0       24.112403   -0.929426    7.650510
     61          1           0       23.926694   -2.616850    8.035440
     62          1           0       22.710029   -1.882201    7.106616
     63          1           0       24.509468   -5.268684    1.483447
     64          1           0       26.519788   -5.123864   -0.557572
     65          1           0       26.287410   -6.350113    2.546590
     66          1           0       27.032790   -4.752283    2.531153
     67          1           0       27.325838   -5.947851    1.268721
     68          1           0       23.798028   -4.865606   -1.811733
     69          1           0       23.598507   -6.126747   -0.687728
     70          1           0       24.731312   -6.376951   -3.300914
     71          1           0       24.338009   -7.658448   -2.087470
     72          1           0       25.859440   -6.832120   -2.140326
     73          1           0       27.379888   -2.614775   -4.496427
     74          1           0       26.961446   -1.339485   -5.713137
     75          1           0       25.807106   -2.613661   -5.055303
     76          1           0       24.282504    2.977676   -3.499758
     77          1           0       25.591976    6.932593   -4.175911
     78          1           0       27.202464    6.186780   -3.784586
     79          1           0       25.996294    6.618459   -2.461365
     80         12           0      -24.661525   -0.694530   -0.176622
     81          6           0      -25.841767    2.130071    1.515806
     82          6           0      -23.442089    1.210552   -2.554306
     83          6           0      -24.213904   -3.487350   -2.126902
     84          6           0      -26.410117   -2.745102    2.104408
     85          7           0      -24.582606    1.401269   -0.383333
     86          6           0      -25.051976    2.415366    0.422284
     87          6           0      -24.562848    3.780426   -0.044168
     88          6           0      -23.999464    3.442533   -1.461757
     89          6           0      -23.903504    1.956822   -1.432946
     90          6           0      -24.667905    4.019861   -2.690739
     91          6           0      -23.575061    4.493877    0.933332
     92          6           0      -23.099689    5.879885    0.484142
     93          1           0      -23.258407    7.001717    1.499917
     94          7           0      -23.947433   -1.089219   -2.202878
     95          6           0      -23.350663   -0.142847   -2.957174
     96          6           0      -22.787768   -0.756878   -4.127676
     97          6           0      -23.104571   -2.124902   -4.067081
     98          6           0      -23.800030   -2.276268   -2.760068
     99          6           0      -22.063876    0.007209   -5.216124
    100          6           0      -22.747146   -3.231762   -5.004134
    101          8           0      -23.184869   -4.412695   -4.963447
    102          6           0      -21.731196   -2.995239   -6.114934
    103          7           0      -25.249088   -2.765919   -0.039972
    104          6           0      -24.998344   -3.682545   -1.003594
    105          6           0      -25.378719   -5.162578   -0.457569
    106          6           0      -25.633181   -4.890390    1.066619
    107          6           0      -25.709800   -3.397778    1.104173
    108          6           0      -26.624536   -5.703600   -1.262284
    109          6           0      -24.381711   -5.302802    1.924672
    110          6           0      -23.007984   -4.776352    1.539337
    111          7           0      -25.874271   -0.411011    1.567915
    112          6           0      -26.481531   -1.356835    2.347483
    113          6           0      -27.144966   -0.681204    3.363679
    114          6           0      -26.987148    0.715937    3.134321
    115          6           0      -26.199881    0.831463    2.018940
    116          6           0      -27.995433   -1.230941    4.454011
    117          6           0      -27.309622    2.095115    3.565441
    118          8           0      -28.013231    2.558698    4.455595
    119          6           0      -26.476993    3.071655    2.566632
    120          6           0      -27.339235    4.183691    2.085285
    121          8           0      -28.575802    4.081822    1.829427
    122          8           0      -26.612419    5.291102    2.149863
    123          6           0      -27.395184    6.512005    2.168534
    124          1           0      -22.919181    1.793950   -3.315169
    125          1           0      -24.047208   -4.390668   -2.718524
    126          1           0      -26.827865   -3.412197    2.860051
    127          1           0      -25.457040    4.403411   -0.016364
    128          1           0      -22.964130    3.758589   -1.593948
    129          1           0      -25.300675    4.894771   -2.541752
    130          1           0      -25.234687    3.233481   -3.189922
    131          1           0      -23.890344    4.142357   -3.444986
    132          1           0      -22.717575    3.847776    1.123151
    133          1           0      -24.055357    4.601612    1.905311
    134          1           0      -23.804030    6.334051   -0.212582
    135          1           0      -22.091953    5.838412    0.069752
    136          1           0      -22.102374    1.092005   -5.117653
    137          1           0      -22.498635   -0.060756   -6.213055
    138          1           0      -21.012031   -0.264200   -5.311030
    139          1           0      -22.184520   -2.323411   -6.843271
    140          1           0      -21.610782   -3.871798   -6.751120
    141          1           0      -20.749843   -2.696347   -5.744773
    142          1           0      -24.554403   -5.847587   -0.656042
    143          1           0      -26.598737   -5.351192    1.274998
    144          1           0      -26.842720   -5.130484   -2.163585
    145          1           0      -27.557931   -5.693660   -0.699219
    146          1           0      -26.487959   -6.711859   -1.650609
    147          1           0      -24.443705   -6.384121    1.801739
    148          1           0      -24.470784   -5.092674    2.990083
    149          1           0      -23.045733   -4.318049    0.550856
    150          1           0      -22.177384   -5.475498    1.629993
    151          1           0      -22.802517   -4.062127    2.336725
    152          1           0      -27.509356   -1.995098    5.061073
    153          1           0      -28.828905   -1.712375    3.943314
    154          1           0      -28.400770   -0.453845    5.101215
    155          1           0      -25.706994    3.497306    3.209561
    156          1           0      -26.992033    7.202491    2.910400
    157          1           0      -28.447178    6.407565    2.432978
    158          1           0      -27.286170    6.950280    1.175963
 ---------------------------------------------------------------------

 SCF Done:  E(RwB97XD) =  -4070.62313714     A.U. after   20 cycles

 Excitation energies and oscillator strengths:

 Excited State   1:      Singlet-A      1.6386 eV  756.63 nm  f=0.3910  <S**2>=0.000
     309 -> 315       -0.18463
     312 -> 314        0.68354
     309 <- 315       -0.11771
 This state for optimization and/or second-order correction.
 Total Energy, E(TD-HF/TD-DFT) =  -4070.56291839
 Copying the excited state density for this state as the 1-particle RhoCI density.

 Excited State   2:      Singlet-A      1.6681 eV  743.27 nm  f=0.3965  <S**2>=0.000
     310 -> 316       -0.17127
     311 -> 313        0.68672
     310 <- 316       -0.11161

 Excited State   3:      Singlet-A      2.0912 eV  592.89 nm  f=0.1648  <S**2>=0.000
     310 -> 313        0.66093
     311 -> 316        0.23079

 Excited State   4:      Singlet-A      2.1629 eV  573.23 nm  f=0.0919  <S**2>=0.000
     309 -> 314        0.63067
     312 -> 315        0.30290

 Excited State   5:      Singlet-A      3.0724 eV  403.55 nm  f=0.0090  <S**2>=0.000
     308 -> 313        0.67869

 The electronic state is 1-A.
 Alpha  occ. eigenvalues --  -46.95742 -46.94248 -19.31873 -19.29662 -19.24247
 Alpha  occ. eigenvalues --  -19.24132 -19.24040 -19.23746 -19.23481 -19.23225
 Alpha  occ. eigenvalues --  -14.47540 -14.47360 -14.46644 -14.46445 -14.44387
 Alpha  occ. eigenvalues --  -14.43715 -14.43058 -14.42614 -10.43090 -10.41823
 Alpha  occ. eigenvalues --  -10.39827 -10.39578 -10.38850 -10.38703 -10.36227
 Alpha  occ. eigenvalues --  -10.35886 -10.35758 -10.35690 -10.35192 -10.35165
 Alpha  occ. eigenvalues --  -10.35148 -10.35031 -10.34902 -10.34768 -10.34475
 Alpha  occ. eigenvalues --  -10.34079 -10.34026 -10.33890 -10.33773 -10.33628
 Alpha  occ. eigenvalues --  -10.33243 -10.33014 -10.32618 -10.32483 -10.32407
 Alpha  occ. eigenvalues --  -10.32380 -10.32377 -10.32374 -10.32233 -10.32203
 Alpha  occ. eigenvalues --  -10.32162 -10.32136 -10.31914 -10.31844 -10.31833
 Alpha  occ. eigenvalues --  -10.31822 -10.31820 -10.31658 -10.31606 -10.31517
 Alpha  occ. eigenvalues --  -10.31344 -10.31260 -10.31223 -10.31161 -10.31050
 Alpha  occ. eigenvalues --  -10.31031 -10.30995 -10.30980 -10.30941 -10.30923
 Alpha  occ. eigenvalues --  -10.30523 -10.30470 -10.30440 -10.30404 -10.30241
 Alpha  occ. eigenvalues --  -10.30154 -10.30068 -10.30042 -10.29620 -10.29553
 Alpha  occ. eigenvalues --  -10.29426 -10.29353 -10.29336 -10.29269 -10.28724
 Alpha  occ. eigenvalues --  -10.28284  -3.21589  -3.20325  -1.95184  -1.94679
 Alpha  occ. eigenvalues --   -1.94568  -1.93937  -1.93451  -1.93302  -1.20305
 Alpha  occ. eigenvalues --   -1.18041  -1.13224  -1.11765  -1.11011  -1.10668
 Alpha  occ. eigenvalues --   -1.08949  -1.08117  -1.07529  -1.07264  -1.06408
 Alpha  occ. eigenvalues --   -1.06159  -1.05366  -1.05345  -1.04487  -1.04442
 Alpha  occ. eigenvalues --   -0.94427  -0.93810  -0.91512  -0.91218  -0.91099
 Alpha  occ. eigenvalues --   -0.90605  -0.90371  -0.90305  -0.89994  -0.89524
 Alpha  occ. eigenvalues --   -0.89081  -0.88946  -0.88677  -0.87612  -0.86737
 Alpha  occ. eigenvalues --   -0.86564  -0.85692  -0.85631  -0.84792  -0.84589
 Alpha  occ. eigenvalues --   -0.84403  -0.83837  -0.83372  -0.83321  -0.82738
 Alpha  occ. eigenvalues --   -0.82657  -0.80902  -0.80792  -0.79744  -0.79520
 Alpha  occ. eigenvalues --   -0.79280  -0.79227  -0.78080  -0.77863  -0.77206
 Alpha  occ. eigenvalues --   -0.77126  -0.74800  -0.74739  -0.73825  -0.73736
 Alpha  occ. eigenvalues --   -0.71905  -0.71331  -0.71111  -0.70867  -0.70380
 Alpha  occ. eigenvalues --   -0.70259  -0.69709  -0.68962  -0.67569  -0.67484
 Alpha  occ. eigenvalues --   -0.67398  -0.67222  -0.66698  -0.66644  -0.66531
 Alpha  occ. eigenvalues --   -0.66235  -0.64722  -0.63452  -0.63098  -0.62560
 Alpha  occ. eigenvalues --   -0.61764  -0.61733  -0.61245  -0.60991  -0.60845
 Alpha  occ. eigenvalues --   -0.60558  -0.59995  -0.59535  -0.59265  -0.59260
 Alpha  occ. eigenvalues --   -0.58362  -0.58244  -0.57979  -0.57779  -0.57744
 Alpha  occ. eigenvalues --   -0.57401  -0.57319  -0.57309  -0.56746  -0.56516
 Alpha  occ. eigenvalues --   -0.56361  -0.55793  -0.55266  -0.55132  -0.55123
 Alpha  occ. eigenvalues --   -0.54934  -0.54923  -0.54569  -0.54490  -0.54258
 Alpha  occ. eigenvalues --   -0.54058  -0.53668  -0.53538  -0.53278  -0.52944
 Alpha  occ. eigenvalues --   -0.52935  -0.52797  -0.52541  -0.52482  -0.52442
 Alpha  occ. eigenvalues --   -0.52292  -0.52058  -0.51870  -0.51552  -0.51411
 Alpha  occ. eigenvalues --   -0.51287  -0.51096  -0.51076  -0.50935  -0.50841
 Alpha  occ. eigenvalues --   -0.50580  -0.50517  -0.50471  -0.50282  -0.50205
 Alpha  occ. eigenvalues --   -0.50040  -0.49675  -0.49402  -0.49239  -0.49156
 Alpha  occ. eigenvalues --   -0.49076  -0.48806  -0.48715  -0.48536  -0.48531
 Alpha  occ. eigenvalues --   -0.48469  -0.48308  -0.48203  -0.48048  -0.47901
 Alpha  occ. eigenvalues --   -0.47788  -0.47384  -0.47105  -0.47103  -0.47055
 Alpha  occ. eigenvalues --   -0.46767  -0.46642  -0.46374  -0.46355  -0.46229
 Alpha  occ. eigenvalues --   -0.46216  -0.45952  -0.45821  -0.45678  -0.45662
 Alpha  occ. eigenvalues --   -0.45377  -0.45310  -0.45171  -0.44849  -0.44821
 Alpha  occ. eigenvalues --   -0.44679  -0.44590  -0.44338  -0.44018  -0.44008
 Alpha  occ. eigenvalues --   -0.43834  -0.43757  -0.43494  -0.43399  -0.43247
 Alpha  occ. eigenvalues --   -0.43168  -0.42854  -0.42792  -0.42407  -0.42318
 Alpha  occ. eigenvalues --   -0.42131  -0.41541  -0.41471  -0.41215  -0.41158
 Alpha  occ. eigenvalues --   -0.40729  -0.40635  -0.39872  -0.39786  -0.39395
 Alpha  occ. eigenvalues --   -0.39240  -0.38922  -0.38891  -0.38592  -0.38359
 Alpha  occ. eigenvalues --   -0.38312  -0.38096  -0.36248  -0.36148  -0.36070
 Alpha  occ. eigenvalues --   -0.35972  -0.35066  -0.35000  -0.34185  -0.33287
 Alpha  occ. eigenvalues --   -0.33208  -0.33205  -0.32987  -0.32253  -0.32099
 Alpha  occ. eigenvalues --   -0.31932  -0.31246  -0.30653  -0.26153  -0.26012
 Alpha  occ. eigenvalues --   -0.23616  -0.22958
 Alpha virt. eigenvalues --   -0.07745  -0.07188   0.00008   0.00621   0.01960
 Alpha virt. eigenvalues --    0.02649   0.04510   0.04801   0.04919   0.06449
 Alpha virt. eigenvalues --    0.06597   0.07121   0.07310   0.07901   0.08347

 Mulliken charges:
               1
     1  Mg   0.969607
     2  C    0.026908
     3  C   -0.088575
     4  C   -0.071901
     5  C   -0.105572
     6  N   -0.331572
     7  C   -0.006690
     8  C   -0.044453
     9  C   -0.151643
    10  C    0.059869
    11  C    0.050724
    12  C    0.000401
    13  C   -0.115592
    14  H    0.029179
    15  N   -0.488131
    16  C    0.172357
    17  C   -0.166695
    18  C   -0.057461
    19  C    0.125985
    20  C    0.053194
    21  C    0.071536
    22  O   -0.233710
    23  C   -0.004423
    24  N   -0.422668
    25  C    0.060814
    26  C   -0.086643
    27  C   -0.053636
    28  C    0.048486
    29  C    0.042944
    30  C   -0.002768
    31  C   -0.069045
    32  N   -0.373858
    33  C    0.160183
    34  C   -0.166659
    35  C   -0.076306
    36  C    0.113079
    37  C    0.102516
    38  C    0.145443
    39  O   -0.193139
    40  C   -0.138663
    41  C    0.241388
    42  O   -0.254347
    43  O   -0.372511
    44  C    0.133491
    45  H   -0.016258
    46  H    0.028716
    47  H    0.001721
    48  H    0.035417
    49  H    0.021831
    50  H    0.039195
    51  H    0.043585
    52  H    0.038598
    53  H    0.034459
    54  H    0.060915
    55  H    0.043704
    56  H    0.059078
    57  H    0.039668
    58  H    0.049925
    59  H    0.047186
    60  H    0.056603
    61  H    0.050145
    62  H    0.049704
    63  H    0.038388
    64  H    0.031820
    65  H    0.040583
    66  H    0.046753
    67  H    0.027963
    68  H    0.036084
    69  H    0.035516
    70  H    0.039388
    71  H    0.045770
    72  H    0.018555
    73  H    0.034853
    74  H    0.072758
    75  H    0.044356
    76  H    0.067396
    77  H    0.062656
    78  H    0.082055
    79  H    0.059472
    80  Mg   0.941069
    81  C    0.025565
    82  C   -0.076126
    83  C   -0.054464
    84  C   -0.071394
    85  N   -0.396560
    86  C   -0.020267
    87  C   -0.029392
    88  C   -0.089413
    89  C    0.104811
    90  C    0.044372
    91  C    0.022449
    92  C   -0.128872
    93  H    0.030695
    94  N   -0.379694
    95  C    0.094851
    96  C   -0.112298
    97  C   -0.048704
    98  C    0.101615
    99  C    0.053446
   100  C    0.041257
   101  O   -0.259325
   102  C   -0.009170
   103  N   -0.351663
   104  C    0.069253
   105  C   -0.145129
   106  C   -0.029972
   107  C    0.038994
   108  C    0.014261
   109  C   -0.014303
   110  C   -0.051408
   111  N   -0.418444
   112  C    0.151817
   113  C   -0.204267
   114  C   -0.041210
   115  C    0.088470
   116  C    0.077121
   117  C    0.161902
   118  O   -0.201866
   119  C   -0.129342
   120  C    0.263453
   121  O   -0.280573
   122  O   -0.330285
   123  C    0.127187
   124  H   -0.027667
   125  H    0.024865
   126  H   -0.001106
   127  H    0.031534
   128  H    0.031536
   129  H    0.056331
   130  H    0.033593
   131  H    0.025672
   132  H    0.024412
   133  H    0.044921
   134  H    0.046515
   135  H    0.062173
   136  H    0.028535
   137  H    0.048652
   138  H    0.055015
   139  H    0.043796
   140  H    0.044687
   141  H    0.064196
   142  H    0.043763
   143  H    0.030763
   144  H    0.043552
   145  H    0.032461
   146  H    0.040120
   147  H    0.029598
   148  H    0.030948
   149  H    0.055283
   150  H    0.043810
   151  H    0.033813
   152  H    0.035240
   153  H    0.042870
   154  H    0.057960
   155  H    0.082064
   156  H    0.053483
   157  H    0.078590
   158  H    0.049577
 Sum of Mulliken charges =  -0.00000

 Dipole moment (field-independent basis, Debye):
    X=              2.5884    Y=              1.2759    Z=              1.2490  Tot=              3.1445
 Quadrupole moment (field-independent basis, Debye-Ang):
   XX=           -986.3380   YY=           -453.9877   ZZ=           -527.1931
   XY=            -25.4874   XZ=            184.4741   YZ=             -0.5982

 Normal termination of Gaussian 16 at Mon Sep 20 02:25:56 2021.
