 Gaussian 16, Revision A.03,
 Gaussian 16:  ES64L-G16RevA.03 25-Dec-2016

 --------------------------------
 #p wB97XD/Def2SVP td=(nstates=5)
 --------------------------------

 --------------------------------
 TDDFT excited states in gaussian
 --------------------------------
 Symbolic Z-matrix:
 Charge =  0 Multiplicity = 1

                         Standard orientation:
 ---------------------------------------------------------------------
 Center     Atomic      Atomic             Coordinates (Angstroms)
 Number     Number       Type             X           Y           Z
 ---------------------------------------------------------------------
      1         12           0       19.643027    0.198108    0.618888
      2          6           0       17.673607   -1.182821   -2.033621
      3          6           0       20.548488    2.777279   -1.460036
      4          6           0       21.879876    1.320284    2.887158
      5          6           0       19.399727   -2.937924    2.214965
      6          7           0       19.142136    0.712465   -1.486182
      7          6           0       18.270049    0.069601   -2.378797
      8          6           0       18.161847    0.889448   -3.638890
      9          6           0       19.462716    1.795312   -3.566625
     10          6           0       19.797991    1.721227   -2.047959
     11          6           0       20.564792    1.129762   -4.465697
     12          6           0       16.786148    1.625022   -3.811288
     13          6           0       16.309001    1.493125   -5.169309
     14          1           0       14.762814    1.888126   -5.388410
     15          7           0       20.865842    1.946128    0.687988
     16          6           0       21.063405    2.885952   -0.244211
     17          6           0       21.888148    3.922377    0.296561
     18          6           0       22.311166    3.529659    1.549039
     19          6           0       21.625584    2.182931    1.821507
     20          6           0       22.362871    5.139102   -0.559780
     21          6           0       23.185481    4.294885    2.563636
     22          8           0       23.476305    3.761998    3.604508
     23          6           0       23.598224    5.724728    2.305004
     24          7           0       20.713219   -0.820518    2.168777
     25          6           0       21.484661   -0.054580    3.035853
     26          6           0       21.788462   -0.813481    4.286533
     27          6           0       20.972994   -2.183078    4.088551
     28          6           0       20.259067   -1.962739    2.775709
     29          6           0       23.250243   -0.957060    4.545086
     30          6           0       19.960062   -2.631820    5.279197
     31          6           0       20.216332   -3.915607    5.964440
     32          7           0       18.703983   -1.687891    0.257459
     33          6           0       18.723864   -2.836972    1.015384
     34          6           0       17.817938   -3.860164    0.333318
     35          6           0       17.293618   -3.216646   -0.805633
     36          6           0       17.905303   -1.914517   -0.835083
     37          6           0       17.595322   -5.294308    0.832525
     38          6           0       16.514934   -3.468487   -1.980238
     39          8           0       15.872394   -4.486088   -2.324383
     40          6           0       16.855493   -2.235505   -2.914077
     41          6           0       15.488982   -1.778321   -3.507318
     42          8           0       14.892762   -0.789254   -3.043084
     43          8           0       15.174247   -2.543829   -4.580959
     44          6           0       13.768675   -2.222036   -5.006306
     45          1           0       20.664465    3.705912   -2.023399
     46          1           0       22.585287    1.670283    3.644581
     47          1           0       19.184080   -3.902396    2.679169
     48          1           0       18.331984    0.192260   -4.458994
     49          1           0       19.273334    2.804074   -3.931830
     50          1           0       21.005410    0.235544   -4.025566
     51          1           0       21.323238    1.875729   -4.699339
     52          1           0       20.116247    0.850767   -5.419432
     53          1           0       16.999546    2.690926   -3.727750
     54          1           0       16.065437    1.328448   -3.048868
     55          1           0       16.280695    0.447497   -5.476311
     56          1           0       16.944072    2.115886   -5.799834
     57          1           0       22.040101    5.993435    0.035161
     58          1           0       21.895333    5.220741   -1.540911
     59          1           0       23.438691    5.078796   -0.723787
     60          1           0       24.277787    6.073490    3.082683
     61          1           0       22.597151    6.151980    2.362570
     62          1           0       24.052159    5.771829    1.315185
     63          1           0       21.314642   -0.201131    5.053978
     64          1           0       21.716455   -2.973910    3.991959
     65          1           0       23.434558   -0.320395    5.409483
     66          1           0       23.866948   -0.526794    3.756152
     67          1           0       23.600633   -1.975731    4.712900
     68          1           0       19.024278   -2.767431    4.737030
     69          1           0       19.848454   -1.783882    5.953635
     70          1           0       19.398777   -4.618005    5.804232
     71          1           0       20.127231   -3.531199    6.979933
     72          1           0       21.228147   -4.292727    5.809605
     73          1           0       18.320310   -5.906274    0.297045
     74          1           0       16.588667   -5.657400    0.625598
     75          1           0       17.714711   -5.314119    1.915812
     76          1           0       17.509541   -2.672913   -3.667158
     77          1           0       12.989999   -2.617130   -4.354081
     78          1           0       13.518940   -2.524847   -6.022664
     79          1           0       13.721196   -1.133746   -5.049622
     80         12           0      -19.590688   -0.464641   -0.197458
     81          6           0      -18.607378    2.891283    0.242959
     82          6           0      -16.425310   -1.118085   -1.090786
     83          6           0      -20.492043   -3.603761   -0.078718
     84          6           0      -22.624670    0.441848    1.458954
     85          7           0      -17.729293    0.764718   -0.349574
     86          6           0      -17.542781    2.098924   -0.212283
     87          6           0      -16.134450    2.553252   -0.538146
     88          6           0      -15.574828    1.243179   -1.224778
     89          6           0      -16.606996    0.189441   -0.880550
     90          6           0      -15.345046    1.355132   -2.788430
     91          6           0      -15.148591    3.100446    0.584150
     92          6           0      -15.433459    2.877910    2.093269
     93          1           0      -14.202386    2.687220    3.056007
     94          7           0      -18.565597   -2.130257   -0.687707
     95          6           0      -17.264228   -2.229547   -0.923498
     96          6           0      -16.905443   -3.668504   -1.049356
     97          6           0      -18.192818   -4.405748   -0.906907
     98          6           0      -19.147003   -3.363203   -0.528016
     99          6           0      -15.545165   -4.165411   -1.458771
    100          6           0      -18.367259   -5.899048   -1.000001
    101          8           0      -17.393651   -6.588949   -1.292295
    102          6           0      -19.695085   -6.683936   -0.690225
    103          7           0      -21.333075   -1.508189    0.708195
    104          6           0      -21.434689   -2.757870    0.413078
    105          6           0      -22.874384   -3.244919    0.891823
    106          6           0      -23.387886   -1.980103    1.583005
    107          6           0      -22.365556   -0.910678    1.249692
    108          6           0      -23.852547   -3.823118   -0.144349
    109          6           0      -23.388325   -2.077493    3.195836
    110          6           0      -24.766066   -2.072632    3.883193
    111          7           0      -20.463440    1.232540    0.736442
    112          6           0      -21.711338    1.487971    1.240455
    113          6           0      -21.917596    2.949418    1.412740
    114          6           0      -20.659100    3.560695    1.149625
    115          6           0      -19.866556    2.444848    0.636119
    116          6           0      -23.164559    3.654020    1.992169
    117          6           0      -19.885174    4.756801    1.125240
    118          8           0      -20.065086    5.915511    1.537478
    119          6           0      -18.532817    4.394421    0.460381
    120          6           0      -18.400904    5.276991   -0.784201
    121          8           0      -17.724875    6.239398   -1.033972
    122          8           0      -19.110753    4.658746   -1.819287
    123          6           0      -19.034420    5.277727   -3.179024
    124          1           0      -15.385775   -1.303096   -1.370023
    125          1           0      -20.758513   -4.663350   -0.095119
    126          1           0      -23.644451    0.733807    1.716906
    127          1           0      -16.263306    3.302718   -1.318832
    128          1           0      -14.600091    1.003799   -0.799457
    129          1           0      -15.669639    2.326066   -3.161128
    130          1           0      -16.085528    0.650306   -3.165003
    131          1           0      -14.308204    1.115458   -3.024974
    132          1           0      -15.042000    4.171272    0.410254
    133          1           0      -14.149222    2.707101    0.394966
    134          1           0      -16.049409    1.980067    2.144624
    135          1           0      -15.869637    3.743302    2.591266
    136          1           0      -15.541507   -5.213732   -1.756547
    137          1           0      -14.864904   -3.892685   -0.651075
    138          1           0      -15.259739   -3.491550   -2.267246
    139          1           0      -20.636168   -6.410450   -1.168859
    140          1           0      -19.925303   -6.549082    0.366623
    141          1           0      -19.603046   -7.747086   -0.910485
    142          1           0      -22.800541   -4.078461    1.589474
    143          1           0      -24.395028   -1.628167    1.356907
    144          1           0      -23.413849   -3.857528   -1.141703
    145          1           0      -24.800510   -3.284070   -0.148734
    146          1           0      -24.119652   -4.863018    0.043726
    147          1           0      -22.855071   -1.243608    3.650264
    148          1           0      -22.852845   -2.997767    3.430197
    149          1           0      -24.800374   -1.597060    4.863687
    150          1           0      -25.003307   -3.123295    4.050071
    151          1           0      -25.397578   -1.542122    3.170451
    152          1           0      -23.875759    2.997036    2.491765
    153          1           0      -23.645971    4.094058    1.119181
    154          1           0      -22.826946    4.482363    2.614548
    155          1           0      -17.720536    4.615500    1.151998
    156          1           0      -18.900778    6.356685   -3.253925
    157          1           0      -20.023263    5.082960   -3.593757
    158          1           0      -18.349326    4.846589   -3.909285
 ---------------------------------------------------------------------

 SCF Done:  E(RwB97XD) =  -4070.56061637     A.U. after   20 cycles

 Excitation energies and oscillator strengths:

 Excited State   1:      Singlet-A      1.6768 eV  739.42 nm  f=0.3458  <S**2>=0.000
     310 -> 315       -0.19185
     312 -> 314        0.68006
     310 <- 315       -0.11546
 This state for optimization and/or second-order correction.
 Total Energy, E(TD-HF/TD-DFT) =  -4070.49899585
 Copying the excited state density for this state as the 1-particle RhoCI density.

 Excited State   2:      Singlet-A      1.7162 eV  722.42 nm  f=0.4135  <S**2>=0.000
     309 -> 316        0.19062
     311 -> 313        0.68117
     309 <- 316        0.11530

 Excited State   3:      Singlet-A      2.2164 eV  559.40 nm  f=0.0062  <S**2>=0.000
     310 -> 314        0.55056
     312 -> 315        0.43362

 Excited State   4:      Singlet-A      2.2310 eV  555.74 nm  f=0.0956  <S**2>=0.000
     309 -> 313        0.63454
     311 -> 316       -0.29974

 Excited State   5:      Singlet-A      3.6447 eV  340.18 nm  f=0.0000  <S**2>=0.000
     312 -> 313        0.70710

 The electronic state is 1-A.
 Alpha  occ. eigenvalues --  -46.96398 -46.95746 -19.31344 -19.29860 -19.25381
 Alpha  occ. eigenvalues --  -19.24682 -19.24594 -19.24518 -19.23755 -19.23562
 Alpha  occ. eigenvalues --  -14.46900 -14.46861 -14.46464 -14.46362 -14.45052
 Alpha  occ. eigenvalues --  -14.44703 -14.43960 -14.43702 -10.43770 -10.43547
 Alpha  occ. eigenvalues --  -10.39764 -10.39648 -10.39537 -10.38875 -10.35637
 Alpha  occ. eigenvalues --  -10.35562 -10.35425 -10.35380 -10.35333 -10.35257
 Alpha  occ. eigenvalues --  -10.35130 -10.35111 -10.34921 -10.34748 -10.34679
 Alpha  occ. eigenvalues --  -10.34419 -10.34411 -10.34162 -10.34055 -10.33808
 Alpha  occ. eigenvalues --  -10.33359 -10.33101 -10.33052 -10.33033 -10.32987
 Alpha  occ. eigenvalues --  -10.32952 -10.32861 -10.32848 -10.32754 -10.32580
 Alpha  occ. eigenvalues --  -10.32206 -10.32158 -10.32049 -10.32028 -10.32025
 Alpha  occ. eigenvalues --  -10.31949 -10.31948 -10.31929 -10.31671 -10.31510
 Alpha  occ. eigenvalues --  -10.31414 -10.31411 -10.31374 -10.31302 -10.31111
 Alpha  occ. eigenvalues --  -10.31109 -10.31019 -10.30959 -10.30818 -10.30482
 Alpha  occ. eigenvalues --  -10.30434 -10.30404 -10.30362 -10.30331 -10.30326
 Alpha  occ. eigenvalues --  -10.30311 -10.30101 -10.30005 -10.29766 -10.29759
 Alpha  occ. eigenvalues --  -10.29595 -10.29238 -10.29198 -10.28990 -10.28901
 Alpha  occ. eigenvalues --  -10.28790  -3.22327  -3.21549  -1.95903  -1.95447
 Alpha  occ. eigenvalues --   -1.95296  -1.95129  -1.94654  -1.94514  -1.18244
 Alpha  occ. eigenvalues --   -1.18189  -1.13967  -1.11725  -1.11622  -1.10025
 Alpha  occ. eigenvalues --   -1.09517  -1.09280  -1.08726  -1.06829  -1.06109
 Alpha  occ. eigenvalues --   -1.06046  -1.05314  -1.05045  -1.04664  -1.03403
 Alpha  occ. eigenvalues --   -0.95605  -0.93143  -0.91716  -0.90834  -0.90715
 Alpha  occ. eigenvalues --   -0.90577  -0.90465  -0.90193  -0.90019  -0.89475
 Alpha  occ. eigenvalues --   -0.89137  -0.88890  -0.87355  -0.87307  -0.86821
 Alpha  occ. eigenvalues --   -0.86260  -0.85822  -0.85643  -0.84771  -0.84533
 Alpha  occ. eigenvalues --   -0.84443  -0.83697  -0.82764  -0.82607  -0.82460
 Alpha  occ. eigenvalues --   -0.82355  -0.80462  -0.80188  -0.79630  -0.79443
 Alpha  occ. eigenvalues --   -0.78933  -0.78608  -0.78420  -0.77361  -0.77296
 Alpha  occ. eigenvalues --   -0.76854  -0.75324  -0.74368  -0.74129  -0.73390
 Alpha  occ. eigenvalues --   -0.71591  -0.71185  -0.70779  -0.70587  -0.69758
 Alpha  occ. eigenvalues --   -0.69491  -0.69389  -0.68769  -0.68294  -0.67631
 Alpha  occ. eigenvalues --   -0.67496  -0.66991  -0.66868  -0.66867  -0.66406
 Alpha  occ. eigenvalues --   -0.66262  -0.65176  -0.64014  -0.62580  -0.62198
 Alpha  occ. eigenvalues --   -0.61933  -0.61437  -0.61047  -0.60522  -0.60411
 Alpha  occ. eigenvalues --   -0.60190  -0.60078  -0.59360  -0.59246  -0.59007
 Alpha  occ. eigenvalues --   -0.58336  -0.57972  -0.57852  -0.57641  -0.57425
 Alpha  occ. eigenvalues --   -0.57020  -0.57013  -0.56500  -0.56230  -0.55936
 Alpha  occ. eigenvalues --   -0.55903  -0.55882  -0.55580  -0.55453  -0.54889
 Alpha  occ. eigenvalues --   -0.54848  -0.54706  -0.54592  -0.54525  -0.54370
 Alpha  occ. eigenvalues --   -0.53954  -0.53828  -0.53653  -0.53520  -0.53226
 Alpha  occ. eigenvalues --   -0.53207  -0.53012  -0.52516  -0.52461  -0.52280
 Alpha  occ. eigenvalues --   -0.52147  -0.52054  -0.51943  -0.51736  -0.51447
 Alpha  occ. eigenvalues --   -0.51446  -0.51021  -0.50980  -0.50851  -0.50788
 Alpha  occ. eigenvalues --   -0.50532  -0.50463  -0.50440  -0.50226  -0.50133
 Alpha  occ. eigenvalues --   -0.49929  -0.49786  -0.49755  -0.49518  -0.49361
 Alpha  occ. eigenvalues --   -0.49333  -0.49194  -0.48864  -0.48566  -0.48504
 Alpha  occ. eigenvalues --   -0.48439  -0.48220  -0.48121  -0.48036  -0.47974
 Alpha  occ. eigenvalues --   -0.47784  -0.47734  -0.47479  -0.47284  -0.47265
 Alpha  occ. eigenvalues --   -0.46773  -0.46499  -0.46426  -0.46264  -0.46109
 Alpha  occ. eigenvalues --   -0.45995  -0.45897  -0.45716  -0.45507  -0.45368
 Alpha  occ. eigenvalues --   -0.45244  -0.45174  -0.45074  -0.44971  -0.44749
 Alpha  occ. eigenvalues --   -0.44566  -0.44250  -0.44245  -0.44030  -0.43987
 Alpha  occ. eigenvalues --   -0.43932  -0.43808  -0.43369  -0.43351  -0.43101
 Alpha  occ. eigenvalues --   -0.43002  -0.42839  -0.42666  -0.42584  -0.42091
 Alpha  occ. eigenvalues --   -0.41869  -0.41682  -0.41134  -0.40751  -0.40737
 Alpha  occ. eigenvalues --   -0.40424  -0.40120  -0.39751  -0.39710  -0.39201
 Alpha  occ. eigenvalues --   -0.39146  -0.38955  -0.38879  -0.38708  -0.38262
 Alpha  occ. eigenvalues --   -0.38053  -0.37053  -0.36754  -0.36248  -0.36019
 Alpha  occ. eigenvalues --   -0.35852  -0.35802  -0.35172  -0.34081  -0.33917
 Alpha  occ. eigenvalues --   -0.33477  -0.33363  -0.33259  -0.32854  -0.32612
 Alpha  occ. eigenvalues --   -0.32215  -0.31441  -0.31409  -0.26409  -0.26182
 Alpha  occ. eigenvalues --   -0.23332  -0.21994
 Alpha virt. eigenvalues --   -0.07251  -0.05872  -0.00586  -0.00116   0.01426
 Alpha virt. eigenvalues --    0.02100   0.03864   0.04488   0.04532   0.05090
 Alpha virt. eigenvalues --    0.06825   0.07203   0.07288   0.07793   0.07982

 Mulliken charges:
               1
     1  Mg   0.942909
     2  C    0.041706
     3  C   -0.129164
     4  C   -0.076240
     5  C   -0.077257
     6  N   -0.336169
     7  C   -0.017611
     8  C   -0.079520
     9  C   -0.155257
    10  C    0.135837
    11  C    0.022041
    12  C    0.093448
    13  C   -0.136495
    14  H    0.009052
    15  N   -0.446315
    16  C    0.165832
    17  C   -0.153313
    18  C   -0.107828
    19  C    0.165079
    20  C    0.056555
    21  C    0.032457
    22  O   -0.217400
    23  C    0.006287
    24  N   -0.392523
    25  C    0.060552
    26  C   -0.103398
    27  C   -0.058551
    28  C    0.088955
    29  C    0.029669
    30  C   -0.034556
    31  C   -0.028617
    32  N   -0.416668
    33  C    0.095677
    34  C   -0.195749
    35  C   -0.011699
    36  C    0.105094
    37  C    0.075073
    38  C    0.122578
    39  O   -0.234898
    40  C   -0.139135
    41  C    0.281292
    42  O   -0.275152
    43  O   -0.340453
    44  C    0.131707
    45  H   -0.010071
    46  H    0.029184
    47  H   -0.008257
    48  H    0.017191
    49  H    0.025381
    50  H    0.050736
    51  H    0.035120
    52  H    0.035633
    53  H    0.016172
    54  H    0.073629
    55  H    0.051818
    56  H    0.043246
    57  H    0.051718
    58  H    0.037616
    59  H    0.072655
    60  H    0.062072
    61  H    0.066250
    62  H    0.055563
    63  H    0.043054
    64  H    0.031483
    65  H    0.039720
    66  H    0.045858
    67  H    0.038562
    68  H    0.026823
    69  H    0.028198
    70  H    0.044945
    71  H    0.030318
    72  H    0.041834
    73  H    0.063101
    74  H    0.057615
    75  H    0.033407
    76  H    0.090012
    77  H    0.070079
    78  H    0.052419
    79  H    0.059081
    80  Mg   0.957665
    81  C   -0.036415
    82  C   -0.091633
    83  C   -0.036458
    84  C   -0.103708
    85  N   -0.340904
    86  C   -0.038028
    87  C    0.005370
    88  C   -0.158361
    89  C    0.057972
    90  C    0.033640
    91  C    0.002332
    92  C   -0.150056
    93  H    0.026924
    94  N   -0.476194
    95  C    0.164478
    96  C   -0.173274
    97  C   -0.081373
    98  C    0.167493
    99  C    0.085858
   100  C    0.055556
   101  O   -0.240308
   102  C   -0.027095
   103  N   -0.273839
   104  C    0.045730
   105  C   -0.055748
   106  C   -0.126008
   107  C    0.077414
   108  C    0.014307
   109  C   -0.041883
   110  C   -0.039897
   111  N   -0.401903
   112  C    0.126978
   113  C   -0.186297
   114  C   -0.008764
   115  C    0.160677
   116  C    0.075238
   117  C    0.093746
   118  O   -0.218138
   119  C   -0.083235
   120  C    0.279600
   121  O   -0.209552
   122  O   -0.398025
   123  C    0.134888
   124  H   -0.010841
   125  H   -0.053795
   126  H    0.002617
   127  H    0.040901
   128  H    0.037097
   129  H    0.035405
   130  H    0.038108
   131  H    0.054901
   132  H    0.045325
   133  H    0.044696
   134  H    0.072952
   135  H    0.074358
   136  H    0.077741
   137  H    0.041108
   138  H    0.036973
   139  H    0.056520
   140  H    0.057160
   141  H    0.052426
   142  H    0.035507
   143  H    0.023153
   144  H    0.033248
   145  H    0.035981
   146  H    0.027111
   147  H    0.043325
   148  H    0.025254
   149  H    0.043748
   150  H    0.037805
   151  H    0.028125
   152  H    0.042809
   153  H    0.054924
   154  H    0.069728
   155  H    0.068904
   156  H    0.065896
   157  H    0.044830
   158  H    0.047227
 Sum of Mulliken charges =  -0.00000

 Dipole moment (field-independent basis, Debye):
    X=             -0.5884    Y=              1.6689    Z=             -1.5591  Tot=              2.3584
 Quadrupole moment (field-independent basis, Debye-Ang):
   XX=           -252.0491   YY=           -559.8180   ZZ=           -487.3726
   XY=            129.4599   XZ=             17.6671   YZ=            -41.1635

 Normal termination of Gaussian 16 at Sun Sep 19 14:25:17 2021.
