 Gaussian 16, Revision A.03,
 Gaussian 16:  ES64L-G16RevA.03 25-Dec-2016

 --------------------------------
 #p wB97XD/Def2SVP td=(nstates=5)
 --------------------------------

 --------------------------------
 TDDFT excited states in gaussian
 --------------------------------
 Symbolic Z-matrix:
 Charge =  0 Multiplicity = 1

                         Standard orientation:
 ---------------------------------------------------------------------
 Center     Atomic      Atomic             Coordinates (Angstroms)
 Number     Number       Type             X           Y           Z
 ---------------------------------------------------------------------
      1         12           0       23.533232    0.701844    0.054206
      2          6           0       22.666719   -2.588372   -0.992555
      3          6           0       23.545900   -0.426748    3.302083
      4          6           0       24.271422    3.824680    0.842784
      5          6           0       22.991012    1.848255   -3.308987
      6          7           0       23.072382   -1.328063    1.094373
      7          6           0       22.852323   -2.502009    0.397424
      8          6           0       22.768697   -3.637483    1.474351
      9          6           0       23.016250   -2.922006    2.907460
     10          6           0       23.205526   -1.485075    2.410778
     11          6           0       21.925550   -3.144962    3.975704
     12          6           0       23.631395   -4.941209    1.215814
     13          6           0       22.860907   -6.227489    1.144531
     14          1           0       21.555910   -6.460006    1.859178
     15          7           0       24.005260    1.588694    1.898975
     16          6           0       23.938098    0.950954    3.097546
     17          6           0       24.484609    1.869374    4.063146
     18          6           0       24.601913    3.115880    3.411160
     19          6           0       24.266987    2.930849    1.961702
     20          6           0       24.652545    1.435184    5.529004
     21          6           0       24.873566    4.446268    4.045549
     22          8           0       24.838397    5.509308    3.381503
     23          6           0       25.134025    4.516909    5.504525
     24          7           0       23.541441    2.581352   -1.131348
     25          6           0       23.950030    3.670522   -0.579625
     26          6           0       24.106572    4.966949   -1.539803
     27          6           0       23.671328    4.312998   -2.860054
     28          6           0       23.392058    2.885932   -2.456482
     29          6           0       23.174779    6.122629   -1.020857
     30          6           0       24.681936    4.393302   -4.057761
     31          6           0       25.942378    3.501347   -3.960645
     32          7           0       22.850686   -0.128076   -1.685438
     33          6           0       22.668183    0.487679   -2.946055
     34          6           0       22.302346   -0.560320   -3.908649
     35          6           0       22.299545   -1.778211   -3.187127
     36          6           0       22.683258   -1.470034   -1.838236
     37          6           0       22.026009   -0.337817   -5.425796
     38          6           0       22.098163   -3.119658   -3.349915
     39          8           0       21.746031   -3.783074   -4.303892
     40          6           0       22.374856   -3.769297   -1.965326
     41          6           0       21.227905   -4.566784   -1.597027
     42          8           0       20.239202   -4.142265   -0.988402
     43          8           0       21.296600   -5.812778   -2.231558
     44          6           0       20.077424   -6.644635   -2.077587
     45          1           0       23.340799   -0.587872    4.362834
     46          1           0       24.355006    4.870708    1.145203
     47          1           0       22.817323    2.142381   -4.346137
     48          1           0       21.749605   -3.963690    1.270707
     49          1           0       23.903562   -3.355802    3.366398
     50          1           0       22.357680   -3.561823    4.886325
     51          1           0       21.072182   -3.757872    3.686017
     52          1           0       21.546207   -2.142088    4.171784
     53          1           0       24.404520   -5.034144    1.978787
     54          1           0       24.075128   -4.798985    0.230404
     55          1           0       23.426452   -6.954494    1.728473
     56          1           0       22.752413   -6.491919    0.093267
     57          1           0       24.621072    0.351324    5.642521
     58          1           0       23.868551    1.885146    6.136739
     59          1           0       25.632553    1.817289    5.812990
     60          1           0       25.995964    3.879618    5.702161
     61          1           0       24.299708    4.111021    6.077886
     62          1           0       25.255076    5.551310    5.823650
     63          1           0       25.143905    5.298264   -1.593490
     64          1           0       22.674972    4.664804   -3.128630
     65          1           0       22.317975    5.661969   -0.529223
     66          1           0       22.800006    6.669558   -1.886743
     67          1           0       23.599517    6.851959   -0.330610
     68          1           0       24.895372    5.435975   -4.290954
     69          1           0       24.140289    4.106130   -4.958468
     70          1           0       26.337619    3.316629   -2.962324
     71          1           0       26.695748    3.906805   -4.636973
     72          1           0       25.648516    2.553409   -4.411109
     73          1           0       22.574340   -1.027904   -6.067138
     74          1           0       22.211619    0.684773   -5.752426
     75          1           0       21.030551   -0.714649   -5.662007
     76          1           0       23.233194   -4.401408   -2.190520
     77          1           0       19.246703   -6.213954   -2.636038
     78          1           0       19.714204   -6.728055   -1.053918
     79          1           0       20.375662   -7.668319   -2.304567
     80         12           0      -23.648856    0.593079   -0.121790
     81          6           0      -21.298134   -1.740880    1.027777
     82          6           0      -25.723630   -2.037257   -0.916054
     83          6           0      -25.832268    2.807725   -1.226208
     84          6           0      -21.336149    3.135141    0.607596
     85          7           0      -23.503154   -1.601848    0.139927
     86          6           0      -22.448958   -2.383403    0.613060
     87          6           0      -22.861132   -3.880796    0.898696
     88          6           0      -24.170680   -3.909634    0.134525
     89          6           0      -24.514548   -2.410240   -0.245365
     90          6           0      -24.007727   -4.713110   -1.236289
     91          6           0      -23.126390   -3.914770    2.469207
     92          6           0      -22.599704   -5.188346    3.265892
     93          1           0      -22.683768   -6.408411    2.384733
     94          7           0      -25.403707    0.394432   -1.063589
     95          6           0      -26.090589   -0.717577   -1.310031
     96          6           0      -27.362087   -0.457274   -1.931491
     97          6           0      -27.514667    0.942323   -1.876461
     98          6           0      -26.173632    1.467443   -1.417961
     99          6           0      -28.320530   -1.477922   -2.425827
    100          6           0      -28.735863    1.808062   -2.108508
    101          8           0      -28.787259    2.998560   -1.779155
    102          6           0      -29.935842    1.245444   -2.875388
    103          7           0      -23.548015    2.702856   -0.323833
    104          6           0      -24.678452    3.351338   -0.762055
    105          6           0      -24.465460    4.854937   -0.600204
    106          6           0      -23.034278    4.983392    0.117100
    107          6           0      -22.606930    3.542185    0.210021
    108          6           0      -24.655457    5.571610   -1.983644
    109          6           0      -22.990320    5.739739    1.435590
    110          6           0      -21.916847    6.872108    1.475196
    111          7           0      -21.711686    0.683198    0.632612
    112          6           0      -20.867007    1.814400    0.861821
    113          6           0      -19.603620    1.395577    1.354693
    114          6           0      -19.749434    0.000215    1.431710
    115          6           0      -21.019501   -0.359631    0.935238
    116          6           0      -18.403232    2.187516    1.762541
    117          6           0      -19.105119   -1.217902    1.805895
    118          8           0      -17.999847   -1.466710    2.226861
    119          6           0      -20.141237   -2.367262    1.653569
    120          6           0      -19.506287   -3.494174    0.922909
    121          8           0      -19.196633   -3.538303   -0.264357
    122          8           0      -19.379564   -4.498091    1.796113
    123          6           0      -18.855272   -5.748016    1.287032
    124          1           0      -26.526643   -2.756779   -1.088251
    125          1           0      -26.592849    3.488043   -1.617499
    126          1           0      -20.611295    3.895182    0.906778
    127          1           0      -21.980576   -4.467301    0.638354
    128          1           0      -24.963671   -4.315400    0.761822
    129          1           0      -22.989487   -5.070846   -1.390244
    130          1           0      -24.278060   -4.047873   -2.056113
    131          1           0      -24.725423   -5.528948   -1.149442
    132          1           0      -24.183338   -3.862769    2.728786
    133          1           0      -22.683688   -3.002200    2.869227
    134          1           0      -23.298410   -5.461004    4.056907
    135          1           0      -21.688509   -4.964507    3.821219
    136          1           0      -29.188859   -1.431459   -1.767190
    137          1           0      -27.905055   -2.482161   -2.354795
    138          1           0      -28.641514   -1.308531   -3.453199
    139          1           0      -30.415341    2.178808   -3.169471
    140          1           0      -30.575036    0.591683   -2.280810
    141          1           0      -29.734946    0.751401   -3.825811
    142          1           0      -25.183557    5.367282    0.039998
    143          1           0      -22.350356    5.478697   -0.572242
    144          1           0      -25.282015    6.440025   -1.779909
    145          1           0      -25.070011    4.930595   -2.761747
    146          1           0      -23.746358    6.092134   -2.287101
    147          1           0      -22.840774    5.107555    2.310287
    148          1           0      -23.927385    6.298197    1.447226
    149          1           0      -21.457615    7.002505    0.495160
    150          1           0      -21.051391    6.585508    2.072304
    151          1           0      -22.351961    7.819991    1.792558
    152          1           0      -18.734493    2.594994    2.718101
    153          1           0      -18.210421    2.895258    0.956598
    154          1           0      -17.538057    1.558566    1.967524
    155          1           0      -20.271454   -2.717975    2.678228
    156          1           0      -17.903546   -5.574961    0.783889
    157          1           0      -19.445823   -6.253594    0.522256
    158          1           0      -18.707960   -6.389254    2.156249
 ---------------------------------------------------------------------

 SCF Done:  E(RwB97XD) =  -4070.63356849     A.U. after   19 cycles

 Excitation energies and oscillator strengths:

 Excited State   1:      Singlet-A      1.6809 eV  737.59 nm  f=0.3824  <S**2>=0.000
     309 -> 316       -0.16573
     312 -> 313        0.68558
     309 <- 316       -0.10525
 This state for optimization and/or second-order correction.
 Total Energy, E(TD-HF/TD-DFT) =  -4070.57179509
 Copying the excited state density for this state as the 1-particle RhoCI density.

 Excited State   2:      Singlet-A      1.7177 eV  721.79 nm  f=0.3728  <S**2>=0.000
     310 -> 315       -0.19151
     311 -> 314        0.67997
     310 <- 315       -0.11531

 Excited State   3:      Singlet-A      2.1591 eV  574.24 nm  f=0.1060  <S**2>=0.000
     310 -> 314        0.63945
     311 -> 315        0.28264

 Excited State   4:      Singlet-A      2.2342 eV  554.95 nm  f=0.1202  <S**2>=0.000
     309 -> 313        0.63519
     312 -> 316        0.28426

 Excited State   5:      Singlet-A      3.4790 eV  356.37 nm  f=0.0351  <S**2>=0.000
     306 -> 320        0.10567
     308 -> 313        0.60549
     308 -> 318        0.13952
     308 -> 320        0.13300
     312 -> 316       -0.21827

 The electronic state is 1-A.
 Alpha  occ. eigenvalues --  -46.96125 -46.94093 -19.30419 -19.29402 -19.24994
 Alpha  occ. eigenvalues --  -19.24138 -19.23848 -19.23699 -19.22462 -19.22356
 Alpha  occ. eigenvalues --  -14.47233 -14.46827 -14.46422 -14.46201 -14.44837
 Alpha  occ. eigenvalues --  -14.44348 -14.44206 -14.43009 -10.42367 -10.42113
 Alpha  occ. eigenvalues --  -10.40255 -10.39060 -10.37171 -10.37074 -10.35979
 Alpha  occ. eigenvalues --  -10.35956 -10.35779 -10.35557 -10.35126 -10.35071
 Alpha  occ. eigenvalues --  -10.35060 -10.35023 -10.34723 -10.34722 -10.34456
 Alpha  occ. eigenvalues --  -10.34437 -10.34119 -10.34033 -10.33767 -10.33573
 Alpha  occ. eigenvalues --  -10.33271 -10.32945 -10.32854 -10.32844 -10.32683
 Alpha  occ. eigenvalues --  -10.32482 -10.32406 -10.32372 -10.32151 -10.32146
 Alpha  occ. eigenvalues --  -10.32095 -10.32077 -10.32033 -10.31938 -10.31874
 Alpha  occ. eigenvalues --  -10.31802 -10.31645 -10.31611 -10.31586 -10.31436
 Alpha  occ. eigenvalues --  -10.31405 -10.31401 -10.31157 -10.31123 -10.31120
 Alpha  occ. eigenvalues --  -10.31102 -10.31080 -10.31076 -10.30665 -10.30573
 Alpha  occ. eigenvalues --  -10.30533 -10.30480 -10.30234 -10.30184 -10.30138
 Alpha  occ. eigenvalues --  -10.30116 -10.29931 -10.29886 -10.29841 -10.29765
 Alpha  occ. eigenvalues --  -10.29647 -10.29593 -10.29567 -10.29216 -10.27798
 Alpha  occ. eigenvalues --  -10.27521  -3.21928  -3.20211  -1.95526  -1.95081
 Alpha  occ. eigenvalues --   -1.94850  -1.93818  -1.93321  -1.93216  -1.19238
 Alpha  occ. eigenvalues --   -1.16412  -1.12609  -1.11511  -1.11368  -1.10702
 Alpha  occ. eigenvalues --   -1.09221  -1.08412  -1.08095  -1.07060  -1.05877
 Alpha  occ. eigenvalues --   -1.05741  -1.05038  -1.04893  -1.04334  -1.03641
 Alpha  occ. eigenvalues --   -0.94571  -0.94183  -0.91592  -0.91564  -0.90393
 Alpha  occ. eigenvalues --   -0.90267  -0.90240  -0.89873  -0.89634  -0.89199
 Alpha  occ. eigenvalues --   -0.88917  -0.88670  -0.88562  -0.87372  -0.86187
 Alpha  occ. eigenvalues --   -0.85853  -0.85399  -0.85191  -0.84404  -0.84238
 Alpha  occ. eigenvalues --   -0.84160  -0.83749  -0.83188  -0.82562  -0.82294
 Alpha  occ. eigenvalues --   -0.81994  -0.80892  -0.80298  -0.79433  -0.79313
 Alpha  occ. eigenvalues --   -0.78650  -0.78308  -0.77579  -0.77480  -0.76907
 Alpha  occ. eigenvalues --   -0.76890  -0.75062  -0.74460  -0.73503  -0.73366
 Alpha  occ. eigenvalues --   -0.72321  -0.71150  -0.70989  -0.70768  -0.69774
 Alpha  occ. eigenvalues --   -0.69588  -0.69308  -0.68900  -0.67348  -0.67214
 Alpha  occ. eigenvalues --   -0.67141  -0.66973  -0.66853  -0.66551  -0.66463
 Alpha  occ. eigenvalues --   -0.66176  -0.64404  -0.63346  -0.62807  -0.62237
 Alpha  occ. eigenvalues --   -0.61515  -0.61450  -0.61127  -0.60580  -0.60571
 Alpha  occ. eigenvalues --   -0.60059  -0.59836  -0.59683  -0.59480  -0.59256
 Alpha  occ. eigenvalues --   -0.58644  -0.58181  -0.57953  -0.57549  -0.57280
 Alpha  occ. eigenvalues --   -0.57166  -0.56872  -0.56333  -0.55727  -0.55475
 Alpha  occ. eigenvalues --   -0.55444  -0.55186  -0.55130  -0.54899  -0.54756
 Alpha  occ. eigenvalues --   -0.54530  -0.54455  -0.54455  -0.54035  -0.53938
 Alpha  occ. eigenvalues --   -0.53653  -0.53429  -0.53194  -0.53190  -0.53001
 Alpha  occ. eigenvalues --   -0.52680  -0.52667  -0.52415  -0.52317  -0.52197
 Alpha  occ. eigenvalues --   -0.51928  -0.51707  -0.51521  -0.51438  -0.51179
 Alpha  occ. eigenvalues --   -0.51153  -0.51095  -0.50917  -0.50748  -0.50589
 Alpha  occ. eigenvalues --   -0.50480  -0.50467  -0.50420  -0.49929  -0.49842
 Alpha  occ. eigenvalues --   -0.49782  -0.49537  -0.49437  -0.49388  -0.49191
 Alpha  occ. eigenvalues --   -0.49076  -0.48624  -0.48612  -0.48505  -0.48435
 Alpha  occ. eigenvalues --   -0.48405  -0.48288  -0.48058  -0.47983  -0.47696
 Alpha  occ. eigenvalues --   -0.47388  -0.47187  -0.46909  -0.46796  -0.46601
 Alpha  occ. eigenvalues --   -0.46456  -0.46451  -0.46364  -0.46208  -0.46081
 Alpha  occ. eigenvalues --   -0.45694  -0.45642  -0.45623  -0.45576  -0.45361
 Alpha  occ. eigenvalues --   -0.45097  -0.44960  -0.44878  -0.44635  -0.44516
 Alpha  occ. eigenvalues --   -0.44342  -0.44250  -0.44229  -0.43834  -0.43747
 Alpha  occ. eigenvalues --   -0.43698  -0.43521  -0.43514  -0.43344  -0.43146
 Alpha  occ. eigenvalues --   -0.42996  -0.42987  -0.42677  -0.42453  -0.42279
 Alpha  occ. eigenvalues --   -0.41955  -0.41954  -0.41647  -0.41599  -0.40975
 Alpha  occ. eigenvalues --   -0.40700  -0.40169  -0.39590  -0.39344  -0.38863
 Alpha  occ. eigenvalues --   -0.38849  -0.38613  -0.38425  -0.38398  -0.38297
 Alpha  occ. eigenvalues --   -0.37992  -0.37418  -0.36201  -0.35871  -0.35850
 Alpha  occ. eigenvalues --   -0.35512  -0.35274  -0.34939  -0.34289  -0.33554
 Alpha  occ. eigenvalues --   -0.33502  -0.33156  -0.33096  -0.32480  -0.31897
 Alpha  occ. eigenvalues --   -0.31653  -0.31621  -0.31281  -0.26028  -0.25702
 Alpha  occ. eigenvalues --   -0.23030  -0.22853
 Alpha virt. eigenvalues --   -0.06903  -0.06850   0.00167   0.00255   0.02236
 Alpha virt. eigenvalues --    0.02559   0.04469   0.04988   0.05726   0.06478
 Alpha virt. eigenvalues --    0.07267   0.08139   0.08151   0.08459   0.08816

 Mulliken charges:
               1
     1  Mg   0.949241
     2  C    0.012608
     3  C   -0.090506
     4  C   -0.048146
     5  C   -0.087827
     6  N   -0.314546
     7  C   -0.013019
     8  C   -0.056019
     9  C   -0.105057
    10  C    0.077682
    11  C    0.018396
    12  C    0.000023
    13  C   -0.139624
    14  H    0.031675
    15  N   -0.486343
    16  C    0.140230
    17  C   -0.180359
    18  C   -0.072156
    19  C    0.161076
    20  C    0.072725
    21  C    0.036332
    22  O   -0.261902
    23  C    0.006739
    24  N   -0.272005
    25  C    0.015785
    26  C   -0.109991
    27  C    0.029128
    28  C   -0.040064
    29  C   -0.003650
    30  C   -0.032785
    31  C   -0.036123
    32  N   -0.476770
    33  C    0.148594
    34  C   -0.176042
    35  C    0.006764
    36  C    0.138631
    37  C    0.087127
    38  C    0.031610
    39  O   -0.201441
    40  C   -0.063006
    41  C    0.266892
    42  O   -0.263184
    43  O   -0.379047
    44  C    0.150015
    45  H    0.007839
    46  H    0.029021
    47  H   -0.009049
    48  H    0.057286
    49  H    0.044887
    50  H    0.035044
    51  H    0.051838
    52  H    0.033510
    53  H    0.031586
    54  H    0.036278
    55  H    0.048450
    56  H    0.062259
    57  H    0.047872
    58  H    0.064249
    59  H    0.046320
    60  H    0.050840
    61  H    0.050363
    62  H    0.058492
    63  H    0.052356
    64  H    0.036501
    65  H    0.045600
    66  H    0.037060
    67  H    0.064047
    68  H    0.030880
    69  H    0.025081
    70  H    0.049784
    71  H    0.041184
    72  H    0.038652
    73  H    0.043726
    74  H    0.031543
    75  H    0.051192
    76  H    0.073503
    77  H    0.064698
    78  H    0.041730
    79  H    0.053720
    80  Mg   0.983644
    81  C    0.006634
    82  C   -0.113516
    83  C   -0.075940
    84  C   -0.074191
    85  N   -0.350843
    86  C   -0.049220
    87  C   -0.050115
    88  C   -0.097959
    89  C    0.098223
    90  C    0.023321
    91  C    0.001692
    92  C   -0.114992
    93  H    0.031960
    94  N   -0.466438
    95  C    0.154116
    96  C   -0.174183
    97  C   -0.070279
    98  C    0.137980
    99  C    0.077645
   100  C    0.062709
   101  O   -0.243556
   102  C   -0.045456
   103  N   -0.389876
   104  C    0.116293
   105  C   -0.106927
   106  C   -0.048739
   107  C    0.073060
   108  C    0.009950
   109  C    0.001441
   110  C   -0.071380
   111  N   -0.414142
   112  C    0.082234
   113  C   -0.193340
   114  C   -0.037901
   115  C    0.139075
   116  C    0.088156
   117  C    0.083176
   118  O   -0.205337
   119  C   -0.074151
   120  C    0.226060
   121  O   -0.256795
   122  O   -0.333918
   123  C    0.142505
   124  H   -0.000103
   125  H    0.028429
   126  H   -0.008043
   127  H    0.049750
   128  H    0.040024
   129  H    0.052005
   130  H    0.043575
   131  H    0.040168
   132  H    0.030971
   133  H    0.043333
   134  H    0.042772
   135  H    0.062663
   136  H    0.053215
   137  H    0.041083
   138  H    0.058525
   139  H    0.058577
   140  H    0.065451
   141  H    0.052886
   142  H    0.043210
   143  H    0.032386
   144  H    0.027629
   145  H    0.060864
   146  H    0.025936
   147  H    0.049339
   148  H    0.028145
   149  H    0.020872
   150  H    0.037410
   151  H    0.045743
   152  H    0.054220
   153  H    0.052890
   154  H    0.061509
   155  H    0.067070
   156  H    0.054684
   157  H    0.045144
   158  H    0.056988
 Sum of Mulliken charges =  -0.00000

 Dipole moment (field-independent basis, Debye):
    X=             -2.7595    Y=              0.1217    Z=              3.5017  Tot=              4.4600
 Quadrupole moment (field-independent basis, Debye-Ang):
   XX=           -136.6798   YY=           -475.3734   ZZ=           -486.7358
   XY=             67.7634   XZ=             86.0487   YZ=            -30.9349

 Normal termination of Gaussian 16 at Sun Sep 19 05:53:47 2021.
