 Gaussian 16, Revision A.03,
 Gaussian 16:  ES64L-G16RevA.03 25-Dec-2016

 --------------------------------
 #p wB97XD/Def2SVP td=(nstates=5)
 --------------------------------

 --------------------------------
 TDDFT excited states in gaussian
 --------------------------------
 Symbolic Z-matrix:
 Charge =  0 Multiplicity = 1

                         Standard orientation:
 ---------------------------------------------------------------------
 Center     Atomic      Atomic             Coordinates (Angstroms)
 Number     Number       Type             X           Y           Z
 ---------------------------------------------------------------------
      1         12           0      -22.299867   -0.644241   -0.325548
      2          6           0      -24.123359    1.726831    1.448237
      3          6           0      -20.256646    1.855278   -1.474685
      4          6           0      -20.756111   -2.963513   -2.288205
      5          6           0      -24.695445   -3.021566    0.789287
      6          7           0      -22.221511    1.532874   -0.075777
      7          6           0      -23.005148    2.239857    0.797648
      8          6           0      -22.488909    3.680665    0.773971
      9          6           0      -21.486471    3.741091   -0.364774
     10          6           0      -21.279862    2.255080   -0.635069
     11          6           0      -21.803413    4.538448   -1.601405
     12          6           0      -21.941303    4.240862    2.172023
     13          6           0      -21.213413    5.622376    2.115055
     14          1           0      -22.049613    6.910867    2.330991
     15          7           0      -20.638784   -0.565616   -1.567099
     16          6           0      -19.957219    0.546670   -1.938359
     17          6           0      -18.955228    0.120757   -2.880526
     18          6           0      -19.112785   -1.277044   -3.114057
     19          6           0      -20.205965   -1.666964   -2.342520
     20          6           0      -17.984278    1.107309   -3.452146
     21          6           0      -18.331062   -2.132163   -4.153451
     22          8           0      -18.744733   -3.211459   -4.537595
     23          6           0      -17.130064   -1.673250   -4.832331
     24          7           0      -22.666363   -2.577515   -0.656401
     25          6           0      -21.876551   -3.382648   -1.476577
     26          6           0      -22.338907   -4.850093   -1.483364
     27          6           0      -23.373030   -4.859972   -0.306631
     28          6           0      -23.553916   -3.380513   -0.009403
     29          6           0      -22.695645   -5.424849   -2.791530
     30          6           0      -23.069620   -5.759934    1.015540
     31          6           0      -24.038146   -6.865969    1.445068
     32          7           0      -24.145406   -0.672172    0.864092
     33          6           0      -24.974137   -1.709438    1.188310
     34          6           0      -26.052598   -1.270800    2.008487
     35          6           0      -25.721523    0.122402    2.217866
     36          6           0      -24.590279    0.439215    1.414696
     37          6           0      -27.110450   -2.159034    2.543328
     38          6           0      -26.097603    1.300005    2.965814
     39          8           0      -26.934965    1.530090    3.816105
     40          6           0      -25.023911    2.429042    2.453695
     41          6           0      -25.708245    3.672697    2.016877
     42          8           0      -26.424926    3.739424    1.042379
     43          8           0      -25.433000    4.719597    2.814424
     44          6           0      -25.859856    6.088752    2.331347
     45          1           0      -19.569830    2.639092   -1.801681
     46          1           0      -20.248088   -3.684917   -2.931321
     47          1           0      -25.300640   -3.895146    1.041115
     48          1           0      -23.411987    4.203628    0.524282
     49          1           0      -20.567400    4.207041   -0.010265
     50          1           0      -22.001164    3.716854   -2.289180
     51          1           0      -20.991333    5.205449   -1.891138
     52          1           0      -22.750157    5.072943   -1.520456
     53          1           0      -21.239085    3.457782    2.458773
     54          1           0      -22.759658    4.311331    2.887594
     55          1           0      -20.742859    5.789598    1.146993
     56          1           0      -20.413076    5.607209    2.854861
     57          1           0      -18.002750    2.129630   -3.073210
     58          1           0      -18.254629    1.205851   -4.502958
     59          1           0      -16.955693    0.746068   -3.448970
     60          1           0      -17.106174   -0.685582   -5.291664
     61          1           0      -16.718858   -2.359202   -5.572810
     62          1           0      -16.390312   -1.722407   -4.033574
     63          1           0      -21.406384   -5.292181   -1.131504
     64          1           0      -24.259422   -5.158507   -0.866122
     65          1           0      -22.076785   -6.244586   -3.157417
     66          1           0      -22.652116   -4.618805   -3.524458
     67          1           0      -23.694495   -5.859387   -2.829192
     68          1           0      -22.994380   -5.077142    1.861632
     69          1           0      -22.117656   -6.290799    1.054126
     70          1           0      -24.672313   -6.616179    2.296078
     71          1           0      -23.589992   -7.854208    1.544257
     72          1           0      -24.782884   -6.966843    0.655461
     73          1           0      -27.458176   -2.804994    1.737496
     74          1           0      -27.923545   -1.608127    3.015299
     75          1           0      -26.620182   -2.897908    3.178025
     76          1           0      -24.440397    2.690546    3.335839
     77          1           0      -25.868691    6.661348    3.258519
     78          1           0      -26.845267    6.004739    1.873526
     79          1           0      -25.068669    6.446732    1.672415
     80         12           0       22.454858   -0.668554    0.458774
     81          6           0       22.644149    2.417162   -1.347857
     82          6           0       23.077366    1.050306    3.365990
     83          6           0       22.756413   -3.561870    2.175050
     84          6           0       22.801938   -2.317381   -2.639978
     85          7           0       22.801690    1.479367    0.920203
     86          6           0       22.770564    2.592297    0.065223
     87          6           0       22.924492    3.847931    0.884601
     88          6           0       23.562074    3.298707    2.229932
     89          6           0       23.171508    1.793289    2.156337
     90          6           0       25.113795    3.528452    2.157548
     91          6           0       21.611680    4.698897    1.009970
     92          6           0       21.899622    6.103051    0.823610
     93          1           0       20.609436    7.034776    0.574543
     94          7           0       22.692634   -1.087909    2.538011
     95          6           0       22.893171   -0.247242    3.559951
     96          6           0       22.887345   -0.983892    4.786377
     97          6           0       22.815350   -2.327463    4.483875
     98          6           0       22.688884   -2.408398    2.955676
     99          6           0       23.162580   -0.304692    6.165520
    100          6           0       22.743780   -3.536199    5.439511
    101          8           0       22.718795   -4.648071    4.975745
    102          6           0       22.613425   -3.335944    6.931021
    103          7           0       23.015280   -2.634853   -0.177357
    104          6           0       22.928320   -3.666495    0.750951
    105          6           0       22.909741   -4.994950    0.067366
    106          6           0       22.902008   -4.602859   -1.490256
    107          6           0       22.839263   -3.093968   -1.457014
    108          6           0       24.013670   -5.896291    0.506904
    109          6           0       21.738004   -5.252951   -2.421661
    110          6           0       22.148825   -6.115973   -3.548498
    111          7           0       22.630708   -0.132450   -1.603045
    112          6           0       22.766308   -0.939067   -2.710391
    113          6           0       22.766143   -0.039216   -3.944533
    114          6           0       22.605170    1.276565   -3.465949
    115          6           0       22.580836    1.170296   -2.031139
    116          6           0       22.940654   -0.538658   -5.385240
    117          6           0       22.618494    2.640352   -3.901124
    118          8           0       22.672745    3.122875   -5.054829
    119          6           0       22.815499    3.450296   -2.554476
    120          6           0       21.812527    4.639932   -2.638859
    121          8           0       20.729780    4.604020   -2.025985
    122          8           0       22.356170    5.649738   -3.361708
    123          6           0       21.300672    6.693228   -3.600776
    124          1           0       23.050603    1.599294    4.309963
    125          1           0       22.834026   -4.512067    2.708806
    126          1           0       22.808697   -2.737594   -3.647732
    127          1           0       23.711703    4.422645    0.397167
    128          1           0       23.170413    3.817832    3.103976
    129          1           0       25.625328    2.842589    1.482707
    130          1           0       25.522592    3.476599    3.165761
    131          1           0       25.300797    4.545162    1.811180
    132          1           0       21.314441    4.645456    2.057569
    133          1           0       20.812677    4.313978    0.375861
    134          1           0       22.437081    6.273770   -0.109332
    135          1           0       22.439449    6.445097    1.706956
    136          1           0       22.292524   -0.594024    6.754853
    137          1           0       23.201641    0.784244    6.141744
    138          1           0       24.117076   -0.648899    6.563492
    139          1           0       22.661804   -4.292633    7.451242
    140          1           0       21.618798   -2.890813    6.906907
    141          1           0       23.403517   -2.656832    7.251301
    142          1           0       21.938889   -5.395875    0.359180
    143          1           0       23.855730   -4.937432   -1.897631
    144          1           0       23.512818   -6.676053    1.079282
    145          1           0       24.688078   -5.426551    1.222716
    146          1           0       24.626747   -6.313743   -0.292156
    147          1           0       21.293357   -4.366782   -2.874451
    148          1           0       21.002569   -5.708296   -1.759756
    149          1           0       21.853662   -5.683546   -4.504171
    150          1           0       21.463639   -6.934522   -3.330711
    151          1           0       23.175825   -6.474189   -3.465326
    152          1           0       24.006238   -0.456180   -5.596370
    153          1           0       22.379531    0.057183   -6.105050
    154          1           0       22.553458   -1.555109   -5.456407
    155          1           0       23.852805    3.776673   -2.615381
    156          1           0       20.545082    6.421294   -4.337640
    157          1           0       21.683788    7.673602   -3.882082
    158          1           0       20.844245    6.871867   -2.626986
 ---------------------------------------------------------------------

 SCF Done:  E(RwB97XD) =  -4070.57952393     A.U. after   20 cycles

 Excitation energies and oscillator strengths:

 Excited State   1:      Singlet-A      1.6387 eV  756.61 nm  f=0.3938  <S**2>=0.000
     310 -> 316       -0.18464
     311 -> 313        0.68353
     310 <- 316       -0.11771
 This state for optimization and/or second-order correction.
 Total Energy, E(TD-HF/TD-DFT) =  -4070.51930342
 Copying the excited state density for this state as the 1-particle RhoCI density.

 Excited State   2:      Singlet-A      1.6768 eV  739.41 nm  f=0.3560  <S**2>=0.000
     309 -> 315       -0.19188
     312 -> 314        0.68016
     309 <- 315       -0.11547

 Excited State   3:      Singlet-A      2.1629 eV  573.22 nm  f=0.0916  <S**2>=0.000
     310 -> 313        0.63065
     311 -> 316        0.30292

 Excited State   4:      Singlet-A      2.2164 eV  559.40 nm  f=0.0062  <S**2>=0.000
     309 -> 314        0.55056
     312 -> 315        0.43362

 Excited State   5:      Singlet-A      3.2556 eV  380.83 nm  f=0.0003  <S**2>=0.000
     306 -> 313       -0.22862
     308 -> 313        0.64107

 The electronic state is 1-A.
 Alpha  occ. eigenvalues --  -46.95789 -46.94219 -19.31386 -19.29633 -19.24724
 Alpha  occ. eigenvalues --  -19.24559 -19.24102 -19.23797 -19.23717 -19.23196
 Alpha  occ. eigenvalues --  -14.47332 -14.46899 -14.46612 -14.46505 -14.44001
 Alpha  occ. eigenvalues --  -14.43744 -14.43687 -14.43026 -10.43589 -10.41794
 Alpha  occ. eigenvalues --  -10.39688 -10.39547 -10.38916 -10.38674 -10.35857
 Alpha  occ. eigenvalues --  -10.35661 -10.35466 -10.35421 -10.35374 -10.35300
 Alpha  occ. eigenvalues --  -10.35134 -10.35119 -10.34961 -10.34460 -10.34445
 Alpha  occ. eigenvalues --  -10.33860 -10.33743 -10.33595 -10.33142 -10.33074
 Alpha  occ. eigenvalues --  -10.33028 -10.32993 -10.32985 -10.32795 -10.32621
 Alpha  occ. eigenvalues --  -10.32453 -10.32247 -10.32203 -10.32197 -10.32175
 Alpha  occ. eigenvalues --  -10.32106 -10.32070 -10.32066 -10.31990 -10.31628
 Alpha  occ. eigenvalues --  -10.31575 -10.31484 -10.31454 -10.31415 -10.31315
 Alpha  occ. eigenvalues --  -10.31232 -10.31194 -10.31131 -10.31060 -10.31003
 Alpha  occ. eigenvalues --  -10.30965 -10.30950 -10.30911 -10.30890 -10.30857
 Alpha  occ. eigenvalues --  -10.30523 -10.30403 -10.30372 -10.30140 -10.30126
 Alpha  occ. eigenvalues --  -10.30011 -10.29808 -10.29800 -10.29589 -10.29399
 Alpha  occ. eigenvalues --  -10.29325 -10.29306 -10.29237 -10.29032 -10.28942
 Alpha  occ. eigenvalues --  -10.28831  -3.21591  -3.20297  -1.95171  -1.94696
 Alpha  occ. eigenvalues --   -1.94557  -1.93909  -1.93423  -1.93274  -1.18231
 Alpha  occ. eigenvalues --   -1.18012  -1.14007  -1.13194  -1.11736  -1.10067
 Alpha  occ. eigenvalues --   -1.09322  -1.08920  -1.07233  -1.06150  -1.06128
 Alpha  occ. eigenvalues --   -1.05336  -1.05086  -1.04704  -1.04413  -1.03444
 Alpha  occ. eigenvalues --   -0.94397  -0.93184  -0.91068  -0.90875  -0.90618
 Alpha  occ. eigenvalues --   -0.90576  -0.90276  -0.90060  -0.89516  -0.89495
 Alpha  occ. eigenvalues --   -0.89178  -0.88916  -0.88648  -0.87396  -0.86534
 Alpha  occ. eigenvalues --   -0.86301  -0.85684  -0.85602  -0.84573  -0.84559
 Alpha  occ. eigenvalues --   -0.84484  -0.84372  -0.83342  -0.82708  -0.82648
 Alpha  occ. eigenvalues --   -0.82397  -0.80762  -0.80229  -0.79715  -0.79484
 Alpha  occ. eigenvalues --   -0.79196  -0.78461  -0.77834  -0.77402  -0.77096
 Alpha  occ. eigenvalues --   -0.76895  -0.74770  -0.74169  -0.73796  -0.73431
 Alpha  occ. eigenvalues --   -0.71301  -0.70838  -0.70819  -0.70229  -0.69799
 Alpha  occ. eigenvalues --   -0.69430  -0.68932  -0.68335  -0.67540  -0.67369
 Alpha  occ. eigenvalues --   -0.67032  -0.66909  -0.66613  -0.66447  -0.66303
 Alpha  occ. eigenvalues --   -0.66205  -0.64056  -0.63422  -0.62530  -0.61974
 Alpha  occ. eigenvalues --   -0.61703  -0.61088  -0.60962  -0.60816  -0.60452
 Alpha  occ. eigenvalues --   -0.60231  -0.59965  -0.59401  -0.59230  -0.59048
 Alpha  occ. eigenvalues --   -0.58333  -0.58013  -0.57749  -0.57467  -0.57289
 Alpha  occ. eigenvalues --   -0.57053  -0.56716  -0.56487  -0.56272  -0.55976
 Alpha  occ. eigenvalues --   -0.55923  -0.55764  -0.55494  -0.55102  -0.54904
 Alpha  occ. eigenvalues --   -0.54889  -0.54633  -0.54566  -0.54540  -0.54411
 Alpha  occ. eigenvalues --   -0.54230  -0.54029  -0.53869  -0.53266  -0.53248
 Alpha  occ. eigenvalues --   -0.52914  -0.52768  -0.52502  -0.52452  -0.52321
 Alpha  occ. eigenvalues --   -0.52261  -0.52187  -0.52094  -0.51841  -0.51487
 Alpha  occ. eigenvalues --   -0.51381  -0.51255  -0.51062  -0.51047  -0.50905
 Alpha  occ. eigenvalues --   -0.50891  -0.50573  -0.50550  -0.50175  -0.50173
 Alpha  occ. eigenvalues --   -0.49970  -0.49795  -0.49646  -0.49374  -0.49373
 Alpha  occ. eigenvalues --   -0.49046  -0.48777  -0.48545  -0.48507  -0.48501
 Alpha  occ. eigenvalues --   -0.48480  -0.48173  -0.48162  -0.48019  -0.48015
 Alpha  occ. eigenvalues --   -0.47774  -0.47306  -0.47074  -0.47024  -0.46737
 Alpha  occ. eigenvalues --   -0.46540  -0.46468  -0.46325  -0.46305  -0.46187
 Alpha  occ. eigenvalues --   -0.46036  -0.45923  -0.45756  -0.45649  -0.45408
 Alpha  occ. eigenvalues --   -0.45279  -0.45214  -0.45012  -0.44792  -0.44790
 Alpha  occ. eigenvalues --   -0.44648  -0.44291  -0.43978  -0.43974  -0.43850
 Alpha  occ. eigenvalues --   -0.43728  -0.43464  -0.43410  -0.43217  -0.43043
 Alpha  occ. eigenvalues --   -0.42825  -0.42707  -0.42288  -0.42132  -0.42103
 Alpha  occ. eigenvalues --   -0.41723  -0.41441  -0.41186  -0.40778  -0.40700
 Alpha  occ. eigenvalues --   -0.40466  -0.39792  -0.39754  -0.39243  -0.39211
 Alpha  occ. eigenvalues --   -0.39188  -0.38997  -0.38893  -0.38283  -0.38094
 Alpha  occ. eigenvalues --   -0.38066  -0.36795  -0.36218  -0.36061  -0.36041
 Alpha  occ. eigenvalues --   -0.35843  -0.35214  -0.34971  -0.33958  -0.33403
 Alpha  occ. eigenvalues --   -0.33256  -0.33178  -0.32654  -0.32256  -0.32224
 Alpha  occ. eigenvalues --   -0.31902  -0.31483  -0.31217  -0.26223  -0.26124
 Alpha  occ. eigenvalues --   -0.22928  -0.22035
 Alpha virt. eigenvalues --   -0.07158  -0.05913  -0.00627   0.00037   0.02059
 Alpha virt. eigenvalues --    0.02679   0.04447   0.04831   0.05047   0.06478
 Alpha virt. eigenvalues --    0.07246   0.07341   0.07752   0.07930   0.08417

 Mulliken charges:
               1
     1  Mg   0.969974
     2  C    0.027158
     3  C   -0.088556
     4  C   -0.071869
     5  C   -0.105491
     6  N   -0.331593
     7  C   -0.006728
     8  C   -0.044224
     9  C   -0.151946
    10  C    0.059822
    11  C    0.050774
    12  C    0.000387
    13  C   -0.115571
    14  H    0.029148
    15  N   -0.488281
    16  C    0.172387
    17  C   -0.166767
    18  C   -0.057477
    19  C    0.125959
    20  C    0.053477
    21  C    0.071680
    22  O   -0.233737
    23  C   -0.004600
    24  N   -0.422778
    25  C    0.060769
    26  C   -0.086635
    27  C   -0.053634
    28  C    0.048433
    29  C    0.042956
    30  C   -0.002781
    31  C   -0.069027
    32  N   -0.373807
    33  C    0.159945
    34  C   -0.166736
    35  C   -0.076243
    36  C    0.112961
    37  C    0.102528
    38  C    0.145423
    39  O   -0.193138
    40  C   -0.138729
    41  C    0.241291
    42  O   -0.254348
    43  O   -0.372482
    44  C    0.133544
    45  H   -0.016210
    46  H    0.028713
    47  H    0.001708
    48  H    0.035374
    49  H    0.021912
    50  H    0.039181
    51  H    0.043601
    52  H    0.038588
    53  H    0.034469
    54  H    0.060913
    55  H    0.043701
    56  H    0.059104
    57  H    0.039663
    58  H    0.049871
    59  H    0.047144
    60  H    0.056639
    61  H    0.050167
    62  H    0.049759
    63  H    0.038396
    64  H    0.031800
    65  H    0.040578
    66  H    0.046750
    67  H    0.027943
    68  H    0.036103
    69  H    0.035524
    70  H    0.039381
    71  H    0.045760
    72  H    0.018534
    73  H    0.034827
    74  H    0.072743
    75  H    0.044352
    76  H    0.067423
    77  H    0.062652
    78  H    0.082012
    79  H    0.059486
    80  Mg   0.942870
    81  C    0.041600
    82  C   -0.129087
    83  C   -0.076183
    84  C   -0.077285
    85  N   -0.336145
    86  C   -0.017641
    87  C   -0.079378
    88  C   -0.155315
    89  C    0.135783
    90  C    0.022030
    91  C    0.093424
    92  C   -0.136493
    93  H    0.008997
    94  N   -0.446429
    95  C    0.165790
    96  C   -0.153240
    97  C   -0.107858
    98  C    0.164982
    99  C    0.056557
   100  C    0.032420
   101  O   -0.217389
   102  C    0.006351
   103  N   -0.392375
   104  C    0.060462
   105  C   -0.103425
   106  C   -0.058524
   107  C    0.088807
   108  C    0.029677
   109  C   -0.034548
   110  C   -0.028619
   111  N   -0.416557
   112  C    0.095803
   113  C   -0.195826
   114  C   -0.011721
   115  C    0.105160
   116  C    0.075069
   117  C    0.122621
   118  O   -0.234916
   119  C   -0.139091
   120  C    0.281262
   121  O   -0.275176
   122  O   -0.340441
   123  C    0.131693
   124  H   -0.010090
   125  H    0.029211
   126  H   -0.008263
   127  H    0.017203
   128  H    0.025381
   129  H    0.050755
   130  H    0.035147
   131  H    0.035651
   132  H    0.016159
   133  H    0.073581
   134  H    0.051863
   135  H    0.043278
   136  H    0.051714
   137  H    0.037616
   138  H    0.072701
   139  H    0.062084
   140  H    0.066201
   141  H    0.055576
   142  H    0.043031
   143  H    0.031517
   144  H    0.039714
   145  H    0.045880
   146  H    0.038588
   147  H    0.026789
   148  H    0.028170
   149  H    0.044935
   150  H    0.030309
   151  H    0.041870
   152  H    0.063131
   153  H    0.057588
   154  H    0.033397
   155  H    0.090037
   156  H    0.070045
   157  H    0.052443
   158  H    0.059089
 Sum of Mulliken charges =  -0.00000

 Dipole moment (field-independent basis, Debye):
    X=              6.0836    Y=             -0.8268    Z=              3.4281  Tot=              7.0317
 Quadrupole moment (field-independent basis, Debye-Ang):
   XX=           -725.0043   YY=           -464.8025   ZZ=           -513.8906
   XY=              7.9564   XZ=            138.7214   YZ=              9.6138

 Normal termination of Gaussian 16 at Mon Sep 20 03:14:44 2021.
