 Gaussian 16, Revision A.03,
 Gaussian 16:  ES64L-G16RevA.03 25-Dec-2016

 --------------------------------
 #p wB97XD/Def2SVP td=(nstates=5)
 --------------------------------

 --------------------------------
 TDDFT excited states in gaussian
 --------------------------------
 Symbolic Z-matrix:
 Charge =  0 Multiplicity = 1

                         Standard orientation:
 ---------------------------------------------------------------------
 Center     Atomic      Atomic             Coordinates (Angstroms)
 Number     Number       Type             X           Y           Z
 ---------------------------------------------------------------------
      1         12           0       18.072264   -0.639803    0.006077
      2          6           0       15.956251    1.958076    0.485904
      3          6           0       20.783331    1.494743    0.404291
      4          6           0       20.188434   -3.237294   -0.480061
      5          6           0       15.399470   -2.656499   -0.872646
      6          7           0       18.262002    1.399455    0.494933
      7          6           0       17.279890    2.326966    0.623642
      8          6           0       17.797422    3.645908    1.135455
      9          6           0       19.342956    3.564422    0.838484
     10          6           0       19.479467    2.026942    0.586931
     11          6           0       19.995528    4.488812   -0.272558
     12          6           0       17.550085    3.810684    2.702437
     13          6           0       17.503698    5.302879    3.145198
     14          1           0       18.250900    6.402964    2.372768
     15          7           0       20.221198   -0.873537   -0.119740
     16          6           0       21.148187    0.179326    0.097896
     17          6           0       22.481870   -0.332227   -0.001602
     18          6           0       22.342463   -1.738294   -0.281773
     19          6           0       20.855462   -1.980643   -0.282721
     20          6           0       23.715929    0.462487    0.245897
     21          6           0       23.422747   -2.792243   -0.497550
     22          8           0       23.224361   -3.990563   -0.854557
     23          6           0       24.881072   -2.415207   -0.299223
     24          7           0       17.849486   -2.628571   -0.652912
     25          6           0       18.861607   -3.587994   -0.595530
     26          6           0       18.365739   -5.060029   -0.687714
     27          6           0       16.761796   -4.778742   -0.765323
     28          6           0       16.628748   -3.300165   -0.736922
     29          6           0       18.958497   -5.710370   -1.944352
     30          6           0       15.956789   -5.495549    0.278266
     31          6           0       14.867992   -6.358363   -0.292726
     32          7           0       16.144318   -0.481696   -0.291268
     33          6           0       15.123338   -1.364415   -0.620929
     34          6           0       13.878641   -0.689459   -0.631520
     35          6           0       14.118920    0.656581   -0.245395
     36          6           0       15.495073    0.723621    0.058324
     37          6           0       12.529626   -1.222900   -0.927350
     38          6           0       13.527814    1.969814   -0.109578
     39          8           0       12.423903    2.440701   -0.302209
     40          6           0       14.748584    2.839746    0.455636
     41          6           0       14.792657    4.203389   -0.134049
     42          8           0       14.633332    4.491676   -1.292635
     43          8           0       15.000336    5.168714    0.774921
     44          6           0       15.063941    6.545783    0.207780
     45          1           0       21.549685    2.272134    0.371575
     46          1           0       20.881329   -4.031751   -0.764705
     47          1           0       14.494645   -3.248026   -1.026578
     48          1           0       17.455079    4.488743    0.535248
     49          1           0       19.878456    3.738873    1.771156
     50          1           0       19.218360    5.167258   -0.624634
     51          1           0       20.455124    4.000724   -1.130539
     52          1           0       20.818858    5.016041    0.209747
     53          1           0       18.363280    3.247848    3.161063
     54          1           0       16.596359    3.333856    2.928918
     55          1           0       17.878949    5.249962    4.167364
     56          1           0       16.448880    5.550504    3.261142
     57          1           0       23.999809    0.585307    1.291138
     58          1           0       23.540849    1.421533   -0.240011
     59          1           0       24.566997    0.129133   -0.347212
     60          1           0       25.198565   -1.954195   -1.234389
     61          1           0       25.399056   -3.365279   -0.170566
     62          1           0       25.051982   -1.714054    0.517837
     63          1           0       18.775115   -5.568959    0.185009
     64          1           0       16.396430   -5.137423   -1.728181
     65          1           0       19.484982   -5.040415   -2.624433
     66          1           0       18.188889   -6.314175   -2.424624
     67          1           0       19.744435   -6.376978   -1.588162
     68          1           0       15.421953   -4.821383    0.947388
     69          1           0       16.540411   -6.122783    0.952227
     70          1           0       14.855654   -7.364629    0.125078
     71          1           0       14.972792   -6.467815   -1.371815
     72          1           0       13.960704   -5.772023   -0.144406
     73          1           0       12.485520   -2.044339   -1.643087
     74          1           0       12.083149   -0.438218   -1.538793
     75          1           0       12.017325   -1.476572    0.000773
     76          1           0       14.370518    2.937962    1.473657
     77          1           0       14.073741    6.939030   -0.026705
     78          1           0       15.788778    6.619831   -0.603089
     79          1           0       15.465824    7.208736    0.974386
     80         12           0      -18.232559   -0.573931    0.103607
     81          6           0      -17.596948    2.781663   -0.533930
     82          6           0      -17.200570   -0.037967    3.331746
     83          6           0      -18.607177   -3.955305    0.687447
     84          6           0      -18.723171   -1.175036   -3.294709
     85          7           0      -17.581910    1.202108    1.264450
     86          6           0      -17.498511    2.478490    0.851990
     87          6           0      -17.212614    3.505768    1.972076
     88          6           0      -16.848325    2.540513    3.180149
     89          6           0      -17.186968    1.098074    2.566982
     90          6           0      -15.345833    2.763396    3.578659
     91          6           0      -18.563171    4.365055    2.181531
     92          6           0      -18.422291    5.913603    2.099362
     93          1           0      -16.959473    6.436856    2.336241
     94          7           0      -17.892065   -1.870545    1.722095
     95          6           0      -17.540570   -1.414480    3.009401
     96          6           0      -17.667375   -2.514199    3.941852
     97          6           0      -18.017177   -3.653031    3.205361
     98          6           0      -18.273701   -3.181701    1.794115
     99          6           0      -17.139762   -2.403429    5.379395
    100          6           0      -18.169507   -5.111111    3.713978
    101          8           0      -18.490381   -6.086244    3.009164
    102          6           0      -17.986704   -5.377701    5.218021
    103          7           0      -18.534960   -2.296896   -1.182833
    104          6           0      -18.712497   -3.601666   -0.629948
    105          6           0      -18.810421   -4.652387   -1.755654
    106          6           0      -19.131238   -3.709002   -3.007084
    107          6           0      -18.820294   -2.293221   -2.454557
    108          6           0      -17.532990   -5.474834   -1.794172
    109          6           0      -20.653904   -3.815835   -3.440815
    110          6           0      -21.881855   -3.630749   -2.485583
    111          7           0      -18.107829    0.502218   -1.586195
    112          6           0      -18.313940    0.145582   -2.922406
    113          6           0      -18.151390    1.301526   -3.743080
    114          6           0      -17.917895    2.351384   -2.873285
    115          6           0      -17.791857    1.819108   -1.566327
    116          6           0      -18.168749    1.366075   -5.256652
    117          6           0      -17.700881    3.742264   -2.810150
    118          8           0      -17.574967    4.493115   -3.724401
    119          6           0      -17.366465    4.051899   -1.292341
    120          6           0      -15.925119    4.479598   -1.264369
    121          8           0      -15.018950    3.784763   -0.854302
    122          8           0      -15.860826    5.706060   -1.796043
    123          6           0      -14.534480    6.056292   -2.241881
    124          1           0      -16.952147    0.137598    4.380287
    125          1           0      -18.485426   -5.029303    0.838547
    126          1           0      -18.862748   -1.348867   -4.364196
    127          1           0      -16.416022    4.217371    1.755753
    128          1           0      -17.472902    2.659036    4.065861
    129          1           0      -14.778265    1.852577    3.770859
    130          1           0      -15.502668    3.349871    4.483507
    131          1           0      -14.919396    3.430618    2.829994
    132          1           0      -19.027176    4.011958    3.102228
    133          1           0      -19.253886    4.052179    1.398126
    134          1           0      -19.098746    6.223044    2.895339
    135          1           0      -18.766742    6.358640    1.166345
    136          1           0      -16.417197   -3.208395    5.516035
    137          1           0      -17.952558   -2.605979    6.078141
    138          1           0      -16.708547   -1.415974    5.541032
    139          1           0      -16.919074   -5.292091    5.424539
    140          1           0      -18.227278   -6.431370    5.358474
    141          1           0      -18.731821   -4.816007    5.780873
    142          1           0      -19.718806   -5.211704   -1.529930
    143          1           0      -18.577955   -4.053020   -3.880197
    144          1           0      -17.045260   -5.554262   -0.822483
    145          1           0      -16.819226   -5.041735   -2.494562
    146          1           0      -17.746431   -6.507305   -2.070077
    147          1           0      -20.779855   -4.761663   -3.967831
    148          1           0      -20.762813   -2.970488   -4.120295
    149          1           0      -22.116605   -4.598202   -2.041477
    150          1           0      -22.697303   -3.295978   -3.127803
    151          1           0      -21.801605   -2.830928   -1.748719
    152          1           0      -19.117500    1.027603   -5.673467
    153          1           0      -17.377912    0.677400   -5.553281
    154          1           0      -18.123414    2.367095   -5.687898
    155          1           0      -17.921831    4.851849   -0.802368
    156          1           0      -14.519384    6.731674   -3.096972
    157          1           0      -13.756583    5.303995   -2.371597
    158          1           0      -13.969497    6.633258   -1.509437
 ---------------------------------------------------------------------

 SCF Done:  E(RwB97XD) =  -4070.61451272     A.U. after   19 cycles

 Excitation energies and oscillator strengths:

 Excited State   1:      Singlet-A      1.5874 eV  781.05 nm  f=0.3914  <S**2>=0.000
     309 -> 315       -0.17576
     311 -> 313        0.68655
     309 <- 315       -0.11663
 This state for optimization and/or second-order correction.
 Total Energy, E(TD-HF/TD-DFT) =  -4070.55617675
 Copying the excited state density for this state as the 1-particle RhoCI density.

 Excited State   2:      Singlet-A      1.6515 eV  750.74 nm  f=0.3879  <S**2>=0.000
     310 -> 316       -0.18081
     312 -> 314        0.68426
     310 <- 316       -0.11555

 Excited State   3:      Singlet-A      2.1691 eV  571.58 nm  f=0.0823  <S**2>=0.000
     309 -> 313        0.62998
     311 -> 315        0.29127

 Excited State   4:      Singlet-A      2.1707 eV  571.18 nm  f=0.1512  <S**2>=0.000
     310 -> 314        0.63847
     312 -> 316        0.27519

 Excited State   5:      Singlet-A      3.3096 eV  374.62 nm  f=0.0147  <S**2>=0.000
     306 -> 313        0.10137
     307 -> 313        0.67089
     311 -> 315       -0.11080

 The electronic state is 1-A.
 Alpha  occ. eigenvalues --  -46.94382 -46.93505 -19.31351 -19.30368 -19.24976
 Alpha  occ. eigenvalues --  -19.24407 -19.24277 -19.23690 -19.23547 -19.23545
 Alpha  occ. eigenvalues --  -14.47458 -14.46800 -14.46293 -14.45984 -14.44107
 Alpha  occ. eigenvalues --  -14.44077 -14.43661 -14.43397 -10.43125 -10.42414
 Alpha  occ. eigenvalues --  -10.39216 -10.39169 -10.39013 -10.38825 -10.35812
 Alpha  occ. eigenvalues --  -10.35632 -10.35377 -10.35058 -10.34947 -10.34712
 Alpha  occ. eigenvalues --  -10.34656 -10.34512 -10.34291 -10.34241 -10.34116
 Alpha  occ. eigenvalues --  -10.33893 -10.33849 -10.33784 -10.33574 -10.33564
 Alpha  occ. eigenvalues --  -10.33329 -10.32959 -10.32925 -10.32887 -10.32831
 Alpha  occ. eigenvalues --  -10.32577 -10.32403 -10.32309 -10.32302 -10.32182
 Alpha  occ. eigenvalues --  -10.32164 -10.32097 -10.31910 -10.31904 -10.31874
 Alpha  occ. eigenvalues --  -10.31807 -10.31755 -10.31716 -10.31670 -10.31595
 Alpha  occ. eigenvalues --  -10.31594 -10.31585 -10.31536 -10.31138 -10.31039
 Alpha  occ. eigenvalues --  -10.30999 -10.30742 -10.30710 -10.30676 -10.30536
 Alpha  occ. eigenvalues --  -10.30449 -10.30157 -10.29966 -10.29703 -10.29626
 Alpha  occ. eigenvalues --  -10.29616 -10.29583 -10.29491 -10.29438 -10.29391
 Alpha  occ. eigenvalues --  -10.29321 -10.29276 -10.29141 -10.29043 -10.28908
 Alpha  occ. eigenvalues --  -10.28742  -3.20414  -3.19755  -1.94006  -1.93516
 Alpha  occ. eigenvalues --   -1.93407  -1.93344  -1.92869  -1.92776  -1.20321
 Alpha  occ. eigenvalues --   -1.19473  -1.14265  -1.12381  -1.11238  -1.10447
 Alpha  occ. eigenvalues --   -1.09619  -1.09448  -1.06515  -1.06146  -1.05598
 Alpha  occ. eigenvalues --   -1.05291  -1.04723  -1.04705  -1.03418  -1.03098
 Alpha  occ. eigenvalues --   -0.95354  -0.94784  -0.91577  -0.90723  -0.90443
 Alpha  occ. eigenvalues --   -0.90393  -0.89949  -0.89590  -0.89589  -0.89166
 Alpha  occ. eigenvalues --   -0.88985  -0.88391  -0.88355  -0.87883  -0.86231
 Alpha  occ. eigenvalues --   -0.85842  -0.85718  -0.85223  -0.84375  -0.84115
 Alpha  occ. eigenvalues --   -0.83586  -0.83118  -0.82999  -0.82767  -0.82461
 Alpha  occ. eigenvalues --   -0.81833  -0.80304  -0.79703  -0.79602  -0.79268
 Alpha  occ. eigenvalues --   -0.78978  -0.78619  -0.78459  -0.77744  -0.77152
 Alpha  occ. eigenvalues --   -0.76847  -0.74925  -0.74873  -0.73811  -0.73102
 Alpha  occ. eigenvalues --   -0.71071  -0.70785  -0.70595  -0.70585  -0.70140
 Alpha  occ. eigenvalues --   -0.69896  -0.68676  -0.68287  -0.67783  -0.67770
 Alpha  occ. eigenvalues --   -0.67299  -0.66770  -0.66504  -0.66419  -0.66079
 Alpha  occ. eigenvalues --   -0.65829  -0.64329  -0.64324  -0.62328  -0.61946
 Alpha  occ. eigenvalues --   -0.61884  -0.61375  -0.60933  -0.60866  -0.60360
 Alpha  occ. eigenvalues --   -0.60346  -0.59961  -0.59958  -0.59716  -0.59201
 Alpha  occ. eigenvalues --   -0.58167  -0.58074  -0.57622  -0.57353  -0.57152
 Alpha  occ. eigenvalues --   -0.56982  -0.56863  -0.56327  -0.55856  -0.55853
 Alpha  occ. eigenvalues --   -0.55279  -0.55274  -0.55022  -0.54953  -0.54804
 Alpha  occ. eigenvalues --   -0.54453  -0.54403  -0.54360  -0.54101  -0.54063
 Alpha  occ. eigenvalues --   -0.53901  -0.53859  -0.53787  -0.53643  -0.53241
 Alpha  occ. eigenvalues --   -0.53080  -0.52827  -0.52540  -0.52232  -0.52011
 Alpha  occ. eigenvalues --   -0.51923  -0.51807  -0.51722  -0.51594  -0.51414
 Alpha  occ. eigenvalues --   -0.51024  -0.50941  -0.50793  -0.50701  -0.50446
 Alpha  occ. eigenvalues --   -0.50305  -0.50185  -0.50131  -0.49898  -0.49813
 Alpha  occ. eigenvalues --   -0.49748  -0.49622  -0.49356  -0.49251  -0.49123
 Alpha  occ. eigenvalues --   -0.49050  -0.48628  -0.48543  -0.48537  -0.48294
 Alpha  occ. eigenvalues --   -0.48144  -0.48051  -0.47837  -0.47709  -0.47447
 Alpha  occ. eigenvalues --   -0.47142  -0.47101  -0.46857  -0.46846  -0.46706
 Alpha  occ. eigenvalues --   -0.46484  -0.46471  -0.46399  -0.46209  -0.45991
 Alpha  occ. eigenvalues --   -0.45822  -0.45629  -0.45535  -0.45460  -0.45328
 Alpha  occ. eigenvalues --   -0.45202  -0.45117  -0.44954  -0.44872  -0.44534
 Alpha  occ. eigenvalues --   -0.44361  -0.44250  -0.44249  -0.43978  -0.43833
 Alpha  occ. eigenvalues --   -0.43761  -0.43668  -0.43328  -0.43227  -0.42948
 Alpha  occ. eigenvalues --   -0.42831  -0.42656  -0.42561  -0.42498  -0.42320
 Alpha  occ. eigenvalues --   -0.42274  -0.42145  -0.41918  -0.41414  -0.41004
 Alpha  occ. eigenvalues --   -0.40203  -0.39879  -0.39629  -0.39625  -0.39353
 Alpha  occ. eigenvalues --   -0.39166  -0.39053  -0.38981  -0.38943  -0.38639
 Alpha  occ. eigenvalues --   -0.38402  -0.38114  -0.36711  -0.36616  -0.36203
 Alpha  occ. eigenvalues --   -0.36045  -0.35427  -0.34892  -0.33769  -0.33679
 Alpha  occ. eigenvalues --   -0.33013  -0.32812  -0.32638  -0.32444  -0.32272
 Alpha  occ. eigenvalues --   -0.32130  -0.31751  -0.31654  -0.26228  -0.25646
 Alpha  occ. eigenvalues --   -0.22832  -0.22741
 Alpha virt. eigenvalues --   -0.07319  -0.06860   0.00300   0.00646   0.02173
 Alpha virt. eigenvalues --    0.02655   0.04342   0.04641   0.05657   0.06127
 Alpha virt. eigenvalues --    0.07149   0.07439   0.07853   0.08033   0.08367

 Mulliken charges:
               1
     1  Mg   0.985644
     2  C    0.012859
     3  C   -0.095416
     4  C   -0.062307
     5  C   -0.128185
     6  N   -0.378463
     7  C   -0.008453
     8  C   -0.043452
     9  C   -0.122017
    10  C    0.057926
    11  C    0.021196
    12  C    0.005362
    13  C   -0.092420
    14  H    0.043442
    15  N   -0.389484
    16  C    0.163952
    17  C   -0.155463
    18  C   -0.073762
    19  C    0.100018
    20  C    0.064910
    21  C    0.052882
    22  O   -0.274742
    23  C   -0.022112
    24  N   -0.392033
    25  C    0.057756
    26  C   -0.092071
    27  C   -0.027243
    28  C    0.109032
    29  C    0.008954
    30  C   -0.008532
    31  C   -0.062957
    32  N   -0.527625
    33  C    0.189952
    34  C   -0.191399
    35  C   -0.054977
    36  C    0.141459
    37  C    0.072757
    38  C    0.153121
    39  O   -0.183093
    40  C   -0.107171
    41  C    0.224449
    42  O   -0.229891
    43  O   -0.358797
    44  C    0.140842
    45  H   -0.003552
    46  H    0.017276
    47  H   -0.016827
    48  H    0.024587
    49  H    0.035430
    50  H    0.042321
    51  H    0.048435
    52  H    0.037228
    53  H    0.035718
    54  H    0.041469
    55  H    0.044222
    56  H    0.060602
    57  H    0.073816
    58  H    0.034833
    59  H    0.031890
    60  H    0.066652
    61  H    0.059189
    62  H    0.050415
    63  H    0.056043
    64  H    0.035274
    65  H    0.060725
    66  H    0.037253
    67  H    0.041377
    68  H    0.033229
    69  H    0.028290
    70  H    0.043825
    71  H    0.022329
    72  H    0.037648
    73  H    0.026980
    74  H    0.061498
    75  H    0.068411
    76  H    0.069214
    77  H    0.070822
    78  H    0.058567
    79  H    0.040365
    80  Mg   0.964384
    81  C   -0.022342
    82  C   -0.067113
    83  C   -0.064542
    84  C   -0.108247
    85  N   -0.333647
    86  C    0.014161
    87  C   -0.076033
    88  C   -0.120563
    89  C    0.066936
    90  C    0.027395
    91  C   -0.000255
    92  C   -0.127128
    93  H    0.035061
    94  N   -0.460820
    95  C    0.133538
    96  C   -0.174208
    97  C   -0.090066
    98  C    0.138141
    99  C    0.086316
   100  C    0.051182
   101  O   -0.252446
   102  C   -0.016175
   103  N   -0.338871
   104  C    0.022137
   105  C   -0.061418
   106  C   -0.072332
   107  C    0.096998
   108  C    0.042022
   109  C   -0.059399
   110  C   -0.054432
   111  N   -0.488603
   112  C    0.148317
   113  C   -0.184008
   114  C   -0.008161
   115  C    0.148306
   116  C    0.079540
   117  C    0.095132
   118  O   -0.162791
   119  C   -0.097346
   120  C    0.245586
   121  O   -0.236958
   122  O   -0.309778
   123  C    0.140879
   124  H   -0.012962
   125  H    0.030829
   126  H    0.003276
   127  H    0.039866
   128  H    0.038789
   129  H    0.052190
   130  H    0.032850
   131  H    0.049532
   132  H    0.033202
   133  H    0.042311
   134  H    0.056974
   135  H    0.070035
   136  H    0.044633
   137  H    0.039320
   138  H    0.041547
   139  H    0.061770
   140  H    0.044398
   141  H    0.063927
   142  H    0.035056
   143  H    0.030298
   144  H    0.046264
   145  H    0.035103
   146  H    0.037221
   147  H    0.038881
   148  H    0.021493
   149  H    0.047694
   150  H    0.037224
   151  H    0.043647
   152  H    0.037537
   153  H    0.056897
   154  H    0.057378
   155  H    0.056414
   156  H    0.058039
   157  H    0.054797
   158  H    0.025217
 Sum of Mulliken charges =  -0.00000

 Dipole moment (field-independent basis, Debye):
    X=              2.3848    Y=              2.4924    Z=              5.1062  Tot=              6.1622
 Quadrupole moment (field-independent basis, Debye-Ang):
   XX=           -368.0060   YY=           -499.5157   ZZ=           -488.9153
   XY=             26.5598   XZ=             38.2055   YZ=             30.4380

 Normal termination of Gaussian 16 at Sun Sep 19 23:51:19 2021.
