 Gaussian 16, Revision A.03,
 Gaussian 16:  ES64L-G16RevA.03 25-Dec-2016

 --------------------------------
 #p wB97XD/Def2SVP td=(nstates=5)
 --------------------------------

 --------------------------------
 TDDFT excited states in gaussian
 --------------------------------
 Symbolic Z-matrix:
 Charge =  0 Multiplicity = 1

                         Standard orientation:
 ---------------------------------------------------------------------
 Center     Atomic      Atomic             Coordinates (Angstroms)
 Number     Number       Type             X           Y           Z
 ---------------------------------------------------------------------
      1         12           0       31.383446    0.480472   -0.343667
      2          6           0       29.112586   -2.010860    0.428348
      3          6           0       28.931037    2.881957    0.557101
      4          6           0       33.726629    2.974252   -0.524564
      5          6           0       33.895881   -1.853637   -0.754297
      6          7           0       29.237546    0.392108    0.275711
      7          6           0       28.561202   -0.758260    0.623528
      8          6           0       27.174260   -0.497172    1.322001
      9          6           0       26.961223    1.054496    0.988680
     10          6           0       28.447008    1.534723    0.525529
     11          6           0       25.857027    1.474413   -0.054787
     12          6           0       27.137322   -0.772231    2.784152
     13          6           0       26.201994   -1.821757    3.353220
     14          1           0       25.725401   -1.589395    4.796004
     15          7           0       31.309164    2.660758   -0.115782
     16          6           0       30.158800    3.404969    0.207009
     17          6           0       30.463478    4.799875    0.166394
     18          6           0       31.939737    4.851050   -0.000229
     19          6           0       32.422648    3.451936   -0.215759
     20          6           0       29.469683    5.907900    0.530230
     21          6           0       32.702225    6.187077    0.033267
     22          8           0       32.233132    7.306413    0.218103
     23          6           0       34.181761    6.116316    0.172094
     24          7           0       33.636336    0.557741   -0.435004
     25          6           0       34.277343    1.709201   -0.677678
     26          6           0       35.770555    1.408478   -0.556728
     27          6           0       35.902586   -0.177599   -0.719027
     28          6           0       34.356898   -0.561739   -0.662615
     29          6           0       36.544349    2.098586   -1.735440
     30          6           0       36.759321   -1.007806    0.322750
     31          6           0       38.030585   -1.720050   -0.114529
     32          7           0       31.496534   -1.578711   -0.275260
     33          6           0       32.591207   -2.418990   -0.501308
     34          6           0       32.210712   -3.782426   -0.291576
     35          6           0       30.834863   -3.707642    0.087916
     36          6           0       30.469963   -2.306509    0.022106
     37          6           0       33.052231   -5.014103   -0.407978
     38          6           0       29.674325   -4.424591    0.423089
     39          8           0       29.542911   -5.627523    0.529320
     40          6           0       28.539309   -3.374391    0.736657
     41          6           0       27.300132   -3.811817    0.075023
     42          8           0       26.359025   -4.317845    0.675757
     43          8           0       27.383639   -3.589577   -1.291408
     44          6           0       26.184177   -4.049153   -2.027001
     45          1           0       28.250595    3.709388    0.766733
     46          1           0       34.387929    3.834549   -0.650388
     47          1           0       34.712381   -2.572723   -0.846207
     48          1           0       26.403068   -1.084465    0.824764
     49          1           0       26.793706    1.553695    1.943734
     50          1           0       25.230094    0.599219   -0.225058
     51          1           0       26.245737    1.847986   -1.002218
     52          1           0       25.304025    2.302654    0.386706
     53          1           0       26.809503    0.152761    3.260910
     54          1           0       28.123533   -1.081196    3.128938
     55          1           0       26.751242   -2.761558    3.401709
     56          1           0       25.275949   -1.926867    2.788442
     57          1           0       28.469823    5.675819    0.896318
     58          1           0       29.462078    6.509060   -0.378638
     59          1           0       30.050064    6.551253    1.190786
     60          1           0       34.805841    6.074552   -0.719557
     61          1           0       34.493231    5.347387    0.879247
     62          1           0       34.484599    7.066907    0.612720
     63          1           0       36.192908    1.735040    0.393848
     64          1           0       36.197466   -0.427139   -1.737679
     65          1           0       37.375293    2.643617   -1.287606
     66          1           0       35.951340    2.769643   -2.358109
     67          1           0       36.944314    1.389506   -2.460604
     68          1           0       36.051064   -1.734155    0.720749
     69          1           0       37.090698   -0.275906    1.060678
     70          1           0       38.168218   -2.521430    0.611821
     71          1           0       38.871830   -1.034220   -0.011918
     72          1           0       38.080328   -2.196457   -1.093073
     73          1           0       32.391292   -5.849089   -0.174006
     74          1           0       33.889943   -4.897756    0.278960
     75          1           0       33.457926   -5.207806   -1.401113
     76          1           0       28.387282   -3.478232    1.811527
     77          1           0       26.309423   -5.086711   -2.336477
     78          1           0       26.035913   -3.329515   -2.832105
     79          1           0       25.281139   -3.964677   -1.423114
     80         12           0      -31.644340    0.164019    0.354414
     81          6           0      -29.233886   -1.551887   -1.587727
     82          6           0      -32.145911    2.229204   -2.267169
     83          6           0      -33.762059    1.796257    2.243694
     84          6           0      -30.411779   -1.653707    3.190699
     85          7           0      -30.709061    0.409474   -1.711718
     86          6           0      -29.947922   -0.577166   -2.315855
     87          6           0      -29.929913   -0.275512   -3.775477
     88          6           0      -30.364568    1.186892   -3.876800
     89          6           0      -31.158741    1.327680   -2.554087
     90          6           0      -29.115823    2.146234   -3.878803
     91          6           0      -30.826796   -1.232673   -4.730478
     92          6           0      -30.267827   -1.732749   -6.097714
     93          1           0      -29.648009   -0.657666   -7.036587
     94          7           0      -32.789827    1.823901   -0.005726
     95          6           0      -32.856575    2.487109   -1.122318
     96          6           0      -33.780955    3.618383   -0.932496
     97          6           0      -34.451211    3.412684    0.311364
     98          6           0      -33.654657    2.316745    0.932708
     99          6           0      -34.066935    4.826270   -1.897189
    100          6           0      -35.659780    4.103781    0.941928
    101          8           0      -36.063389    3.890909    2.101214
    102          6           0      -36.260842    5.224398    0.235246
    103          7           0      -31.892517    0.170326    2.520979
    104          6           0      -32.963799    0.893102    3.039370
    105          6           0      -33.191558    0.462359    4.539648
    106          6           0      -32.203372   -0.716061    4.725089
    107          6           0      -31.470294   -0.778790    3.383239
    108          6           0      -33.082807    1.630605    5.519927
    109          6           0      -32.815551   -2.050838    5.219486
    110          6           0      -32.007282   -2.877456    6.246695
    111          7           0      -30.141421   -1.285122    0.778151
    112          6           0      -29.722740   -1.887148    1.960507
    113          6           0      -28.765208   -2.914176    1.637541
    114          6           0      -28.505538   -2.776412    0.273159
    115          6           0      -29.372781   -1.775354   -0.244911
    116          6           0      -28.221451   -3.869545    2.510392
    117          6           0      -27.760568   -3.315902   -0.873998
    118          8           0      -26.963272   -4.233382   -0.987706
    119          6           0      -28.237545   -2.539965   -2.145137
    120          6           0      -27.005999   -1.927577   -2.788191
    121          8           0      -26.383455   -0.908758   -2.590575
    122          8           0      -26.767768   -2.795790   -3.814160
    123          6           0      -25.842885   -2.358660   -4.887004
    124          1           0      -32.383098    2.849930   -3.134154
    125          1           0      -34.616054    2.225794    2.771440
    126          1           0      -30.186026   -2.364922    3.987405
    127          1           0      -28.960127   -0.352279   -4.267760
    128          1           0      -31.096691    1.354740   -4.666313
    129          1           0      -29.255919    3.052447   -4.467117
    130          1           0      -28.240960    1.712597   -4.363856
    131          1           0      -28.987850    2.439171   -2.837293
    132          1           0      -31.815139   -0.791424   -4.854952
    133          1           0      -31.090202   -2.142013   -4.189000
    134          1           0      -31.173287   -2.068466   -6.604523
    135          1           0      -29.568634   -2.505456   -5.778011
    136          1           0      -35.055491    4.833811   -2.355760
    137          1           0      -33.308953    4.790960   -2.680199
    138          1           0      -34.085326    5.806723   -1.421222
    139          1           0      -36.539167    4.940779   -0.780082
    140          1           0      -35.577570    6.073122    0.202554
    141          1           0      -37.225890    5.410714    0.705472
    142          1           0      -34.177747   -0.001159    4.569802
    143          1           0      -31.376298   -0.423882    5.371855
    144          1           0      -32.045580    1.729835    5.841640
    145          1           0      -33.629618    1.492782    6.452176
    146          1           0      -33.225730    2.563551    4.975686
    147          1           0      -33.135746   -2.716393    4.418003
    148          1           0      -33.787941   -1.884021    5.684822
    149          1           0      -31.497983   -3.626835    5.640594
    150          1           0      -32.762552   -3.385784    6.846949
    151          1           0      -31.316962   -2.232166    6.789288
    152          1           0      -27.269917   -4.345399    2.274300
    153          1           0      -28.997824   -4.616937    2.676954
    154          1           0      -28.024107   -3.330965    3.436556
    155          1           0      -28.743496   -3.220562   -2.829653
    156          1           0      -26.333057   -2.663045   -5.811319
    157          1           0      -24.850691   -2.809187   -4.881223
    158          1           0      -25.753665   -1.272649   -4.881458
 ---------------------------------------------------------------------

 SCF Done:  E(RwB97XD) =  -4070.58728910     A.U. after   20 cycles

 Excitation energies and oscillator strengths:

 Excited State   1:      Singlet-A      1.6653 eV  744.50 nm  f=0.3737  <S**2>=0.000
     309 -> 315        0.17865
     311 -> 313        0.68428
     309 <- 315        0.11349
 This state for optimization and/or second-order correction.
 Total Energy, E(TD-HF/TD-DFT) =  -4070.52608927
 Copying the excited state density for this state as the 1-particle RhoCI density.

 Excited State   2:      Singlet-A      1.6742 eV  740.55 nm  f=0.3872  <S**2>=0.000
     310 -> 316       -0.19697
     312 -> 314        0.67923
     310 <- 316       -0.11758

 Excited State   3:      Singlet-A      2.1184 eV  585.28 nm  f=0.1555  <S**2>=0.000
     309 -> 313        0.64906
     311 -> 315       -0.25657

 Excited State   4:      Singlet-A      2.2066 eV  561.88 nm  f=0.0673  <S**2>=0.000
     310 -> 314        0.62036
     312 -> 316        0.32388

 Excited State   5:      Singlet-A      3.0630 eV  404.78 nm  f=0.0076  <S**2>=0.000
     307 -> 313        0.68067

 The electronic state is 1-A.
 Alpha  occ. eigenvalues --  -46.96829 -46.95706 -19.30339 -19.29600 -19.24969
 Alpha  occ. eigenvalues --  -19.24769 -19.24299 -19.24200 -19.23724 -19.23294
 Alpha  occ. eigenvalues --  -14.48158 -14.46558 -14.46364 -14.45997 -14.44707
 Alpha  occ. eigenvalues --  -14.44428 -14.44422 -14.43551 -10.43083 -10.42973
 Alpha  occ. eigenvalues --  -10.39491 -10.39308 -10.38828 -10.38150 -10.37278
 Alpha  occ. eigenvalues --  -10.36230 -10.35773 -10.35758 -10.35687 -10.35233
 Alpha  occ. eigenvalues --  -10.35196 -10.34827 -10.34817 -10.34790 -10.34557
 Alpha  occ. eigenvalues --  -10.34324 -10.34103 -10.34089 -10.34040 -10.33987
 Alpha  occ. eigenvalues --  -10.33831 -10.33647 -10.33558 -10.33530 -10.33030
 Alpha  occ. eigenvalues --  -10.32776 -10.32750 -10.32736 -10.32578 -10.32344
 Alpha  occ. eigenvalues --  -10.32329 -10.32309 -10.32222 -10.32196 -10.31959
 Alpha  occ. eigenvalues --  -10.31926 -10.31918 -10.31828 -10.31637 -10.31614
 Alpha  occ. eigenvalues --  -10.31578 -10.31576 -10.31543 -10.31345 -10.31328
 Alpha  occ. eigenvalues --  -10.31295 -10.31248 -10.30963 -10.30870 -10.30846
 Alpha  occ. eigenvalues --  -10.30763 -10.30565 -10.30299 -10.30224 -10.30167
 Alpha  occ. eigenvalues --  -10.30070 -10.29917 -10.29885 -10.29710 -10.29627
 Alpha  occ. eigenvalues --  -10.29557 -10.29466 -10.29338 -10.29087 -10.28899
 Alpha  occ. eigenvalues --  -10.28833  -3.22524  -3.21551  -1.96133  -1.95615
 Alpha  occ. eigenvalues --   -1.95485  -1.95133  -1.94672  -1.94509  -1.18284
 Alpha  occ. eigenvalues --   -1.17689  -1.12338  -1.11955  -1.11821  -1.11578
 Alpha  occ. eigenvalues --   -1.09962  -1.09678  -1.07183  -1.06802  -1.06064
 Alpha  occ. eigenvalues --   -1.05941  -1.05045  -1.04643  -1.04087  -1.03815
 Alpha  occ. eigenvalues --   -0.94740  -0.94544  -0.91476  -0.91258  -0.90760
 Alpha  occ. eigenvalues --   -0.90361  -0.90050  -0.89873  -0.89656  -0.89483
 Alpha  occ. eigenvalues --   -0.89086  -0.89069  -0.88802  -0.87842  -0.86447
 Alpha  occ. eigenvalues --   -0.86133  -0.85729  -0.85478  -0.84827  -0.84607
 Alpha  occ. eigenvalues --   -0.84402  -0.84184  -0.83440  -0.82834  -0.82731
 Alpha  occ. eigenvalues --   -0.82562  -0.80342  -0.79790  -0.79367  -0.79143
 Alpha  occ. eigenvalues --   -0.78946  -0.78944  -0.78150  -0.77781  -0.77465
 Alpha  occ. eigenvalues --   -0.77043  -0.75502  -0.74490  -0.74292  -0.73785
 Alpha  occ. eigenvalues --   -0.71345  -0.70975  -0.70856  -0.70663  -0.69994
 Alpha  occ. eigenvalues --   -0.69690  -0.69320  -0.69101  -0.67546  -0.67459
 Alpha  occ. eigenvalues --   -0.67423  -0.67289  -0.67280  -0.66962  -0.66786
 Alpha  occ. eigenvalues --   -0.66320  -0.64984  -0.63932  -0.62482  -0.62307
 Alpha  occ. eigenvalues --   -0.61733  -0.61553  -0.61458  -0.61225  -0.61074
 Alpha  occ. eigenvalues --   -0.60285  -0.59890  -0.59801  -0.59492  -0.58907
 Alpha  occ. eigenvalues --   -0.58558  -0.58155  -0.57933  -0.57853  -0.57409
 Alpha  occ. eigenvalues --   -0.57130  -0.56696  -0.56399  -0.55774  -0.55634
 Alpha  occ. eigenvalues --   -0.55503  -0.55498  -0.55179  -0.55178  -0.55131
 Alpha  occ. eigenvalues --   -0.54872  -0.54806  -0.54698  -0.54401  -0.54328
 Alpha  occ. eigenvalues --   -0.54047  -0.54030  -0.53847  -0.53599  -0.53499
 Alpha  occ. eigenvalues --   -0.53266  -0.53146  -0.52841  -0.52713  -0.52355
 Alpha  occ. eigenvalues --   -0.52342  -0.52158  -0.51892  -0.51714  -0.51590
 Alpha  occ. eigenvalues --   -0.51449  -0.51324  -0.51181  -0.50927  -0.50845
 Alpha  occ. eigenvalues --   -0.50727  -0.50558  -0.50224  -0.50095  -0.49835
 Alpha  occ. eigenvalues --   -0.49791  -0.49566  -0.49307  -0.49147  -0.49024
 Alpha  occ. eigenvalues --   -0.48965  -0.48850  -0.48614  -0.48568  -0.48518
 Alpha  occ. eigenvalues --   -0.48186  -0.48090  -0.47926  -0.47853  -0.47798
 Alpha  occ. eigenvalues --   -0.47652  -0.47460  -0.47211  -0.47097  -0.46962
 Alpha  occ. eigenvalues --   -0.46811  -0.46653  -0.46601  -0.46500  -0.46298
 Alpha  occ. eigenvalues --   -0.46071  -0.45996  -0.45762  -0.45661  -0.45612
 Alpha  occ. eigenvalues --   -0.45569  -0.44976  -0.44941  -0.44885  -0.44746
 Alpha  occ. eigenvalues --   -0.44682  -0.44342  -0.44223  -0.44158  -0.44084
 Alpha  occ. eigenvalues --   -0.43916  -0.43592  -0.43496  -0.43433  -0.43243
 Alpha  occ. eigenvalues --   -0.43197  -0.42794  -0.42433  -0.42339  -0.42119
 Alpha  occ. eigenvalues --   -0.41891  -0.41758  -0.41628  -0.41477  -0.41374
 Alpha  occ. eigenvalues --   -0.40666  -0.40262  -0.39941  -0.39686  -0.39412
 Alpha  occ. eigenvalues --   -0.39323  -0.39202  -0.38790  -0.38570  -0.38467
 Alpha  occ. eigenvalues --   -0.37839  -0.37831  -0.36644  -0.36522  -0.36331
 Alpha  occ. eigenvalues --   -0.35909  -0.35476  -0.35308  -0.34003  -0.33680
 Alpha  occ. eigenvalues --   -0.33359  -0.33212  -0.32726  -0.32476  -0.32429
 Alpha  occ. eigenvalues --   -0.32299  -0.31844  -0.31417  -0.26546  -0.25885
 Alpha  occ. eigenvalues --   -0.23978  -0.22770
 Alpha virt. eigenvalues --   -0.08093  -0.06617  -0.00422  -0.00140   0.01931
 Alpha virt. eigenvalues --    0.02060   0.04290   0.04324   0.05025   0.05470
 Alpha virt. eigenvalues --    0.07055   0.07426   0.07858   0.08048   0.08311

 Mulliken charges:
               1
     1  Mg   0.930514
     2  C    0.060738
     3  C   -0.053525
     4  C   -0.067806
     5  C   -0.064523
     6  N   -0.367862
     7  C   -0.017631
     8  C   -0.066772
     9  C   -0.122733
    10  C    0.087822
    11  C    0.030134
    12  C    0.037140
    13  C   -0.149414
    14  H    0.025301
    15  N   -0.454851
    16  C    0.135270
    17  C   -0.149640
    18  C   -0.136745
    19  C    0.177559
    20  C    0.084322
    21  C    0.092272
    22  O   -0.239818
    23  C   -0.062626
    24  N   -0.335449
    25  C    0.120459
    26  C   -0.138842
    27  C   -0.048752
    28  C    0.022449
    29  C    0.006356
    30  C   -0.011652
    31  C   -0.052421
    32  N   -0.425406
    33  C    0.118261
    34  C   -0.169466
    35  C   -0.018248
    36  C    0.076846
    37  C    0.078440
    38  C    0.069303
    39  O   -0.202363
    40  C   -0.060355
    41  C    0.246556
    42  O   -0.245766
    43  O   -0.384156
    44  C    0.134980
    45  H   -0.012729
    46  H   -0.019718
    47  H   -0.002621
    48  H    0.034896
    49  H    0.040606
    50  H    0.043302
    51  H    0.048384
    52  H    0.043018
    53  H    0.039676
    54  H    0.043305
    55  H    0.068905
    56  H    0.059020
    57  H    0.056926
    58  H    0.057804
    59  H    0.063735
    60  H    0.068464
    61  H    0.055847
    62  H    0.048636
    63  H    0.055222
    64  H    0.030152
    65  H    0.036212
    66  H    0.039792
    67  H    0.031077
    68  H    0.041423
    69  H    0.028824
    70  H    0.036991
    71  H    0.037552
    72  H    0.038390
    73  H    0.062994
    74  H    0.045529
    75  H    0.046934
    76  H    0.066610
    77  H    0.069718
    78  H    0.052468
    79  H    0.054758
    80  Mg   0.942243
    81  C   -0.051857
    82  C   -0.101109
    83  C   -0.067652
    84  C   -0.090825
    85  N   -0.320291
    86  C    0.052379
    87  C   -0.094577
    88  C   -0.080765
    89  C   -0.006019
    90  C    0.041930
    91  C   -0.020856
    92  C   -0.113958
    93  H    0.029604
    94  N   -0.428171
    95  C    0.195016
    96  C   -0.167265
    97  C   -0.071080
    98  C    0.113683
    99  C    0.058732
   100  C    0.067013
   101  O   -0.250768
   102  C   -0.004289
   103  N   -0.356387
   104  C    0.033164
   105  C   -0.062117
   106  C   -0.056376
   107  C    0.068639
   108  C    0.048398
   109  C   -0.039111
   110  C   -0.040845
   111  N   -0.439458
   112  C    0.135286
   113  C   -0.196873
   114  C   -0.015687
   115  C    0.167485
   116  C    0.061238
   117  C    0.109526
   118  O   -0.199663
   119  C   -0.077096
   120  C    0.279454
   121  O   -0.226443
   122  O   -0.373840
   123  C    0.131579
   124  H   -0.012467
   125  H    0.026203
   126  H   -0.012856
   127  H    0.024519
   128  H    0.020072
   129  H    0.029352
   130  H    0.045932
   131  H    0.057434
   132  H    0.021566
   133  H    0.024520
   134  H    0.065208
   135  H    0.071854
   136  H    0.043675
   137  H    0.040999
   138  H    0.041513
   139  H    0.037716
   140  H    0.075206
   141  H    0.054605
   142  H    0.039212
   143  H    0.033361
   144  H    0.015969
   145  H    0.046701
   146  H    0.047937
   147  H    0.025312
   148  H    0.022969
   149  H    0.043233
   150  H    0.039850
   151  H    0.045435
   152  H    0.060017
   153  H    0.054167
   154  H    0.037946
   155  H    0.081388
   156  H    0.047544
   157  H    0.063826
   158  H    0.058092
 Sum of Mulliken charges =  -0.00000

 Dipole moment (field-independent basis, Debye):
    X=             -1.3283    Y=              3.8328    Z=             -4.3118  Tot=              5.9200
 Quadrupole moment (field-independent basis, Debye-Ang):
   XX=           -107.1716   YY=           -567.4106   ZZ=           -474.0079
   XY=             41.5575   XZ=              9.3381   YZ=             -6.6761

 Normal termination of Gaussian 16 at Mon Sep 20 06:26:54 2021.
