 Gaussian 16, Revision A.03,
 Gaussian 16:  ES64L-G16RevA.03 25-Dec-2016

 --------------------------------
 #p wB97XD/Def2SVP td=(nstates=5)
 --------------------------------

 --------------------------------
 TDDFT excited states in gaussian
 --------------------------------
 Symbolic Z-matrix:
 Charge =  0 Multiplicity = 1

                         Standard orientation:
 ---------------------------------------------------------------------
 Center     Atomic      Atomic             Coordinates (Angstroms)
 Number     Number       Type             X           Y           Z
 ---------------------------------------------------------------------
      1         12           0      -32.701467   -0.228592   -0.529826
      2          6           0      -29.447197    1.070863   -0.262735
      3          6           0      -31.428862   -3.354176    0.128465
      4          6           0      -35.821460   -1.217992   -0.047870
      5          6           0      -33.914576    3.084762   -0.939577
      6          7           0      -30.732389   -0.983551    0.127795
      7          6           0      -29.506220   -0.270847    0.168649
      8          6           0      -28.330594   -1.157293    0.214913
      9          6           0      -28.998280   -2.599629    0.240699
     10          6           0      -30.487199   -2.314466    0.122878
     11          6           0      -28.380942   -3.559069   -0.805431
     12          6           0      -27.497505   -1.028715    1.453604
     13          6           0      -28.249430   -0.781004    2.769814
     14          1           0      -27.750167   -1.402851    4.131882
     15          7           0      -33.561658   -2.060179   -0.057835
     16          6           0      -32.867688   -3.209964    0.042478
     17          6           0      -33.804831   -4.296866    0.178013
     18          6           0      -35.095474   -3.725359    0.056906
     19          6           0      -34.889095   -2.272533   -0.056030
     20          6           0      -33.454646   -5.738454    0.431903
     21          6           0      -36.415311   -4.496095    0.058567
     22          8           0      -36.435169   -5.705245    0.181149
     23          6           0      -37.803153   -3.927395    0.033936
     24          7           0      -34.569341    0.807437   -0.242186
     25          6           0      -35.762102    0.148985   -0.103912
     26          6           0      -36.975835    1.108195   -0.334695
     27          6           0      -36.293057    2.509098   -0.304378
     28          6           0      -34.846523    2.124939   -0.526110
     29          6           0      -37.744753    0.901404   -1.661991
     30          6           0      -36.297148    3.263348    1.108243
     31          6           0      -36.682059    4.698423    1.101404
     32          7           0      -31.931362    1.634360   -0.694115
     33          6           0      -32.518604    2.789221   -1.035669
     34          6           0      -31.482077    3.771642   -1.530987
     35          6           0      -30.261986    3.069106   -1.273560
     36          6           0      -30.584968    1.839988   -0.631980
     37          6           0      -31.641096    5.170463   -2.109155
     38          6           0      -28.838044    3.242213   -1.262078
     39          8           0      -28.150905    4.199511   -1.581397
     40          6           0      -28.253245    1.917651   -0.624717
     41          6           0      -27.625993    2.305110    0.698366
     42          8           0      -28.176998    2.677592    1.681035
     43          8           0      -26.274663    2.043791    0.618702
     44          6           0      -25.586634    2.098312    1.912521
     45          1           0      -31.000552   -4.358421    0.139396
     46          1           0      -36.860861   -1.549826   -0.068192
     47          1           0      -34.358840    4.047128   -1.202088
     48          1           0      -27.716283   -0.935527   -0.657745
     49          1           0      -28.999333   -3.109336    1.204127
     50          1           0      -28.206863   -4.438674   -0.185424
     51          1           0      -27.470520   -3.084983   -1.172316
     52          1           0      -29.079275   -3.835509   -1.595628
     53          1           0      -26.638035   -0.367187    1.341807
     54          1           0      -26.922156   -1.918377    1.710624
     55          1           0      -29.271857   -1.103437    2.569987
     56          1           0      -28.274129    0.307997    2.813146
     57          1           0      -34.076936   -6.159208    1.222423
     58          1           0      -32.387469   -5.829628    0.633827
     59          1           0      -33.687439   -6.234997   -0.510396
     60          1           0      -38.090851   -3.354887    0.915145
     61          1           0      -38.400212   -4.835934    0.113958
     62          1           0      -38.083799   -3.521187   -0.938420
     63          1           0      -37.679026    0.954054    0.483658
     64          1           0      -36.638829    3.176995   -1.093760
     65          1           0      -37.576051    1.769994   -2.298283
     66          1           0      -38.765056    0.559078   -1.489863
     67          1           0      -37.297967    0.060718   -2.191567
     68          1           0      -35.338694    3.151186    1.614559
     69          1           0      -37.026196    2.705132    1.695847
     70          1           0      -37.516788    4.919143    1.766372
     71          1           0      -36.914013    5.082493    0.107764
     72          1           0      -35.877964    5.334200    1.470984
     73          1           0      -31.074276    5.837121   -1.459224
     74          1           0      -32.706781    5.348605   -2.258162
     75          1           0      -31.094308    5.157538   -3.051912
     76          1           0      -27.538183    1.422910   -1.281619
     77          1           0      -26.229349    1.824473    2.749086
     78          1           0      -25.282643    3.142077    1.992164
     79          1           0      -24.659971    1.541328    1.776760
     80         12           0       32.398557    0.562808   -0.568053
     81          6           0       30.514106   -2.228921    0.607016
     82          6           0       30.593838    2.400665    1.524138
     83          6           0       34.711710    3.013646   -0.821461
     84          6           0       34.665391   -1.850590   -1.886071
     85          7           0       30.728360    0.168182    0.753445
     86          6           0       30.035866   -1.029142    1.036079
     87          6           0       28.861437   -0.834934    2.046203
     88          6           0       28.903373    0.703997    2.265145
     89          6           0       30.094326    1.157265    1.394432
     90          6           0       27.517960    1.260210    1.896397
     91          6           0       28.925903   -1.639028    3.415918
     92          6           0       27.858355   -2.704484    3.636522
     93          1           0       26.993037   -2.590121    4.908141
     94          7           0       32.599040    2.443330    0.131688
     95          6           0       31.707410    3.035368    1.025975
     96          6           0       32.033117    4.389782    1.223782
     97          6           0       33.140904    4.681519    0.449506
     98          6           0       33.557784    3.412003   -0.110769
     99          6           0       31.297429    5.461752    2.110644
    100          6           0       33.726239    6.069878    0.339347
    101          8           0       33.226222    7.049266    0.807255
    102          6           0       35.030935    6.197406   -0.590809
    103          7           0       34.431641    0.583422   -1.186329
    104          6           0       35.147737    1.748508   -1.229259
    105          6           0       36.626461    1.365679   -1.646537
    106          6           0       36.610010   -0.102716   -2.103008
    107          6           0       35.145058   -0.511747   -1.689239
    108          6           0       37.292702    2.337613   -2.578446
    109          6           0       37.609110   -0.902784   -1.276484
    110          6           0       38.129865   -2.183641   -1.872471
    111          7           0       32.462171   -1.598666   -0.861619
    112          6           0       33.422938   -2.401386   -1.428875
    113          6           0       32.992907   -3.752368   -1.434132
    114          6           0       31.784271   -3.794543   -0.699533
    115          6           0       31.591299   -2.447934   -0.280267
    116          6           0       33.726798   -4.928524   -1.940901
    117          6           0       30.684558   -4.585198   -0.130406
    118          8           0       30.450988   -5.793555   -0.267663
    119          6           0       29.786651   -3.612445    0.726429
    120          6           0       28.513151   -3.451271    0.076902
    121          8           0       28.394790   -2.742698   -0.950662
    122          8           0       27.622146   -4.207660    0.747591
    123          6           0       26.178641   -4.077315    0.408000
    124          1           0       29.994989    3.043135    2.173570
    125          1           0       35.405775    3.848131   -0.942271
    126          1           0       35.261031   -2.620362   -2.380504
    127          1           0       27.918709   -1.102329    1.568951
    128          1           0       29.140797    0.991798    3.288853
    129          1           0       27.606344    2.346235    1.894207
    130          1           0       26.702118    0.990377    2.566854
    131          1           0       27.194231    0.943816    0.904199
    132          1           0       28.688199   -0.887312    4.168624
    133          1           0       29.929721   -2.034727    3.570802
    134          1           0       28.360619   -3.672379    3.622891
    135          1           0       27.144910   -2.671151    2.812367
    136          1           0       32.066244    5.881331    2.759795
    137          1           0       30.512078    5.016691    2.721384
    138          1           0       30.736084    6.223130    1.569138
    139          1           0       35.243556    7.264356   -0.650950
    140          1           0       34.707363    5.741020   -1.526586
    141          1           0       35.758243    5.603391   -0.037474
    142          1           0       37.173895    1.438417   -0.706127
    143          1           0       36.814150   -0.293207   -3.156595
    144          1           0       38.009119    1.788767   -3.189079
    145          1           0       37.781221    3.074146   -1.940194
    146          1           0       36.604154    2.936507   -3.173397
    147          1           0       37.242745   -1.144185   -0.278263
    148          1           0       38.484542   -0.312572   -1.005695
    149          1           0       37.874901   -2.296263   -2.926073
    150          1           0       37.690552   -3.011256   -1.315181
    151          1           0       39.191432   -2.305599   -1.657514
    152          1           0       34.399712   -4.663070   -2.756883
    153          1           0       32.960137   -5.621031   -2.289261
    154          1           0       34.319886   -5.283578   -1.097806
    155          1           0       29.714686   -3.869169    1.783329
    156          1           0       25.850532   -5.102854    0.583621
    157          1           0       25.991138   -3.716088   -0.602738
    158          1           0       25.633301   -3.536272    1.182025
 ---------------------------------------------------------------------

 SCF Done:  E(RwB97XD) =  -4070.60325776     A.U. after   19 cycles

 Excitation energies and oscillator strengths:

 Excited State   1:      Singlet-A      1.6067 eV  771.68 nm  f=0.3720  <S**2>=0.000
     309 -> 315        0.17854
     312 -> 313        0.68545
     309 <- 315        0.11727
 This state for optimization and/or second-order correction.
 Total Energy, E(TD-HF/TD-DFT) =  -4070.54421316
 Copying the excited state density for this state as the 1-particle RhoCI density.

 Excited State   2:      Singlet-A      1.6723 eV  741.38 nm  f=0.3881  <S**2>=0.000
     310 -> 316        0.17578
     311 -> 314        0.68537
     310 <- 316        0.11223

 Excited State   3:      Singlet-A      2.2042 eV  562.48 nm  f=0.1151  <S**2>=0.000
     310 -> 314        0.63531
     311 -> 316       -0.29117

 Excited State   4:      Singlet-A      2.2111 eV  560.73 nm  f=0.0974  <S**2>=0.000
     309 -> 313        0.62749
     312 -> 315       -0.31209

 Excited State   5:      Singlet-A      3.2884 eV  377.04 nm  f=0.0022  <S**2>=0.000
     302 -> 314        0.11887
     308 -> 314        0.66483

 The electronic state is 1-A.
 Alpha  occ. eigenvalues --  -46.94942 -46.94878 -19.31707 -19.29848 -19.25339
 Alpha  occ. eigenvalues --  -19.24706 -19.24592 -19.24186 -19.23776 -19.23254
 Alpha  occ. eigenvalues --  -14.47184 -14.46998 -14.46783 -14.46490 -14.44182
 Alpha  occ. eigenvalues --  -14.44176 -14.44116 -14.43047 -10.43334 -10.43086
 Alpha  occ. eigenvalues --  -10.39486 -10.39408 -10.39011 -10.38567 -10.36583
 Alpha  occ. eigenvalues --  -10.35713 -10.35515 -10.35248 -10.35207 -10.35106
 Alpha  occ. eigenvalues --  -10.34976 -10.34839 -10.34658 -10.34611 -10.34604
 Alpha  occ. eigenvalues --  -10.34523 -10.34513 -10.33998 -10.33704 -10.33328
 Alpha  occ. eigenvalues --  -10.33012 -10.32868 -10.32641 -10.32564 -10.32557
 Alpha  occ. eigenvalues --  -10.32460 -10.32418 -10.32418 -10.32297 -10.32204
 Alpha  occ. eigenvalues --  -10.32183 -10.32108 -10.31977 -10.31973 -10.31885
 Alpha  occ. eigenvalues --  -10.31881 -10.31808 -10.31649 -10.31525 -10.31340
 Alpha  occ. eigenvalues --  -10.31287 -10.31139 -10.31072 -10.31066 -10.30993
 Alpha  occ. eigenvalues --  -10.30970 -10.30860 -10.30544 -10.30496 -10.30424
 Alpha  occ. eigenvalues --  -10.30370 -10.30330 -10.30305 -10.30279 -10.30248
 Alpha  occ. eigenvalues --  -10.30060 -10.29962 -10.29698 -10.29660 -10.29438
 Alpha  occ. eigenvalues --  -10.29368 -10.29268 -10.29186 -10.29159 -10.28977
 Alpha  occ. eigenvalues --  -10.28859  -3.21012  -3.20917  -1.94565  -1.94482
 Alpha  occ. eigenvalues --   -1.94142  -1.94021  -1.94002  -1.93909  -1.19412
 Alpha  occ. eigenvalues --   -1.18809  -1.14235  -1.12613  -1.12196  -1.11163
 Alpha  occ. eigenvalues --   -1.10879  -1.09559  -1.06595  -1.06156  -1.06037
 Alpha  occ. eigenvalues --   -1.05333  -1.05244  -1.04850  -1.04654  -1.03764
 Alpha  occ. eigenvalues --   -0.95162  -0.94166  -0.91748  -0.91519  -0.91314
 Alpha  occ. eigenvalues --   -0.91215  -0.90686  -0.90300  -0.89453  -0.89290
 Alpha  occ. eigenvalues --   -0.88635  -0.88424  -0.88287  -0.87758  -0.86722
 Alpha  occ. eigenvalues --   -0.86650  -0.86130  -0.86055  -0.85190  -0.84634
 Alpha  occ. eigenvalues --   -0.83838  -0.83604  -0.83108  -0.82821  -0.82470
 Alpha  occ. eigenvalues --   -0.82265  -0.79887  -0.79653  -0.79444  -0.79337
 Alpha  occ. eigenvalues --   -0.78783  -0.78616  -0.78169  -0.77983  -0.77102
 Alpha  occ. eigenvalues --   -0.77097  -0.74731  -0.74695  -0.73712  -0.73657
 Alpha  occ. eigenvalues --   -0.71561  -0.71247  -0.70814  -0.70574  -0.70520
 Alpha  occ. eigenvalues --   -0.69718  -0.69241  -0.69093  -0.67793  -0.67657
 Alpha  occ. eigenvalues --   -0.67499  -0.67078  -0.67007  -0.66565  -0.66525
 Alpha  occ. eigenvalues --   -0.66371  -0.64217  -0.64102  -0.62188  -0.61979
 Alpha  occ. eigenvalues --   -0.61614  -0.61429  -0.61390  -0.61011  -0.60927
 Alpha  occ. eigenvalues --   -0.60462  -0.60197  -0.60109  -0.59400  -0.59148
 Alpha  occ. eigenvalues --   -0.58539  -0.58381  -0.58021  -0.57994  -0.57365
 Alpha  occ. eigenvalues --   -0.57058  -0.56968  -0.56625  -0.56564  -0.56204
 Alpha  occ. eigenvalues --   -0.56027  -0.55773  -0.55103  -0.54995  -0.54825
 Alpha  occ. eigenvalues --   -0.54807  -0.54431  -0.54361  -0.54301  -0.54213
 Alpha  occ. eigenvalues --   -0.54021  -0.53632  -0.53534  -0.53395  -0.53345
 Alpha  occ. eigenvalues --   -0.53146  -0.53079  -0.52876  -0.52454  -0.52273
 Alpha  occ. eigenvalues --   -0.52102  -0.52082  -0.51934  -0.51754  -0.51555
 Alpha  occ. eigenvalues --   -0.51341  -0.51216  -0.51173  -0.50887  -0.50849
 Alpha  occ. eigenvalues --   -0.50691  -0.50553  -0.50387  -0.50287  -0.50166
 Alpha  occ. eigenvalues --   -0.49973  -0.49466  -0.49461  -0.49417  -0.49133
 Alpha  occ. eigenvalues --   -0.49046  -0.48895  -0.48827  -0.48740  -0.48368
 Alpha  occ. eigenvalues --   -0.48313  -0.48241  -0.48032  -0.47951  -0.47827
 Alpha  occ. eigenvalues --   -0.47577  -0.47427  -0.47245  -0.47171  -0.47055
 Alpha  occ. eigenvalues --   -0.46885  -0.46684  -0.46604  -0.46299  -0.46244
 Alpha  occ. eigenvalues --   -0.46070  -0.46026  -0.45839  -0.45746  -0.45538
 Alpha  occ. eigenvalues --   -0.45440  -0.45251  -0.45153  -0.44992  -0.44717
 Alpha  occ. eigenvalues --   -0.44700  -0.44524  -0.44517  -0.44384  -0.44229
 Alpha  occ. eigenvalues --   -0.44115  -0.44083  -0.43834  -0.43792  -0.43581
 Alpha  occ. eigenvalues --   -0.43554  -0.43059  -0.42675  -0.42510  -0.42299
 Alpha  occ. eigenvalues --   -0.42109  -0.42001  -0.41765  -0.41092  -0.41034
 Alpha  occ. eigenvalues --   -0.40412  -0.40392  -0.40125  -0.39812  -0.39578
 Alpha  occ. eigenvalues --   -0.39318  -0.39250  -0.39078  -0.38774  -0.38478
 Alpha  occ. eigenvalues --   -0.37936  -0.37713  -0.37051  -0.36236  -0.36218
 Alpha  occ. eigenvalues --   -0.36146  -0.35300  -0.35198  -0.34024  -0.33580
 Alpha  occ. eigenvalues --   -0.33122  -0.32986  -0.32737  -0.32665  -0.32468
 Alpha  occ. eigenvalues --   -0.32074  -0.31827  -0.31064  -0.26230  -0.26212
 Alpha  occ. eigenvalues --   -0.23068  -0.22853
 Alpha virt. eigenvalues --   -0.07122  -0.07095   0.00125   0.00224   0.02296
 Alpha virt. eigenvalues --    0.02653   0.04490   0.04651   0.04787   0.05444
 Alpha virt. eigenvalues --    0.06755   0.07223   0.07575   0.07771   0.08098

 Mulliken charges:
               1
     1  Mg   0.971217
     2  C   -0.073525
     3  C   -0.088735
     4  C   -0.070205
     5  C   -0.087612
     6  N   -0.366522
     7  C    0.021304
     8  C   -0.041231
     9  C   -0.131872
    10  C    0.060124
    11  C    0.036708
    12  C   -0.026332
    13  C   -0.106230
    14  H    0.042072
    15  N   -0.438633
    16  C    0.155115
    17  C   -0.199087
    18  C   -0.050508
    19  C    0.165421
    20  C    0.110777
    21  C    0.017546
    22  O   -0.237363
    23  C   -0.009438
    24  N   -0.356939
    25  C    0.045695
    26  C   -0.079999
    27  C   -0.111602
    28  C    0.037605
    29  C    0.042899
    30  C    0.014738
    31  C   -0.045861
    32  N   -0.434645
    33  C    0.147860
    34  C   -0.205262
    35  C   -0.044237
    36  C    0.163077
    37  C    0.102112
    38  C    0.124290
    39  O   -0.206587
    40  C   -0.072905
    41  C    0.258000
    42  O   -0.210161
    43  O   -0.374963
    44  C    0.128916
    45  H   -0.001827
    46  H   -0.030299
    47  H    0.001566
    48  H    0.040533
    49  H    0.052536
    50  H    0.037920
    51  H    0.045544
    52  H    0.046148
    53  H    0.018164
    54  H    0.023464
    55  H    0.051761
    56  H    0.057245
    57  H    0.065755
    58  H    0.021450
    59  H    0.056273
    60  H    0.066084
    61  H    0.044681
    62  H    0.054446
    63  H    0.033929
    64  H    0.029528
    65  H    0.040568
    66  H    0.046109
    67  H    0.027744
    68  H    0.057236
    69  H    0.024515
    70  H    0.038666
    71  H    0.024908
    72  H    0.035850
    73  H    0.069382
    74  H    0.037719
    75  H    0.057404
    76  H    0.064937
    77  H    0.073177
    78  H    0.055931
    79  H    0.055934
    80  Mg   0.984769
    81  C   -0.043695
    82  C   -0.132061
    83  C   -0.102635
    84  C   -0.063431
    85  N   -0.377781
    86  C    0.011702
    87  C   -0.047401
    88  C   -0.123562
    89  C    0.121229
    90  C    0.014124
    91  C    0.012359
    92  C   -0.135789
    93  H    0.033936
    94  N   -0.504978
    95  C    0.212690
    96  C   -0.172303
    97  C   -0.054803
    98  C    0.150171
    99  C    0.106108
   100  C    0.008220
   101  O   -0.195262
   102  C   -0.027924
   103  N   -0.393499
   104  C    0.110660
   105  C   -0.081152
   106  C   -0.082597
   107  C    0.107939
   108  C    0.029332
   109  C   -0.045215
   110  C   -0.025697
   111  N   -0.385843
   112  C    0.093582
   113  C   -0.223151
   114  C    0.000606
   115  C    0.116506
   116  C    0.079658
   117  C    0.129024
   118  O   -0.222392
   119  C   -0.072360
   120  C    0.292367
   121  O   -0.279945
   122  O   -0.349461
   123  C    0.124675
   124  H   -0.016759
   125  H   -0.040251
   126  H   -0.012807
   127  H    0.028295
   128  H    0.045429
   129  H    0.027679
   130  H    0.042800
   131  H    0.043023
   132  H    0.041045
   133  H    0.048448
   134  H    0.069501
   135  H    0.033024
   136  H    0.061717
   137  H    0.011479
   138  H    0.062612
   139  H    0.058165
   140  H    0.066216
   141  H    0.068536
   142  H    0.046805
   143  H    0.038418
   144  H    0.041334
   145  H    0.031654
   146  H    0.038558
   147  H    0.030393
   148  H    0.021512
   149  H    0.036099
   150  H    0.030086
   151  H    0.032972
   152  H    0.030618
   153  H    0.066806
   154  H    0.060799
   155  H    0.055748
   156  H    0.061754
   157  H    0.085141
   158  H    0.056431
 Sum of Mulliken charges =  -0.00000

 Dipole moment (field-independent basis, Debye):
    X=             -0.9950    Y=              1.2997    Z=             -0.5109  Tot=              1.7147
 Quadrupole moment (field-independent basis, Debye-Ang):
   XX=           -308.6114   YY=           -580.3349   ZZ=           -505.9605
   XY=             13.2674   XZ=             66.1574   YZ=             -4.6816

 Normal termination of Gaussian 16 at Sat Sep 18 15:39:15 2021.
