 Gaussian 16, Revision A.03,
 Gaussian 16:  ES64L-G16RevA.03 25-Dec-2016

 --------------------------------
 #p wB97XD/Def2SVP td=(nstates=5)
 --------------------------------

 --------------------------------
 TDDFT excited states in gaussian
 --------------------------------
 Symbolic Z-matrix:
 Charge =  0 Multiplicity = 1

                         Standard orientation:
 ---------------------------------------------------------------------
 Center     Atomic      Atomic             Coordinates (Angstroms)
 Number     Number       Type             X           Y           Z
 ---------------------------------------------------------------------
      1         12           0       21.792221   -0.149691   -0.250007
      2          6           0       19.071666    1.551473    0.990351
      3          6           0       23.637378    0.545510    2.549903
      4          6           0       24.477754   -2.051702   -1.450705
      5          6           0       19.804599   -1.607003   -2.669058
      6          7           0       21.244257    0.765467    1.637718
      7          6           0       20.137819    1.574849    1.909353
      8          6           0       20.206685    2.161520    3.321567
      9          6           0       21.711445    1.935985    3.616270
     10          6           0       22.255252    0.934524    2.576811
     11          6           0       22.507241    3.252951    3.748165
     12          6           0       19.261054    1.438388    4.300967
     13          6           0       18.461272    2.337336    5.305946
     14          1           0       18.153962    1.732986    6.620194
     15          7           0       23.749505   -0.613054    0.426036
     16          6           0       24.352926   -0.162782    1.549851
     17          6           0       25.760460   -0.426860    1.572608
     18          6           0       26.068735   -1.062955    0.358868
     19          6           0       24.720218   -1.254785   -0.319094
     20          6           0       26.716407    0.073077    2.657622
     21          6           0       27.485838   -1.531680   -0.133439
     22          8           0       28.461075   -1.411068    0.651461
     23          6           0       27.776705   -2.073231   -1.598958
     24          7           0       22.022755   -1.852016   -1.655615
     25          6           0       23.229185   -2.325302   -2.052144
     26          6           0       23.146344   -3.182954   -3.288718
     27          6           0       21.653463   -3.099352   -3.673554
     28          6           0       21.119057   -2.102238   -2.642264
     29          6           0       24.150106   -2.792269   -4.423737
     30          6           0       20.934874   -4.530499   -3.737724
     31          6           0       20.660470   -5.045625   -5.155355
     32          7           0       19.856669   -0.032709   -0.805563
     33          6           0       19.136737   -0.656893   -1.847990
     34          6           0       17.817019   -0.023899   -1.971298
     35          6           0       17.805259    0.887101   -0.924263
     36          6           0       19.001944    0.733283   -0.205118
     37          6           0       16.716238   -0.281414   -2.937014
     38          6           0       16.973453    1.897106   -0.254578
     39          8           0       15.929015    2.471837   -0.603124
     40          6           0       17.785660    2.408044    1.002305
     41          6           0       18.082548    3.898313    0.903006
     42          8           0       18.497020    4.521006   -0.079771
     43          8           0       17.715516    4.377010    2.125554
     44          6           0       17.718565    5.821626    2.284341
     45          1           0       24.237938    0.765565    3.434875
     46          1           0       25.255225   -2.615786   -1.970238
     47          1           0       19.124655   -2.020881   -3.416382
     48          1           0       19.914110    3.211715    3.295220
     49          1           0       21.703855    1.460689    4.597107
     50          1           0       21.979596    4.178806    3.977157
     51          1           0       22.939793    3.430392    2.763641
     52          1           0       23.295422    3.184758    4.497613
     53          1           0       19.754136    0.638810    4.853150
     54          1           0       18.602167    0.845967    3.665681
     55          1           0       17.522295    2.637459    4.840892
     56          1           0       19.066920    3.213902    5.540204
     57          1           0       27.471959    0.657790    2.133371
     58          1           0       27.009641   -0.757376    3.299971
     59          1           0       26.124499    0.788073    3.228977
     60          1           0       27.536843   -3.135691   -1.579704
     61          1           0       28.845066   -1.936620   -1.764790
     62          1           0       27.282073   -1.382287   -2.282164
     63          1           0       23.395819   -4.205195   -3.004026
     64          1           0       21.417878   -2.552148   -4.586035
     65          1           0       23.662671   -2.763732   -5.397871
     66          1           0       24.991164   -3.481642   -4.495520
     67          1           0       24.620105   -1.842944   -4.170200
     68          1           0       19.948044   -4.522204   -3.275091
     69          1           0       21.498834   -5.257400   -3.153305
     70          1           0       20.840547   -6.120000   -5.196637
     71          1           0       21.321997   -4.545707   -5.862533
     72          1           0       19.643690   -4.863817   -5.503012
     73          1           0       17.088082   -0.996205   -3.671144
     74          1           0       16.275288    0.662277   -3.258736
     75          1           0       15.964900   -0.848595   -2.386516
     76          1           0       17.279874    2.186126    1.942381
     77          1           0       18.601421    6.310265    1.870199
     78          1           0       17.597803    6.209762    3.295692
     79          1           0       16.854505    6.248056    1.774130
     80         12           0      -21.351482   -0.646701    0.544207
     81          6           0      -22.180918    2.435806   -0.886121
     82          6           0      -18.261189   -0.333248   -0.514841
     83          6           0      -20.805620   -3.956322    1.287340
     84          6           0      -24.769949   -1.207016    1.226590
     85          7           0      -20.375331    0.923123   -0.467777
     86          6           0      -20.835129    2.138634   -0.924767
     87          6           0      -19.696815    3.029306   -1.405554
     88          6           0      -18.512421    2.012613   -1.473953
     89          6           0      -19.028295    0.852525   -0.695848
     90          6           0      -17.898596    1.666485   -2.813330
     91          6           0      -19.453005    4.307913   -0.541864
     92          6           0      -18.327201    5.223486   -1.034876
     93          1           0      -18.688875    6.691071   -1.210604
     94          7           0      -19.683710   -2.041963    0.336364
     95          6           0      -18.440681   -1.639145   -0.000288
     96          6           0      -17.526056   -2.733364    0.173220
     97          6           0      -18.283011   -3.838443    0.599063
     98          6           0      -19.661409   -3.296548    0.744767
     99          6           0      -16.046016   -2.653222   -0.136019
    100          6           0      -17.841458   -5.220417    0.954224
    101          8           0      -18.592127   -6.204116    1.192322
    102          6           0      -16.357769   -5.535063    1.101329
    103          7           0      -22.596731   -2.308926    1.128089
    104          6           0      -22.134136   -3.568885    1.301741
    105          6           0      -23.299463   -4.490145    1.954901
    106          6           0      -24.382497   -3.420829    2.336461
    107          6           0      -23.896184   -2.213891    1.600274
    108          6           0      -23.759442   -5.566188    0.895240
    109          6           0      -24.312716   -3.076805    3.869201
    110          6           0      -22.978054   -2.686978    4.485212
    111          7           0      -23.190883    0.425781    0.297366
    112          6           0      -24.457369    0.036639    0.637451
    113          6           0      -25.309636    1.076352    0.288291
    114          6           0      -24.530197    2.084310   -0.348898
    115          6           0      -23.235108    1.638054   -0.320393
    116          6           0      -26.791389    1.151318    0.402826
    117          6           0      -24.507727    3.394961   -1.037139
    118          8           0      -25.380757    4.185829   -1.375808
    119          6           0      -22.938509    3.712687   -1.321965
    120          6           0      -22.749385    4.202838   -2.713282
    121          8           0      -23.406747    3.799277   -3.718246
    122          8           0      -21.912074    5.229347   -2.650180
    123          6           0      -21.966689    6.108782   -3.802258
    124          1           0      -17.197292   -0.235386   -0.741208
    125          1           0      -20.641337   -5.000929    1.562284
    126          1           0      -25.794528   -1.360251    1.569057
    127          1           0      -20.053339    3.419435   -2.359048
    128          1           0      -17.642984    2.333813   -0.899330
    129          1           0      -18.074642    2.365547   -3.630877
    130          1           0      -18.221455    0.666689   -3.104862
    131          1           0      -16.849369    1.434585   -2.629375
    132          1           0      -19.274628    4.020753    0.494708
    133          1           0      -20.371751    4.892560   -0.508277
    134          1           0      -18.139656    5.083363   -2.099290
    135          1           0      -17.420353    5.090187   -0.444257
    136          1           0      -15.729335   -1.732226   -0.625345
    137          1           0      -15.680751   -3.348599   -0.891359
    138          1           0      -15.411637   -2.778664    0.741976
    139          1           0      -15.906761   -5.484066    0.110713
    140          1           0      -16.183136   -6.590640    1.308327
    141          1           0      -15.866306   -4.942869    1.874103
    142          1           0      -22.896418   -5.039052    2.806007
    143          1           0      -25.312779   -3.803896    1.917065
    144          1           0      -23.079100   -5.662007    0.048858
    145          1           0      -24.730332   -5.361241    0.443870
    146          1           0      -23.790210   -6.580795    1.289783
    147          1           0      -24.675943   -4.023313    4.269693
    148          1           0      -25.005515   -2.301004    4.193781
    149          1           0      -22.166957   -2.900251    3.788651
    150          1           0      -22.770265   -3.078098    5.480586
    151          1           0      -23.113396   -1.622046    4.674327
    152          1           0      -27.174765    0.960371    1.405469
    153          1           0      -27.162552    0.351805   -0.237706
    154          1           0      -27.192964    2.093742    0.031850
    155          1           0      -22.717592    4.535566   -0.642627
    156          1           0      -21.947285    7.150058   -3.478166
    157          1           0      -22.856038    6.031740   -4.427280
    158          1           0      -21.066517    5.897627   -4.380419
 ---------------------------------------------------------------------

 SCF Done:  E(RwB97XD) =  -4070.63852869     A.U. after   19 cycles

 Excitation energies and oscillator strengths:

 Excited State   1:      Singlet-A      1.6651 eV  744.62 nm  f=0.5064  <S**2>=0.000
     309 -> 315       -0.17397
     311 -> 313        0.15565
     312 -> 314        0.66606
     309 <- 315       -0.11039
 This state for optimization and/or second-order correction.
 Total Energy, E(TD-HF/TD-DFT) =  -4070.57733893
 Copying the excited state density for this state as the 1-particle RhoCI density.

 Excited State   2:      Singlet-A      1.6683 eV  743.19 nm  f=0.2491  <S**2>=0.000
     310 -> 316       -0.16683
     311 -> 313        0.66887
     312 -> 314       -0.15489
     310 <- 316       -0.10871

 Excited State   3:      Singlet-A      2.0912 eV  592.89 nm  f=0.1651  <S**2>=0.000
     310 -> 313        0.66093
     311 -> 316        0.23076

 Excited State   4:      Singlet-A      2.1966 eV  564.43 nm  f=0.0912  <S**2>=0.000
     309 -> 314        0.62329
     312 -> 315        0.31702

 Excited State   5:      Singlet-A      3.0724 eV  403.54 nm  f=0.0091  <S**2>=0.000
     308 -> 313        0.67869

 The electronic state is 1-A.
 Alpha  occ. eigenvalues --  -46.95706 -46.95570 -19.31839 -19.31624 -19.25255
 Alpha  occ. eigenvalues --  -19.24832 -19.24213 -19.24007 -19.23518 -19.23447
 Alpha  occ. eigenvalues --  -14.47508 -14.47072 -14.46804 -14.46413 -14.44915
 Alpha  occ. eigenvalues --  -14.44354 -14.43716 -14.42577 -10.43854 -10.43057
 Alpha  occ. eigenvalues --  -10.40803 -10.39794 -10.38816 -10.38801 -10.36370
 Alpha  occ. eigenvalues --  -10.36193 -10.35831 -10.35787 -10.35724 -10.35283
 Alpha  occ. eigenvalues --  -10.35160 -10.35157 -10.34996 -10.34869 -10.34735
 Alpha  occ. eigenvalues --  -10.34569 -10.34474 -10.34046 -10.33993 -10.33683
 Alpha  occ. eigenvalues --  -10.33204 -10.32815 -10.32753 -10.32599 -10.32582
 Alpha  occ. eigenvalues --  -10.32445 -10.32376 -10.32346 -10.32341 -10.32341
 Alpha  occ. eigenvalues --  -10.32243 -10.32181 -10.32128 -10.32106 -10.32045
 Alpha  occ. eigenvalues --  -10.32024 -10.31880 -10.31832 -10.31815 -10.31809
 Alpha  occ. eigenvalues --  -10.31799 -10.31790 -10.31786 -10.31755 -10.31445
 Alpha  occ. eigenvalues --  -10.31435 -10.31043 -10.31013 -10.30877 -10.30673
 Alpha  occ. eigenvalues --  -10.30558 -10.30489 -10.30436 -10.30408 -10.30368
 Alpha  occ. eigenvalues --  -10.30304 -10.30208 -10.30032 -10.29981 -10.29841
 Alpha  occ. eigenvalues --  -10.29601 -10.29524 -10.29237 -10.28692 -10.28612
 Alpha  occ. eigenvalues --  -10.28250  -3.21553  -3.21547  -1.95148  -1.95101
 Alpha  occ. eigenvalues --   -1.94656  -1.94642  -1.94544  -1.94532  -1.20271
 Alpha  occ. eigenvalues --   -1.19064  -1.10978  -1.10947  -1.10634  -1.10590
 Alpha  occ. eigenvalues --   -1.09996  -1.08083  -1.07495  -1.06717  -1.06374
 Alpha  occ. eigenvalues --   -1.06071  -1.05635  -1.05311  -1.04453  -1.04216
 Alpha  occ. eigenvalues --   -0.93776  -0.93404  -0.91476  -0.91185  -0.90859
 Alpha  occ. eigenvalues --   -0.90759  -0.90611  -0.90338  -0.89960  -0.89232
 Alpha  occ. eigenvalues --   -0.89048  -0.89002  -0.88434  -0.87578  -0.86702
 Alpha  occ. eigenvalues --   -0.86281  -0.85814  -0.85658  -0.84759  -0.84452
 Alpha  occ. eigenvalues --   -0.83802  -0.83615  -0.83288  -0.83130  -0.82623
 Alpha  occ. eigenvalues --   -0.82181  -0.80867  -0.79910  -0.79487  -0.79477
 Alpha  occ. eigenvalues --   -0.79245  -0.78737  -0.78046  -0.77854  -0.77287
 Alpha  occ. eigenvalues --   -0.77173  -0.74738  -0.74706  -0.73762  -0.73702
 Alpha  occ. eigenvalues --   -0.71871  -0.71165  -0.71079  -0.70960  -0.70345
 Alpha  occ. eigenvalues --   -0.69879  -0.69675  -0.69327  -0.68090  -0.67448
 Alpha  occ. eigenvalues --   -0.67188  -0.67120  -0.67020  -0.66664  -0.66614
 Alpha  occ. eigenvalues --   -0.66499  -0.64710  -0.64689  -0.63064  -0.61955
 Alpha  occ. eigenvalues --   -0.61730  -0.61654  -0.61212  -0.60987  -0.60645
 Alpha  occ. eigenvalues --   -0.60525  -0.59742  -0.59501  -0.59264  -0.59231
 Alpha  occ. eigenvalues --   -0.58211  -0.58036  -0.57945  -0.57777  -0.57710
 Alpha  occ. eigenvalues --   -0.57369  -0.57283  -0.57275  -0.57007  -0.56326
 Alpha  occ. eigenvalues --   -0.55758  -0.55368  -0.55232  -0.55153  -0.55089
 Alpha  occ. eigenvalues --   -0.54888  -0.54808  -0.54581  -0.54457  -0.53955
 Alpha  occ. eigenvalues --   -0.53634  -0.53574  -0.53504  -0.53334  -0.53212
 Alpha  occ. eigenvalues --   -0.53085  -0.52901  -0.52829  -0.52507  -0.52408
 Alpha  occ. eigenvalues --   -0.52024  -0.51906  -0.51517  -0.51423  -0.51288
 Alpha  occ. eigenvalues --   -0.51067  -0.51061  -0.50807  -0.50483  -0.50472
 Alpha  occ. eigenvalues --   -0.50438  -0.50287  -0.50248  -0.50132  -0.50008
 Alpha  occ. eigenvalues --   -0.49795  -0.49732  -0.49439  -0.49205  -0.49163
 Alpha  occ. eigenvalues --   -0.49124  -0.48863  -0.48679  -0.48557  -0.48435
 Alpha  occ. eigenvalues --   -0.48337  -0.48275  -0.48020  -0.47867  -0.47755
 Alpha  occ. eigenvalues --   -0.47498  -0.47350  -0.47196  -0.47072  -0.46777
 Alpha  occ. eigenvalues --   -0.46609  -0.46396  -0.46342  -0.46194  -0.46115
 Alpha  occ. eigenvalues --   -0.45786  -0.45748  -0.45702  -0.45629  -0.45500
 Alpha  occ. eigenvalues --   -0.45344  -0.45249  -0.45138  -0.44974  -0.44815
 Alpha  occ. eigenvalues --   -0.44556  -0.44552  -0.44417  -0.44306  -0.44144
 Alpha  occ. eigenvalues --   -0.43984  -0.43937  -0.43800  -0.43537  -0.43366
 Alpha  occ. eigenvalues --   -0.43134  -0.43121  -0.42761  -0.42757  -0.42547
 Alpha  occ. eigenvalues --   -0.42374  -0.41654  -0.41506  -0.41315  -0.41126
 Alpha  occ. eigenvalues --   -0.40731  -0.40602  -0.40336  -0.40116  -0.39839
 Alpha  occ. eigenvalues --   -0.39465  -0.39360  -0.38962  -0.38857  -0.38556
 Alpha  occ. eigenvalues --   -0.38431  -0.38325  -0.36894  -0.36824  -0.36114
 Alpha  occ. eigenvalues --   -0.35938  -0.35323  -0.35033  -0.34152  -0.33789
 Alpha  occ. eigenvalues --   -0.33349  -0.33171  -0.32953  -0.32737  -0.32453
 Alpha  occ. eigenvalues --   -0.32065  -0.31988  -0.30619  -0.26179  -0.25979
 Alpha  occ. eigenvalues --   -0.23582  -0.22948
 Alpha virt. eigenvalues --   -0.07711  -0.06960  -0.00167   0.00654   0.01994
 Alpha virt. eigenvalues --    0.02196   0.04017   0.04544   0.04771   0.04953
 Alpha virt. eigenvalues --    0.06631   0.07106   0.07157   0.07368   0.08384

 Mulliken charges:
               1
     1  Mg   0.973265
     2  C   -0.080668
     3  C   -0.109954
     4  C   -0.086291
     5  C   -0.082972
     6  N   -0.403923
     7  C   -0.008495
     8  C   -0.052747
     9  C   -0.091998
    10  C    0.125805
    11  C    0.013990
    12  C    0.023116
    13  C   -0.127690
    14  H    0.043580
    15  N   -0.430197
    16  C    0.152950
    17  C   -0.190501
    18  C   -0.078493
    19  C    0.194676
    20  C    0.116205
    21  C    0.044379
    22  O   -0.256170
    23  C   -0.009172
    24  N   -0.325006
    25  C    0.023134
    26  C   -0.076443
    27  C   -0.052161
    28  C    0.038339
    29  C    0.010486
    30  C   -0.007616
    31  C   -0.058084
    32  N   -0.440863
    33  C    0.101327
    34  C   -0.206433
    35  C   -0.044073
    36  C    0.153285
    37  C    0.107369
    38  C    0.155517
    39  O   -0.229813
    40  C   -0.059860
    41  C    0.289120
    42  O   -0.247445
    43  O   -0.356443
    44  C    0.133488
    45  H    0.007819
    46  H   -0.019714
    47  H   -0.011126
    48  H    0.025010
    49  H    0.032703
    50  H    0.036825
    51  H    0.034850
    52  H    0.038433
    53  H    0.030666
    54  H    0.030123
    55  H    0.066413
    56  H    0.049623
    57  H    0.065687
    58  H    0.072192
    59  H    0.012164
    60  H    0.080688
    61  H    0.058328
    62  H    0.060667
    63  H    0.046754
    64  H    0.034045
    65  H    0.046890
    66  H    0.033594
    67  H    0.037743
    68  H    0.032952
    69  H    0.028796
    70  H    0.039118
    71  H    0.028638
    72  H    0.041111
    73  H    0.021210
    74  H    0.075341
    75  H    0.050433
    76  H    0.064409
    77  H    0.055284
    78  H    0.052190
    79  H    0.053622
    80  Mg   0.940800
    81  C    0.025530
    82  C   -0.076075
    83  C   -0.054467
    84  C   -0.071333
    85  N   -0.396589
    86  C   -0.020145
    87  C   -0.029387
    88  C   -0.089369
    89  C    0.104730
    90  C    0.044304
    91  C    0.022476
    92  C   -0.128900
    93  H    0.030713
    94  N   -0.379631
    95  C    0.094851
    96  C   -0.112078
    97  C   -0.048713
    98  C    0.101505
    99  C    0.053014
   100  C    0.041220
   101  O   -0.259356
   102  C   -0.009058
   103  N   -0.351652
   104  C    0.069195
   105  C   -0.145274
   106  C   -0.029780
   107  C    0.039034
   108  C    0.014283
   109  C   -0.014304
   110  C   -0.051438
   111  N   -0.418215
   112  C    0.151636
   113  C   -0.204307
   114  C   -0.041197
   115  C    0.088532
   116  C    0.077113
   117  C    0.161944
   118  O   -0.201905
   119  C   -0.129110
   120  C    0.263271
   121  O   -0.280598
   122  O   -0.330236
   123  C    0.127178
   124  H   -0.027622
   125  H    0.024833
   126  H   -0.001138
   127  H    0.031477
   128  H    0.031573
   129  H    0.056340
   130  H    0.033585
   131  H    0.025730
   132  H    0.024428
   133  H    0.044902
   134  H    0.046528
   135  H    0.062221
   136  H    0.028610
   137  H    0.048759
   138  H    0.055144
   139  H    0.043798
   140  H    0.044649
   141  H    0.064223
   142  H    0.043762
   143  H    0.030728
   144  H    0.043545
   145  H    0.032440
   146  H    0.040094
   147  H    0.029569
   148  H    0.030945
   149  H    0.055299
   150  H    0.043816
   151  H    0.033836
   152  H    0.035227
   153  H    0.042843
   154  H    0.057948
   155  H    0.082035
   156  H    0.053496
   157  H    0.078569
   158  H    0.049595
 Sum of Mulliken charges =  -0.00000

 Dipole moment (field-independent basis, Debye):
    X=              8.4110    Y=             -1.5777    Z=              2.2755  Tot=              8.8551
 Quadrupole moment (field-independent basis, Debye-Ang):
   XX=           -716.2438   YY=           -504.1785   ZZ=           -484.5998
   XY=             -1.4538   XZ=            -95.9331   YZ=             29.3003

 Normal termination of Gaussian 16 at Mon Sep 20 16:22:45 2021.
