 Gaussian 16, Revision A.03,
 Gaussian 16:  ES64L-G16RevA.03 25-Dec-2016

 --------------------------------
 #p wB97XD/Def2SVP td=(nstates=5)
 --------------------------------

 --------------------------------
 TDDFT excited states in gaussian
 --------------------------------
 Symbolic Z-matrix:
 Charge =  0 Multiplicity = 1

                         Standard orientation:
 ---------------------------------------------------------------------
 Center     Atomic      Atomic             Coordinates (Angstroms)
 Number     Number       Type             X           Y           Z
 ---------------------------------------------------------------------
      1         12           0      -21.187679   -0.485090   -0.043209
      2          6           0      -19.971858    2.740996   -0.748274
      3          6           0      -20.676837    0.205642    3.326141
      4          6           0      -22.030078   -3.642582    0.546859
      5          6           0      -20.829545   -1.316906   -3.517444
      6          7           0      -20.401417    1.237589    1.132805
      7          6           0      -20.084092    2.497849    0.606950
      8          6           0      -20.106194    3.523241    1.725368
      9          6           0      -20.051159    2.689578    3.037117
     10          6           0      -20.404898    1.283337    2.465981
     11          6           0      -18.733462    2.789045    3.868093
     12          6           0      -21.297684    4.540353    1.657332
     13          6           0      -20.959765    5.980381    2.246275
     14          1           0      -19.569310    6.197930    2.849032
     15          7           0      -21.445517   -1.488183    1.649460
     16          6           0      -21.262452   -1.019251    2.938933
     17          6           0      -21.677105   -2.000131    3.900007
     18          6           0      -21.955688   -3.176982    3.133847
     19          6           0      -21.851672   -2.781057    1.740709
     20          6           0      -21.611559   -1.780965    5.442367
     21          6           0      -22.294566   -4.549396    3.616540
     22          8           0      -22.360031   -5.523543    2.829312
     23          6           0      -22.530007   -5.048946    5.072409
     24          7           0      -21.143113   -2.310693   -1.246207
     25          6           0      -21.644830   -3.468664   -0.776880
     26          6           0      -21.919953   -4.452216   -1.942039
     27          6           0      -21.520462   -3.731703   -3.234724
     28          6           0      -21.175744   -2.305522   -2.616439
     29          6           0      -21.331169   -5.805205   -1.681820
     30          6           0      -22.570726   -3.678661   -4.364976
     31          6           0      -23.909463   -2.994682   -3.993308
     32          7           0      -20.477716    0.451026   -1.829594
     33          6           0      -20.556073    0.040901   -3.117010
     34          6           0      -20.272122    1.210415   -3.947255
     35          6           0      -20.053576    2.335440   -3.103748
     36          6           0      -20.140554    1.811946   -1.790814
     37          6           0      -20.343027    1.258859   -5.471238
     38          6           0      -19.756269    3.731647   -3.063105
     39          8           0      -19.671534    4.610493   -3.916813
     40          6           0      -19.620406    4.063381   -1.437398
     41          6           0      -18.276828    4.716402   -1.172815
     42          8           0      -17.236026    4.096749   -1.072963
     43          8           0      -18.421966    6.069135   -0.964207
     44          6           0      -17.249046    6.930366   -1.074171
     45          1           0      -20.598870    0.573315    4.351237
     46          1           0      -22.398827   -4.638602    0.799557
     47          1           0      -20.874922   -1.609201   -4.568332
     48          1           0      -19.207893    4.137750    1.667712
     49          1           0      -20.879093    3.026118    3.660443
     50          1           0      -18.429160    1.745807    3.945739
     51          1           0      -18.944457    3.119549    4.885835
     52          1           0      -17.889702    3.358566    3.478529
     53          1           0      -22.135497    4.213744    2.272585
     54          1           0      -21.647805    4.595457    0.627366
     55          1           0      -21.607639    6.136727    3.108920
     56          1           0      -21.142026    6.704020    1.452148
     57          1           0      -21.294014   -2.721786    5.893602
     58          1           0      -22.582119   -1.535938    5.872412
     59          1           0      -20.987875   -1.000700    5.878346
     60          1           0      -23.313152   -4.465253    5.557061
     61          1           0      -21.615212   -5.054623    5.664985
     62          1           0      -23.071394   -5.991759    5.140998
     63          1           0      -22.980397   -4.691246   -1.872929
     64          1           0      -20.541327   -4.140772   -3.486324
     65          1           0      -22.073706   -6.534842   -1.358219
     66          1           0      -20.516524   -5.723293   -0.962095
     67          1           0      -20.831278   -6.248395   -2.543814
     68          1           0      -22.773442   -4.731490   -4.562393
     69          1           0      -22.143468   -3.213137   -5.253638
     70          1           0      -24.003438   -2.158391   -4.685753
     71          1           0      -23.815076   -2.661594   -2.959712
     72          1           0      -24.769830   -3.664064   -3.987140
     73          1           0      -20.836139    2.158008   -5.839565
     74          1           0      -20.980055    0.468052   -5.866330
     75          1           0      -19.337419    1.098762   -5.861077
     76          1           0      -20.388545    4.815424   -1.255334
     77          1           0      -16.423098    6.387641   -0.613679
     78          1           0      -17.335547    7.889384   -0.563268
     79          1           0      -17.141060    7.138297   -2.138721
     80         12           0       20.240887   -0.853947   -0.252945
     81          6           0       21.952926    2.239827   -0.302295
     82          6           0       18.057471    0.500828    2.011200
     83          6           0       19.053766   -3.899189    0.280976
     84          6           0       22.829257   -2.205203   -2.183206
     85          7           0       20.131963    1.102791    0.863953
     86          6           0       20.889993    2.239795    0.571798
     87          6           0       20.244004    3.486358    1.225267
     88          6           0       19.000014    2.892518    1.981761
     89          6           0       18.996868    1.389184    1.588742
     90          6           0       18.842101    3.255735    3.447927
     91          6           0       19.877324    4.642965    0.282370
     92          6           0       20.495154    6.008594    0.690327
     93          1           0       19.506863    7.136533    0.887840
     94          7           0       18.689229   -1.559186    0.929938
     95          6           0       17.915635   -0.880618    1.825214
     96          6           0       16.878625   -1.777546    2.276778
     97          6           0       17.250390   -3.134181    1.884376
     98          6           0       18.388858   -2.867099    1.018816
     99          6           0       15.721953   -1.318550    3.307293
    100          6           0       16.859693   -4.447477    2.411474
    101          8           0       17.212669   -5.523983    2.021863
    102          6           0       15.904613   -4.430237    3.601241
    103          7           0       21.008321   -2.820262   -0.717908
    104          6           0       20.277940   -3.914974   -0.429208
    105          6           0       20.818567   -5.138160   -1.173426
    106          6           0       21.769380   -4.513846   -2.207311
    107          6           0       21.868478   -3.083561   -1.725821
    108          6           0       21.572943   -6.137970   -0.182000
    109          6           0       21.058130   -4.567972   -3.653936
    110          6           0       19.878372   -3.579544   -3.862277
    111          7           0       22.000532   -0.180688   -1.217517
    112          6           0       22.912104   -0.835908   -1.954353
    113          6           0       23.914723    0.107562   -2.370461
    114          6           0       23.553014    1.311291   -1.795281
    115          6           0       22.401933    1.098769   -1.031713
    116          6           0       25.144904   -0.118617   -3.228528
    117          6           0       24.031917    2.690721   -1.672306
    118          8           0       24.990076    3.339855   -1.984593
    119          6           0       22.974946    3.373749   -0.764739
    120          6           0       23.729236    3.891946    0.403543
    121          8           0       24.428701    3.171476    1.070346
    122          8           0       23.611723    5.261986    0.574146
    123          6           0       24.571067    5.898254    1.537767
    124          1           0       17.255673    0.997517    2.561764
    125          1           0       18.632111   -4.905827    0.327038
    126          1           0       23.552557   -2.482963   -2.952752
    127          1           0       20.908955    3.852981    2.007546
    128          1           0       18.105536    3.364593    1.574898
    129          1           0       19.770616    3.649925    3.858276
    130          1           0       18.491460    2.431466    4.069513
    131          1           0       18.139893    4.088669    3.472230
    132          1           0       18.823838    4.901064    0.174291
    133          1           0       20.191213    4.422788   -0.737720
    134          1           0       21.317865    6.287434    0.032005
    135          1           0       20.945559    5.882018    1.673991
    136          1           0       14.767301   -1.662877    2.909731
    137          1           0       15.593882   -0.245142    3.441707
    138          1           0       15.799946   -1.621891    4.351298
    139          1           0       15.012350   -3.950965    3.197739
    140          1           0       16.405898   -3.816099    4.348671
    141          1           0       15.603130   -5.415426    3.958414
    142          1           0       20.057185   -5.675830   -1.739499
    143          1           0       22.797640   -4.865762   -2.293508
    144          1           0       21.468646   -7.137903   -0.603961
    145          1           0       21.224179   -6.213687    0.848474
    146          1           0       22.615221   -5.823895   -0.235613
    147          1           0       20.714835   -5.567945   -3.918359
    148          1           0       21.745708   -4.190399   -4.410881
    149          1           0       19.292634   -3.733720   -4.767882
    150          1           0       20.299920   -2.575937   -3.920821
    151          1           0       19.240314   -3.640706   -2.980060
    152          1           0       24.929436   -0.436750   -4.248308
    153          1           0       25.667030   -0.926494   -2.716534
    154          1           0       25.827730    0.730915   -3.217899
    155          1           0       22.628824    4.208983   -1.373315
    156          1           0       23.871155    6.552442    2.057631
    157          1           0       25.336970    6.497205    1.045417
    158          1           0       25.129306    5.284417    2.244202
 ---------------------------------------------------------------------

 SCF Done:  E(RwB97XD) =  -4070.62699043     A.U. after   20 cycles

 Excitation energies and oscillator strengths:

 Excited State   1:      Singlet-A      1.6020 eV  773.96 nm  f=0.3984  <S**2>=0.000
     310 -> 316        0.17291
     312 -> 313        0.68564
     310 <- 316        0.11419
 This state for optimization and/or second-order correction.
 Total Energy, E(TD-HF/TD-DFT) =  -4070.56811971
 Copying the excited state density for this state as the 1-particle RhoCI density.

 Excited State   2:      Singlet-A      1.6442 eV  754.08 nm  f=0.4047  <S**2>=0.000
     309 -> 315       -0.18144
     311 -> 314        0.68504
     309 <- 315       -0.11693

 Excited State   3:      Singlet-A      2.1358 eV  580.51 nm  f=0.0760  <S**2>=0.000
     309 -> 314        0.63734
     310 -> 313        0.14963
     311 -> 315        0.24546

 Excited State   4:      Singlet-A      2.1365 eV  580.32 nm  f=0.2085  <S**2>=0.000
     309 -> 314       -0.14950
     310 -> 313        0.63750
     312 -> 316       -0.24181

 Excited State   5:      Singlet-A      3.2945 eV  376.34 nm  f=0.0030  <S**2>=0.000
     306 -> 313        0.52488
     306 -> 316       -0.13527
     306 -> 317        0.34591
     306 -> 319       -0.20424

 The electronic state is 1-A.
 Alpha  occ. eigenvalues --  -46.95864 -46.95274 -19.30357 -19.29506 -19.24641
 Alpha  occ. eigenvalues --  -19.24422 -19.24206 -19.24198 -19.23442 -19.23391
 Alpha  occ. eigenvalues --  -14.47199 -14.46708 -14.46503 -14.46007 -14.44920
 Alpha  occ. eigenvalues --  -14.44345 -14.43974 -14.43804 -10.42980 -10.42625
 Alpha  occ. eigenvalues --  -10.39627 -10.39508 -10.39167 -10.38291 -10.35664
 Alpha  occ. eigenvalues --  -10.35564 -10.35552 -10.35150 -10.34979 -10.34818
 Alpha  occ. eigenvalues --  -10.34788 -10.34780 -10.34756 -10.34745 -10.34570
 Alpha  occ. eigenvalues --  -10.34362 -10.34245 -10.33962 -10.33854 -10.33797
 Alpha  occ. eigenvalues --  -10.33753 -10.33352 -10.33269 -10.33177 -10.33038
 Alpha  occ. eigenvalues --  -10.32807 -10.32345 -10.32326 -10.32248 -10.32222
 Alpha  occ. eigenvalues --  -10.32127 -10.32079 -10.32058 -10.32041 -10.32013
 Alpha  occ. eigenvalues --  -10.31924 -10.31897 -10.31840 -10.31646 -10.31592
 Alpha  occ. eigenvalues --  -10.31528 -10.31493 -10.31443 -10.31343 -10.31062
 Alpha  occ. eigenvalues --  -10.30979 -10.30913 -10.30665 -10.30661 -10.30600
 Alpha  occ. eigenvalues --  -10.30556 -10.30458 -10.30339 -10.30225 -10.30147
 Alpha  occ. eigenvalues --  -10.30141 -10.30062 -10.29809 -10.29792 -10.29456
 Alpha  occ. eigenvalues --  -10.29444 -10.29437 -10.29336 -10.29087 -10.28907
 Alpha  occ. eigenvalues --  -10.28761  -3.21728  -3.21287  -1.95296  -1.94861
 Alpha  occ. eigenvalues --   -1.94847  -1.94688  -1.94409  -1.94267  -1.17833
 Alpha  occ. eigenvalues --   -1.17634  -1.13909  -1.13258  -1.11698  -1.10657
 Alpha  occ. eigenvalues --   -1.09812  -1.09665  -1.07192  -1.06377  -1.06317
 Alpha  occ. eigenvalues --   -1.05852  -1.05500  -1.05252  -1.04147  -1.03991
 Alpha  occ. eigenvalues --   -0.94331  -0.94167  -0.91061  -0.90757  -0.90659
 Alpha  occ. eigenvalues --   -0.90432  -0.90137  -0.90131  -0.89658  -0.89298
 Alpha  occ. eigenvalues --   -0.88802  -0.88496  -0.88256  -0.87267  -0.86323
 Alpha  occ. eigenvalues --   -0.85721  -0.85378  -0.85244  -0.84378  -0.84108
 Alpha  occ. eigenvalues --   -0.83133  -0.83012  -0.82805  -0.82596  -0.82097
 Alpha  occ. eigenvalues --   -0.81982  -0.80690  -0.80309  -0.79338  -0.78873
 Alpha  occ. eigenvalues --   -0.78696  -0.78690  -0.78063  -0.77783  -0.77140
 Alpha  occ. eigenvalues --   -0.76956  -0.75086  -0.74529  -0.73731  -0.73060
 Alpha  occ. eigenvalues --   -0.71843  -0.71270  -0.71188  -0.71137  -0.70345
 Alpha  occ. eigenvalues --   -0.70044  -0.69540  -0.69223  -0.67405  -0.67272
 Alpha  occ. eigenvalues --   -0.67229  -0.67126  -0.66876  -0.66438  -0.66163
 Alpha  occ. eigenvalues --   -0.66077  -0.64272  -0.63652  -0.62954  -0.62401
 Alpha  occ. eigenvalues --   -0.61678  -0.61469  -0.61271  -0.60814  -0.60716
 Alpha  occ. eigenvalues --   -0.60085  -0.60065  -0.59523  -0.59412  -0.58937
 Alpha  occ. eigenvalues --   -0.57966  -0.57914  -0.57691  -0.57325  -0.57147
 Alpha  occ. eigenvalues --   -0.56806  -0.56756  -0.56575  -0.56098  -0.55873
 Alpha  occ. eigenvalues --   -0.55418  -0.55347  -0.55009  -0.54914  -0.54699
 Alpha  occ. eigenvalues --   -0.54587  -0.54509  -0.54315  -0.54293  -0.54049
 Alpha  occ. eigenvalues --   -0.53934  -0.53815  -0.53454  -0.53290  -0.53199
 Alpha  occ. eigenvalues --   -0.52974  -0.52666  -0.52626  -0.52013  -0.51983
 Alpha  occ. eigenvalues --   -0.51727  -0.51512  -0.51421  -0.51280  -0.51218
 Alpha  occ. eigenvalues --   -0.51181  -0.51132  -0.50958  -0.50951  -0.50687
 Alpha  occ. eigenvalues --   -0.50573  -0.50325  -0.50178  -0.50153  -0.49855
 Alpha  occ. eigenvalues --   -0.49844  -0.49689  -0.49515  -0.49391  -0.49371
 Alpha  occ. eigenvalues --   -0.48943  -0.48629  -0.48352  -0.48334  -0.48274
 Alpha  occ. eigenvalues --   -0.48050  -0.48028  -0.47805  -0.47800  -0.47474
 Alpha  occ. eigenvalues --   -0.47405  -0.47219  -0.47159  -0.47028  -0.46690
 Alpha  occ. eigenvalues --   -0.46460  -0.46431  -0.46166  -0.46003  -0.45978
 Alpha  occ. eigenvalues --   -0.45918  -0.45580  -0.45405  -0.45342  -0.45269
 Alpha  occ. eigenvalues --   -0.45132  -0.44981  -0.44978  -0.44826  -0.44538
 Alpha  occ. eigenvalues --   -0.44376  -0.44317  -0.44281  -0.44012  -0.43926
 Alpha  occ. eigenvalues --   -0.43883  -0.43809  -0.43585  -0.43525  -0.43353
 Alpha  occ. eigenvalues --   -0.43282  -0.42779  -0.42667  -0.42544  -0.42213
 Alpha  occ. eigenvalues --   -0.42006  -0.41628  -0.41532  -0.41170  -0.40966
 Alpha  occ. eigenvalues --   -0.40582  -0.40213  -0.39998  -0.39791  -0.39770
 Alpha  occ. eigenvalues --   -0.39606  -0.39133  -0.38918  -0.38339  -0.38283
 Alpha  occ. eigenvalues --   -0.38198  -0.37995  -0.36386  -0.36052  -0.36024
 Alpha  occ. eigenvalues --   -0.35721  -0.35630  -0.35270  -0.33812  -0.33698
 Alpha  occ. eigenvalues --   -0.33230  -0.32983  -0.32784  -0.32541  -0.32357
 Alpha  occ. eigenvalues --   -0.32262  -0.32200  -0.31663  -0.26087  -0.26055
 Alpha  occ. eigenvalues --   -0.23377  -0.23207
 Alpha virt. eigenvalues --   -0.07624  -0.07517   0.00499   0.00501   0.01989
 Alpha virt. eigenvalues --    0.02612   0.04063   0.04596   0.04657   0.04819
 Alpha virt. eigenvalues --    0.07351   0.07572   0.07751   0.07929   0.08583

 Mulliken charges:
               1
     1  Mg   0.971926
     2  C    0.006803
     3  C   -0.061600
     4  C   -0.062864
     5  C   -0.062970
     6  N   -0.337641
     7  C   -0.003202
     8  C   -0.035338
     9  C   -0.097939
    10  C    0.010327
    11  C    0.027414
    12  C   -0.006665
    13  C   -0.129134
    14  H    0.034064
    15  N   -0.494945
    16  C    0.189689
    17  C   -0.136832
    18  C   -0.054455
    19  C    0.137642
    20  C    0.058913
    21  C    0.036238
    22  O   -0.271616
    23  C   -0.007004
    24  N   -0.340840
    25  C    0.077551
    26  C   -0.129579
    27  C   -0.020158
    28  C    0.012797
    29  C    0.021345
    30  C   -0.019550
    31  C   -0.045887
    32  N   -0.428981
    33  C    0.150632
    34  C   -0.205288
    35  C    0.004356
    36  C    0.122889
    37  C    0.072248
    38  C    0.116771
    39  O   -0.207636
    40  C   -0.128285
    41  C    0.274719
    42  O   -0.237570
    43  O   -0.379788
    44  C    0.133611
    45  H   -0.003000
    46  H    0.023071
    47  H   -0.004395
    48  H    0.030743
    49  H    0.033150
    50  H    0.030639
    51  H    0.034883
    52  H    0.058444
    53  H    0.029814
    54  H    0.037213
    55  H    0.054534
    56  H    0.069160
    57  H    0.037198
    58  H    0.051178
    59  H    0.045669
    60  H    0.030976
    61  H    0.073513
    62  H    0.048628
    63  H    0.037227
    64  H    0.038762
    65  H    0.043503
    66  H    0.041849
    67  H    0.022299
    68  H    0.033293
    69  H    0.039401
    70  H    0.046932
    71  H    0.038530
    72  H    0.043031
    73  H    0.057629
    74  H    0.018540
    75  H    0.059381
    76  H    0.065548
    77  H    0.060207
    78  H    0.053708
    79  H    0.064575
    80  Mg   0.945971
    81  C   -0.040798
    82  C   -0.093276
    83  C   -0.065190
    84  C   -0.068551
    85  N   -0.371815
    86  C    0.009115
    87  C   -0.037817
    88  C   -0.103040
    89  C    0.075281
    90  C    0.021438
    91  C    0.015476
    92  C   -0.142106
    93  H    0.025764
    94  N   -0.445221
    95  C    0.174446
    96  C   -0.128531
    97  C   -0.081808
    98  C    0.149693
    99  C    0.018485
   100  C    0.023568
   101  O   -0.210419
   102  C   -0.006316
   103  N   -0.331219
   104  C    0.048396
   105  C   -0.089170
   106  C   -0.066757
   107  C    0.056021
   108  C    0.021699
   109  C   -0.041439
   110  C   -0.066536
   111  N   -0.411830
   112  C    0.080636
   113  C   -0.176001
   114  C   -0.085152
   115  C    0.178158
   116  C    0.073496
   117  C    0.147804
   118  O   -0.174291
   119  C   -0.066658
   120  C    0.252337
   121  O   -0.231250
   122  O   -0.382076
   123  C    0.126236
   124  H   -0.009983
   125  H    0.025942
   126  H   -0.003890
   127  H    0.040932
   128  H    0.033995
   129  H    0.030214
   130  H    0.043341
   131  H    0.031394
   132  H    0.042775
   133  H    0.033003
   134  H    0.067822
   135  H    0.036366
   136  H    0.048931
   137  H    0.026998
   138  H    0.053716
   139  H    0.041885
   140  H    0.056588
   141  H    0.049690
   142  H    0.042183
   143  H    0.039921
   144  H    0.039817
   145  H    0.057651
   146  H    0.036715
   147  H    0.045256
   148  H    0.027639
   149  H    0.048376
   150  H    0.041056
   151  H    0.039423
   152  H    0.051879
   153  H    0.041764
   154  H    0.060807
   155  H    0.062958
   156  H    0.052999
   157  H    0.061563
   158  H    0.073519
 Sum of Mulliken charges =  -0.00000

 Dipole moment (field-independent basis, Debye):
    X=             -6.4852    Y=              1.2709    Z=              3.5979  Tot=              7.5245
 Quadrupole moment (field-independent basis, Debye-Ang):
   XX=           -510.1866   YY=           -512.2924   ZZ=           -472.0616
   XY=             -7.2557   XZ=            -90.9786   YZ=             51.3243

 Normal termination of Gaussian 16 at Sun Sep 19 05:38:23 2021.
