 Gaussian 16, Revision A.03,
 Gaussian 16:  ES64L-G16RevA.03 25-Dec-2016

 --------------------------------
 #p wB97XD/Def2SVP td=(nstates=5)
 --------------------------------

 --------------------------------
 TDDFT excited states in gaussian
 --------------------------------
 Symbolic Z-matrix:
 Charge =  0 Multiplicity = 1

                         Standard orientation:
 ---------------------------------------------------------------------
 Center     Atomic      Atomic             Coordinates (Angstroms)
 Number     Number       Type             X           Y           Z
 ---------------------------------------------------------------------
      1         12           0      -28.217167   -0.069680   -0.483049
      2          6           0      -24.773128    0.232460    0.225252
      3          6           0      -28.054117   -3.428936    0.442422
      4          6           0      -31.612223   -0.028825   -0.189263
      5          6           0      -28.238368    3.490612   -0.875136
      6          7           0      -26.610493   -1.397789    0.199037
      7          6           0      -25.324988   -1.061580    0.437280
      8          6           0      -24.538312   -2.258172    1.064569
      9          6           0      -25.542057   -3.458388    0.741017
     10          6           0      -26.878014   -2.727360    0.389009
     11          6           0      -25.254976   -4.441635   -0.416360
     12          6           0      -24.328813   -1.980667    2.601232
     13          6           0      -22.968759   -2.487047    3.156667
     14          1           0      -23.022400   -3.153742    4.591342
     15          7           0      -29.698140   -1.608215   -0.135760
     16          6           0      -29.378277   -2.904052    0.171650
     17          6           0      -30.599106   -3.610294    0.266521
     18          6           0      -31.679539   -2.684343    0.164497
     19          6           0      -31.038916   -1.356433   -0.118685
     20          6           0      -30.723856   -5.091664    0.533785
     21          6           0      -33.118740   -2.954572    0.443630
     22          8           0      -33.503043   -4.033952    0.864339
     23          6           0      -34.177056   -1.986224    0.320766
     24          7           0      -29.700569    1.580730   -0.423860
     25          6           0      -31.065290    1.258324   -0.458783
     26          6           0      -31.887064    2.477663   -0.738416
     27          6           0      -30.837324    3.638938   -0.897864
     28          6           0      -29.519654    2.902639   -0.728050
     29          6           0      -32.746526    2.225476   -1.983804
     30          6           0      -31.156763    4.907575   -0.020619
     31          6           0      -31.304294    6.211770   -0.744016
     32          7           0      -26.798682    1.596251   -0.397314
     33          6           0      -26.977881    2.936975   -0.634563
     34          6           0      -25.673429    3.634167   -0.667157
     35          6           0      -24.815481    2.577234   -0.262589
     36          6           0      -25.519370    1.389025   -0.204136
     37          6           0      -25.369804    5.111828   -0.858753
     38          6           0      -23.469155    2.312503    0.170419
     39          8           0      -22.512828    3.089448    0.317566
     40          6           0      -23.334073    0.823406    0.487450
     41          6           0      -22.249192    0.205592   -0.297691
     42          8           0      -21.327865   -0.327825    0.205506
     43          8           0      -22.511737    0.137298   -1.635372
     44          6           0      -21.518444   -0.717745   -2.320777
     45          1           0      -28.025951   -4.501004    0.650394
     46          1           0      -32.700457   -0.107027   -0.175064
     47          1           0      -28.053093    4.565964   -0.928793
     48          1           0      -23.581361   -2.340393    0.548924
     49          1           0      -25.933679   -3.984624    1.611386
     50          1           0      -24.632693   -3.964302   -1.174197
     51          1           0      -26.123935   -4.882133   -0.905312
     52          1           0      -24.662709   -5.244245    0.021822
     53          1           0      -25.156082   -2.386511    3.184178
     54          1           0      -24.378542   -0.895418    2.690425
     55          1           0      -22.356963   -1.585055    3.179565
     56          1           0      -22.609735   -3.132029    2.354364
     57          1           0      -31.658046   -5.561601    0.226029
     58          1           0      -30.601032   -5.163591    1.614115
     59          1           0      -29.870718   -5.711045    0.256905
     60          1           0      -34.199807   -1.677457   -0.725124
     61          1           0      -34.029571   -1.151568    1.006714
     62          1           0      -35.117625   -2.468517    0.587056
     63          1           0      -32.459848    2.764441    0.143176
     64          1           0      -30.606569    3.976190   -1.908605
     65          1           0      -32.801696    1.173127   -2.263459
     66          1           0      -32.348966    2.738756   -2.859355
     67          1           0      -33.795001    2.396833   -1.741822
     68          1           0      -30.334617    4.957389    0.693320
     69          1           0      -32.127781    4.871499    0.471918
     70          1           0      -30.608790    6.913000   -0.283660
     71          1           0      -32.300014    6.636763   -0.616081
     72          1           0      -31.212807    6.115906   -1.825975
     73          1           0      -25.481322    5.687243    0.060472
     74          1           0      -25.934326    5.564991   -1.674622
     75          1           0      -24.296860    5.076251   -1.047094
     76          1           0      -22.982526    0.697677    1.510707
     77          1           0      -21.774808   -0.737396   -3.380339
     78          1           0      -21.523335   -1.724643   -1.903594
     79          1           0      -20.509536   -0.307095   -2.340282
     80         12           0       27.666213    0.736639   -0.361846
     81          6           0       27.213592   -2.808521   -0.043750
     82          6           0       25.040433    1.004917    2.045058
     83          6           0       28.513530    3.914970    0.323082
     84          6           0       30.576684    0.141063   -2.056177
     85          7           0       26.358139   -0.744963    0.843257
     86          6           0       26.332955   -2.107991    0.788472
     87          6           0       25.246267   -2.711239    1.745412
     88          6           0       24.351825   -1.415040    2.046465
     89          6           0       25.344706   -0.319107    1.693307
     90          6           0       23.106932   -1.294552    1.197710
     91          6           0       25.832476   -3.479509    2.918335
     92          6           0       25.182482   -4.840306    3.279943
     93          1           0       24.152622   -4.961312    4.497566
     94          7           0       26.813708    2.343645    0.956000
     95          6           0       25.674735    2.231141    1.780398
     96          6           0       25.396950    3.541985    2.380087
     97          6           0       26.407084    4.424807    1.828716
     98          6           0       27.330049    3.590749    1.089388
     99          6           0       24.340902    3.868645    3.367749
    100          6           0       26.442786    5.921315    2.012189
    101          8           0       25.487234    6.455990    2.528206
    102          6           0       27.589255    6.807395    1.582626
    103          7           0       29.334978    1.752958   -0.714853
    104          6           0       29.361727    3.121769   -0.463004
    105          6           0       30.696939    3.656256   -0.986289
    106          6           0       31.230284    2.505399   -1.915811
    107          6           0       30.290137    1.399076   -1.574276
    108          6           0       30.723487    5.091533   -1.628994
    109          6           0       32.740638    2.127577   -1.824452
    110          6           0       33.545698    2.149111   -3.082778
    111          7           0       28.656082   -0.918876   -1.054719
    112          6           0       29.811380   -1.022555   -1.809659
    113          6           0       29.988780   -2.400092   -2.308235
    114          6           0       28.990518   -3.130200   -1.553543
    115          6           0       28.258582   -2.182337   -0.831823
    116          6           0       30.999493   -2.964168   -3.271784
    117          6           0       28.439989   -4.500240   -1.334641
    118          8           0       28.820476   -5.565322   -1.729716
    119          6           0       27.363321   -4.315627   -0.270178
    120          6           0       26.089701   -4.902793   -0.801079
    121          8           0       25.561230   -4.382562   -1.760096
    122          8           0       25.542739   -5.990149   -0.055740
    123          6           0       24.175818   -6.448055   -0.449613
    124          1           0       24.207751    1.133511    2.739952
    125          1           0       28.916920    4.923888    0.424340
    126          1           0       31.404283    0.023325   -2.758372
    127          1           0       24.548188   -3.354759    1.210767
    128          1           0       24.142102   -1.314570    3.111304
    129          1           0       23.391256   -0.887308    0.227719
    130          1           0       22.403079   -0.671810    1.749700
    131          1           0       22.558568   -2.200134    0.936171
    132          1           0       25.692796   -2.843578    3.791966
    133          1           0       26.914407   -3.508165    2.789360
    134          1           0       26.045162   -5.475664    3.481884
    135          1           0       24.647401   -5.298395    2.448021
    136          1           0       23.517531    4.299849    2.799145
    137          1           0       24.687537    4.682511    4.004665
    138          1           0       23.947900    3.095946    4.029584
    139          1           0       27.512342    7.850681    1.888166
    140          1           0       27.584794    6.778312    0.492953
    141          1           0       28.609611    6.519704    1.833296
    142          1           0       31.250178    3.797775   -0.057397
    143          1           0       30.928838    2.731239   -2.938228
    144          1           0       29.722627    5.391931   -1.940223
    145          1           0       31.443112    5.129997   -2.446570
    146          1           0       31.106471    5.816889   -0.911495
    147          1           0       32.826548    1.135071   -1.382248
    148          1           0       33.182079    2.766052   -1.059335
    149          1           0       33.752528    1.124313   -3.390466
    150          1           0       34.501252    2.639062   -2.896278
    151          1           0       33.110161    2.640682   -3.952432
    152          1           0       30.646836   -3.899476   -3.705964
    153          1           0       31.918131   -3.110120   -2.702848
    154          1           0       31.234877   -2.186689   -3.998800
    155          1           0       27.745071   -4.744897    0.656280
    156          1           0       24.252327   -7.076649   -1.336973
    157          1           0       23.548928   -5.602672   -0.732434
    158          1           0       23.692774   -6.976060    0.372342
 ---------------------------------------------------------------------

 SCF Done:  E(RwB97XD) =  -4070.58293898     A.U. after   20 cycles

 Excitation energies and oscillator strengths:

 Excited State   1:      Singlet-A      1.6114 eV  769.44 nm  f=0.3947  <S**2>=0.000
     310 -> 316        0.17509
     312 -> 314        0.68582
     310 <- 316        0.11583
 This state for optimization and/or second-order correction.
 Total Energy, E(TD-HF/TD-DFT) =  -4070.52372290
 Copying the excited state density for this state as the 1-particle RhoCI density.

 Excited State   2:      Singlet-A      1.6192 eV  765.70 nm  f=0.4115  <S**2>=0.000
     309 -> 315       -0.17877
     311 -> 313        0.68425
     309 <- 315       -0.11640

 Excited State   3:      Singlet-A      2.1452 eV  577.97 nm  f=0.1101  <S**2>=0.000
     309 -> 313        0.63981
     311 -> 315        0.28469

 Excited State   4:      Singlet-A      2.1827 eV  568.04 nm  f=0.1248  <S**2>=0.000
     310 -> 314        0.63924
     312 -> 316       -0.28432

 Excited State   5:      Singlet-A      3.1513 eV  393.43 nm  f=0.0019  <S**2>=0.000
     306 -> 314       -0.12201
     308 -> 314        0.66858
     312 -> 316        0.10231

 The electronic state is 1-A.
 Alpha  occ. eigenvalues --  -46.97173 -46.95655 -19.30504 -19.30355 -19.25670
 Alpha  occ. eigenvalues --  -19.24861 -19.24784 -19.23958 -19.22962 -19.22319
 Alpha  occ. eigenvalues --  -14.47615 -14.47395 -14.47287 -14.46259 -14.44489
 Alpha  occ. eigenvalues --  -14.43935 -14.43905 -14.43737 -10.44106 -10.42579
 Alpha  occ. eigenvalues --  -10.39434 -10.38837 -10.38440 -10.37416 -10.36315
 Alpha  occ. eigenvalues --  -10.36028 -10.36022 -10.35893 -10.35587 -10.35414
 Alpha  occ. eigenvalues --  -10.35325 -10.35105 -10.35013 -10.34695 -10.34473
 Alpha  occ. eigenvalues --  -10.34295 -10.34277 -10.34253 -10.33875 -10.33533
 Alpha  occ. eigenvalues --  -10.33497 -10.33218 -10.33124 -10.33119 -10.33108
 Alpha  occ. eigenvalues --  -10.33083 -10.32894 -10.32844 -10.32780 -10.32770
 Alpha  occ. eigenvalues --  -10.32690 -10.32590 -10.32508 -10.32502 -10.32289
 Alpha  occ. eigenvalues --  -10.32206 -10.32084 -10.32054 -10.31853 -10.31820
 Alpha  occ. eigenvalues --  -10.31622 -10.31582 -10.31564 -10.31287 -10.31035
 Alpha  occ. eigenvalues --  -10.30984 -10.30914 -10.30845 -10.30766 -10.30746
 Alpha  occ. eigenvalues --  -10.30595 -10.30485 -10.30397 -10.30385 -10.30355
 Alpha  occ. eigenvalues --  -10.30283 -10.30262 -10.29896 -10.29733 -10.29618
 Alpha  occ. eigenvalues --  -10.29573 -10.29543 -10.29533 -10.29268 -10.29175
 Alpha  occ. eigenvalues --  -10.29141  -3.22817  -3.21689  -1.96410  -1.95908
 Alpha  occ. eigenvalues --   -1.95769  -1.95221  -1.94811  -1.94659  -1.20154
 Alpha  occ. eigenvalues --   -1.17521  -1.13986  -1.12391  -1.11736  -1.11274
 Alpha  occ. eigenvalues --   -1.11233  -1.10091  -1.07186  -1.06571  -1.05761
 Alpha  occ. eigenvalues --   -1.05584  -1.05452  -1.04794  -1.04572  -1.03529
 Alpha  occ. eigenvalues --   -0.94747  -0.94647  -0.91299  -0.91258  -0.90967
 Alpha  occ. eigenvalues --   -0.90753  -0.90339  -0.90134  -0.89970  -0.89524
 Alpha  occ. eigenvalues --   -0.89006  -0.88165  -0.87766  -0.87579  -0.86795
 Alpha  occ. eigenvalues --   -0.86610  -0.86393  -0.85845  -0.84644  -0.84413
 Alpha  occ. eigenvalues --   -0.84398  -0.83730  -0.82904  -0.82536  -0.82487
 Alpha  occ. eigenvalues --   -0.82167  -0.80624  -0.80077  -0.79567  -0.79427
 Alpha  occ. eigenvalues --   -0.78816  -0.78737  -0.78426  -0.78248  -0.77376
 Alpha  occ. eigenvalues --   -0.77157  -0.75169  -0.74637  -0.74511  -0.73744
 Alpha  occ. eigenvalues --   -0.71436  -0.71374  -0.71212  -0.70888  -0.69941
 Alpha  occ. eigenvalues --   -0.69908  -0.68861  -0.68677  -0.68305  -0.67848
 Alpha  occ. eigenvalues --   -0.67665  -0.67054  -0.67023  -0.66665  -0.66545
 Alpha  occ. eigenvalues --   -0.66313  -0.65327  -0.64336  -0.62104  -0.62041
 Alpha  occ. eigenvalues --   -0.61795  -0.61496  -0.61184  -0.61035  -0.61002
 Alpha  occ. eigenvalues --   -0.60884  -0.60319  -0.60294  -0.59624  -0.59066
 Alpha  occ. eigenvalues --   -0.58488  -0.58466  -0.58040  -0.57593  -0.57554
 Alpha  occ. eigenvalues --   -0.57414  -0.57092  -0.56524  -0.56225  -0.55823
 Alpha  occ. eigenvalues --   -0.55508  -0.55330  -0.55302  -0.55107  -0.55048
 Alpha  occ. eigenvalues --   -0.54834  -0.54785  -0.54583  -0.54223  -0.54159
 Alpha  occ. eigenvalues --   -0.53759  -0.53687  -0.53662  -0.53449  -0.53294
 Alpha  occ. eigenvalues --   -0.53228  -0.53019  -0.52837  -0.52829  -0.52332
 Alpha  occ. eigenvalues --   -0.51982  -0.51858  -0.51800  -0.51799  -0.51666
 Alpha  occ. eigenvalues --   -0.51552  -0.51251  -0.51232  -0.51043  -0.51006
 Alpha  occ. eigenvalues --   -0.50636  -0.50578  -0.50518  -0.50336  -0.50117
 Alpha  occ. eigenvalues --   -0.50083  -0.49594  -0.49473  -0.49269  -0.49000
 Alpha  occ. eigenvalues --   -0.48953  -0.48924  -0.48723  -0.48636  -0.48361
 Alpha  occ. eigenvalues --   -0.48330  -0.48281  -0.48262  -0.48121  -0.47974
 Alpha  occ. eigenvalues --   -0.47892  -0.47741  -0.47693  -0.47189  -0.47109
 Alpha  occ. eigenvalues --   -0.47049  -0.46893  -0.46812  -0.46648  -0.46587
 Alpha  occ. eigenvalues --   -0.46311  -0.46005  -0.45709  -0.45556  -0.45541
 Alpha  occ. eigenvalues --   -0.45392  -0.45315  -0.45234  -0.44938  -0.44828
 Alpha  occ. eigenvalues --   -0.44806  -0.44562  -0.44542  -0.44476  -0.44384
 Alpha  occ. eigenvalues --   -0.44352  -0.43825  -0.43711  -0.43542  -0.43313
 Alpha  occ. eigenvalues --   -0.43010  -0.42913  -0.42719  -0.42657  -0.42461
 Alpha  occ. eigenvalues --   -0.42144  -0.42073  -0.41553  -0.41175  -0.41141
 Alpha  occ. eigenvalues --   -0.40598  -0.40406  -0.39935  -0.39671  -0.39642
 Alpha  occ. eigenvalues --   -0.39343  -0.39253  -0.39148  -0.38949  -0.38601
 Alpha  occ. eigenvalues --   -0.38345  -0.37754  -0.36986  -0.36918  -0.36381
 Alpha  occ. eigenvalues --   -0.36144  -0.35764  -0.35447  -0.33724  -0.33623
 Alpha  occ. eigenvalues --   -0.33310  -0.32990  -0.32619  -0.32388  -0.31922
 Alpha  occ. eigenvalues --   -0.31851  -0.31341  -0.30903  -0.26438  -0.26216
 Alpha  occ. eigenvalues --   -0.23378  -0.22909
 Alpha virt. eigenvalues --   -0.07767  -0.07332  -0.00353   0.00445   0.02320
 Alpha virt. eigenvalues --    0.02730   0.04245   0.04402   0.04538   0.04832
 Alpha virt. eigenvalues --    0.06524   0.06930   0.07264   0.07989   0.07992

 Mulliken charges:
               1
     1  Mg   0.930664
     2  C   -0.012445
     3  C   -0.078735
     4  C   -0.029701
     5  C   -0.055298
     6  N   -0.359408
     7  C   -0.011243
     8  C   -0.090570
     9  C   -0.100338
    10  C    0.079468
    11  C    0.032994
    12  C    0.011808
    13  C   -0.107005
    14  H    0.041716
    15  N   -0.446488
    16  C    0.131619
    17  C   -0.166276
    18  C   -0.071314
    19  C    0.121540
    20  C    0.092298
    21  C   -0.000445
    22  O   -0.245899
    23  C    0.011357
    24  N   -0.354181
    25  C    0.049138
    26  C   -0.068700
    27  C   -0.054152
    28  C    0.053354
    29  C    0.028797
    30  C   -0.008413
    31  C   -0.059099
    32  N   -0.368015
    33  C    0.038762
    34  C   -0.158667
    35  C   -0.038448
    36  C    0.117477
    37  C    0.062080
    38  C    0.094514
    39  O   -0.225719
    40  C   -0.017594
    41  C    0.221610
    42  O   -0.212654
    43  O   -0.366515
    44  C    0.140023
    45  H    0.006052
    46  H   -0.031097
    47  H   -0.001350
    48  H    0.038026
    49  H    0.035488
    50  H    0.032290
    51  H    0.046118
    52  H    0.040153
    53  H    0.042485
    54  H    0.036082
    55  H    0.065958
    56  H    0.053265
    57  H    0.070804
    58  H    0.039812
    59  H    0.017336
    60  H    0.051111
    61  H    0.064321
    62  H    0.052285
    63  H    0.047986
    64  H    0.037679
    65  H    0.035136
    66  H    0.041433
    67  H    0.037077
    68  H    0.041962
    69  H    0.039584
    70  H    0.042342
    71  H    0.030772
    72  H    0.032996
    73  H    0.064847
    74  H    0.051575
    75  H    0.065767
    76  H    0.062058
    77  H    0.046743
    78  H    0.053337
    79  H    0.057668
    80  Mg   0.981287
    81  C   -0.076572
    82  C   -0.053972
    83  C   -0.080027
    84  C   -0.124397
    85  N   -0.312958
    86  C   -0.015902
    87  C   -0.065909
    88  C   -0.119835
    89  C    0.049042
    90  C    0.041524
    91  C    0.037345
    92  C   -0.107643
    93  H    0.023561
    94  N   -0.419615
    95  C    0.112256
    96  C   -0.143766
    97  C   -0.073739
    98  C    0.168768
    99  C    0.081176
   100  C    0.035502
   101  O   -0.234891
   102  C   -0.012163
   103  N   -0.451658
   104  C    0.092083
   105  C   -0.128707
   106  C   -0.033748
   107  C    0.089218
   108  C    0.013848
   109  C    0.001000
   110  C   -0.047237
   111  N   -0.442139
   112  C    0.135229
   113  C   -0.189511
   114  C   -0.106262
   115  C    0.178298
   116  C    0.090761
   117  C    0.132645
   118  O   -0.174089
   119  C   -0.015073
   120  C    0.278318
   121  O   -0.234437
   122  O   -0.404972
   123  C    0.133374
   124  H   -0.006108
   125  H   -0.037482
   126  H   -0.011839
   127  H    0.025613
   128  H    0.028738
   129  H    0.043271
   130  H    0.042647
   131  H    0.036720
   132  H    0.037376
   133  H    0.040599
   134  H    0.055478
   135  H    0.048132
   136  H    0.055548
   137  H    0.053867
   138  H    0.036875
   139  H    0.051251
   140  H    0.050119
   141  H    0.057957
   142  H    0.051508
   143  H    0.033579
   144  H    0.044837
   145  H    0.038330
   146  H    0.031045
   147  H    0.038642
   148  H    0.025375
   149  H    0.036241
   150  H    0.036894
   151  H    0.035841
   152  H    0.071569
   153  H    0.053862
   154  H    0.034422
   155  H    0.072701
   156  H    0.063780
   157  H    0.051500
   158  H    0.065101
 Sum of Mulliken charges =  -0.00000

 Dipole moment (field-independent basis, Debye):
    X=             -1.9167    Y=              2.9266    Z=             -4.0871  Tot=              5.3799
 Quadrupole moment (field-independent basis, Debye-Ang):
   XX=           -274.7484   YY=           -528.6281   ZZ=           -508.8978
   XY=            -26.3790   XZ=             64.1654   YZ=            -22.4291

 Normal termination of Gaussian 16 at Sat Sep 18 22:14:20 2021.
