 Gaussian 16, Revision A.03,
 Gaussian 16:  ES64L-G16RevA.03 25-Dec-2016

 --------------------------------
 #p wB97XD/Def2SVP td=(nstates=5)
 --------------------------------

 --------------------------------
 TDDFT excited states in gaussian
 --------------------------------
 Symbolic Z-matrix:
 Charge =  0 Multiplicity = 1

                         Standard orientation:
 ---------------------------------------------------------------------
 Center     Atomic      Atomic             Coordinates (Angstroms)
 Number     Number       Type             X           Y           Z
 ---------------------------------------------------------------------
      1         12           0      -21.633879    0.212392   -0.530845
      2          6           0      -18.307599   -0.918783   -0.450221
      3          6           0      -22.672356   -3.065237   -0.501497
      4          6           0      -24.664010    1.349692    0.155014
      5          6           0      -20.431141    3.546394   -0.294842
      6          7           0      -20.615480   -1.724104   -0.226625
      7          6           0      -19.218361   -1.971364   -0.221425
      8          6           0      -18.887534   -3.389265   -0.445333
      9          6           0      -20.326088   -4.055862   -0.559404
     10          6           0      -21.282744   -2.878164   -0.459816
     11          6           0      -20.461237   -4.968688   -1.802185
     12          6           0      -18.176451   -4.053998    0.693709
     13          6           0      -18.603888   -3.642067    2.110315
     14          1           0      -18.631748   -4.683033    3.296402
     15          7           0      -23.473592   -0.709573   -0.243004
     16          6           0      -23.681451   -2.031142   -0.397632
     17          6           0      -25.098957   -2.281161   -0.319339
     18          6           0      -25.719678   -1.013013   -0.202916
     19          6           0      -24.627147   -0.030437   -0.119414
     20          6           0      -25.758944   -3.633796   -0.327210
     21          6           0      -27.226192   -0.758209   -0.164244
     22          8           0      -28.019313   -1.677415   -0.223262
     23          6           0      -27.923958    0.550981    0.057737
     24          7           0      -22.401655    2.116950    0.123544
     25          6           0      -23.739742    2.349907    0.298503
     26          6           0      -24.051546    3.881539    0.356587
     27          6           0      -22.628497    4.496832    0.517770
     28          6           0      -21.765224    3.335898    0.074829
     29          6           0      -24.763011    4.463738   -0.888634
     30          6           0      -22.158231    4.798405    2.018540
     31          6           0      -21.531002    6.121273    2.272019
     32          7           0      -19.845485    1.156543   -0.501425
     33          6           0      -19.550669    2.460191   -0.595254
     34          6           0      -18.121286    2.637076   -1.054005
     35          6           0      -17.639899    1.289235   -1.048101
     36          6           0      -18.682235    0.448254   -0.565441
     37          6           0      -17.339726    3.898208   -1.393088
     38          6           0      -16.437725    0.517094   -1.175716
     39          8           0      -15.293588    0.862584   -1.424978
     40          6           0      -16.845805   -0.968583   -0.816666
     41          6           0      -16.126766   -1.324691    0.467969
     42          8           0      -16.317433   -0.882789    1.552570
     43          8           0      -15.258641   -2.360076    0.193998
     44          6           0      -14.706728   -2.999214    1.392839
     45          1           0      -22.989539   -4.092596   -0.691252
     46          1           0      -25.673464    1.761188    0.205570
     47          1           0      -20.151092    4.600051   -0.356544
     48          1           0      -18.267407   -3.445527   -1.339965
     49          1           0      -20.662068   -4.620778    0.310070
     50          1           0      -20.897972   -5.857142   -1.345755
     51          1           0      -19.456125   -5.118386   -2.196608
     52          1           0      -21.167644   -4.585234   -2.538698
     53          1           0      -17.091968   -4.078999    0.583806
     54          1           0      -18.309304   -5.134842    0.745764
     55          1           0      -19.592868   -3.200215    1.984074
     56          1           0      -17.923429   -2.816421    2.319343
     57          1           0      -26.512389   -3.706436    0.457802
     58          1           0      -25.001453   -4.415104   -0.266235
     59          1           0      -26.248866   -3.681148   -1.300046
     60          1           0      -27.783545    0.995978    1.042282
     61          1           0      -28.965842    0.230544    0.068941
     62          1           0      -27.870250    1.217876   -0.803430
     63          1           0      -24.695889    4.055085    1.218354
     64          1           0      -22.457997    5.366839   -0.116886
     65          1           0      -24.070581    5.130340   -1.402404
     66          1           0      -25.766104    4.818803   -0.652910
     67          1           0      -24.956642    3.650039   -1.586647
     68          1           0      -21.499952    4.012356    2.387817
     69          1           0      -23.080186    4.728417    2.596030
     70          1           0      -22.034047    6.688691    3.054741
     71          1           0      -21.454041    6.744791    1.380988
     72          1           0      -20.509324    6.020686    2.637295
     73          1           0      -16.482237    3.917665   -0.720434
     74          1           0      -18.040613    4.733889   -1.389212
     75          1           0      -16.921577    3.721571   -2.383989
     76          1           0      -16.610585   -1.667785   -1.618782
     77          1           0      -15.381790   -2.957284    2.247500
     78          1           0      -13.803778   -2.422194    1.592658
     79          1           0      -14.353517   -3.977703    1.068545
     80         12           0       20.797848    0.691063   -0.430691
     81          6           0       21.314357   -2.689743    0.174627
     82          6           0       17.800599    0.494538    1.449850
     83          6           0       20.845015    4.003899    0.001801
     84          6           0       24.098081    0.844931   -1.660916
     85          7           0       19.845454   -0.907448    1.014923
     86          6           0       20.143123   -2.236875    0.835059
     87          6           0       19.183960   -3.118641    1.571313
     88          6           0       17.932068   -2.143606    1.756928
     89          6           0       18.529089   -0.730877    1.422945
     90          6           0       16.635405   -2.482547    0.862243
     91          6           0       19.876980   -3.735265    2.893031
     92          6           0       19.317682   -4.989421    3.340793
     93          1           0       18.844436   -4.966252    4.809673
     94          7           0       19.443615    2.082205    0.409950
     95          6           0       18.254734    1.800253    1.139392
     96          6           0       17.638176    3.071689    1.478505
     97          6           0       18.486178    4.122957    1.052932
     98          6           0       19.625618    3.421092    0.371920
     99          6           0       16.407021    3.154044    2.301661
    100          6           0       18.216412    5.659792    1.337007
    101          8           0       17.188724    5.939342    1.952392
    102          6           0       18.993125    6.762257    0.625415
    103          7           0       22.314190    2.140005   -0.698830
    104          6           0       21.998128    3.451802   -0.553388
    105          6           0       23.287348    4.452557   -0.813829
    106          6           0       24.272265    3.433166   -1.563747
    107          6           0       23.567009    2.056583   -1.349731
    108          6           0       23.005799    5.716119   -1.712031
    109          6           0       25.689380    3.432533   -0.987369
    110          6           0       26.908661    3.769167   -1.878922
    111          7           0       22.264082   -0.664744   -0.955838
    112          6           0       23.511636   -0.456529   -1.468331
    113          6           0       24.110949   -1.725625   -1.776652
    114          6           0       23.253218   -2.645188   -1.063502
    115          6           0       22.172456   -1.904742   -0.554950
    116          6           0       25.460399   -1.949791   -2.395511
    117          6           0       23.138018   -4.024466   -0.637889
    118          8           0       23.754820   -4.987146   -0.980223
    119          6           0       21.794616   -4.174658    0.176967
    120          6           0       20.726659   -5.064429   -0.496536
    121          8           0       20.364105   -4.953750   -1.648000
    122          8           0       20.321663   -6.076058    0.398530
    123          6           0       19.462184   -7.094358   -0.125232
    124          1           0       16.854461    0.354795    1.975384
    125          1           0       21.019510    5.032559    0.323550
    126          1           0       25.108245    0.939420   -2.063529
    127          1           0       18.736357   -3.875476    0.926313
    128          1           0       17.641962   -2.165956    2.807995
    129          1           0       15.835413   -2.664487    1.579772
    130          1           0       16.783592   -3.341719    0.208783
    131          1           0       16.419959   -1.581929    0.286562
    132          1           0       19.688392   -2.975141    3.650967
    133          1           0       20.928448   -3.708635    2.605740
    134          1           0       20.105642   -5.731150    3.215806
    135          1           0       18.434964   -5.236900    2.751227
    136          1           0       15.913618    2.185888    2.385407
    137          1           0       15.669631    3.785395    1.805297
    138          1           0       16.629384    3.491078    3.314387
    139          1           0       20.048630    6.801535    0.896450
    140          1           0       18.501789    7.707984    0.856431
    141          1           0       18.879697    6.596359   -0.445959
    142          1           0       23.647201    4.658837    0.193794
    143          1           0       24.287251    3.524026   -2.650070
    144          1           0       23.097078    6.620982   -1.111911
    145          1           0       21.992444    5.658932   -2.111255
    146          1           0       23.750200    5.702902   -2.508867
    147          1           0       25.903984    2.509091   -0.449981
    148          1           0       25.830681    4.084665   -0.125627
    149          1           0       27.598053    2.958553   -2.116586
    150          1           0       27.493548    4.479409   -1.293989
    151          1           0       26.595670    4.197860   -2.831710
    152          1           0       25.472590   -2.974557   -2.767558
    153          1           0       26.276499   -2.088713   -1.687139
    154          1           0       25.767580   -1.195006   -3.118936
    155          1           0       22.122738   -4.664100    1.094392
    156          1           0       18.940216   -7.390522    0.785257
    157          1           0       20.015663   -7.987428   -0.414853
    158          1           0       18.868959   -6.714036   -0.955857
 ---------------------------------------------------------------------

 SCF Done:  E(RwB97XD) =  -4070.57409953     A.U. after   19 cycles

 Excitation energies and oscillator strengths:

 Excited State   1:      Singlet-A      1.6066 eV  771.70 nm  f=0.3795  <S**2>=0.000
     310 -> 315        0.17852
     312 -> 313        0.68523
     310 <- 315        0.11723
 This state for optimization and/or second-order correction.
 Total Energy, E(TD-HF/TD-DFT) =  -4070.51505658
 Copying the excited state density for this state as the 1-particle RhoCI density.

 Excited State   2:      Singlet-A      1.6353 eV  758.16 nm  f=0.3834  <S**2>=0.000
     309 -> 316       -0.17846
     311 -> 314        0.68587
     309 <- 316       -0.11653

 Excited State   3:      Singlet-A      2.1962 eV  564.55 nm  f=0.1037  <S**2>=0.000
     309 -> 314        0.63436
     311 -> 316        0.29402

 Excited State   4:      Singlet-A      2.2111 eV  560.73 nm  f=0.0988  <S**2>=0.000
     310 -> 313        0.62749
     312 -> 315       -0.31206

 Excited State   5:      Singlet-A      3.3902 eV  365.72 nm  f=0.0214  <S**2>=0.000
     304 -> 314        0.56356
     306 -> 314       -0.12689
     308 -> 314       -0.34580
     311 -> 316       -0.15878

 The electronic state is 1-A.
 Alpha  occ. eigenvalues --  -46.96134 -46.94942 -19.30333 -19.29849 -19.25642
 Alpha  occ. eigenvalues --  -19.25340 -19.24750 -19.24188 -19.23254 -19.23233
 Alpha  occ. eigenvalues --  -14.46997 -14.46912 -14.46600 -14.46489 -14.44819
 Alpha  occ. eigenvalues --  -14.44188 -14.44114 -14.43614 -10.43928 -10.43087
 Alpha  occ. eigenvalues --  -10.40403 -10.39013 -10.38567 -10.37962 -10.35893
 Alpha  occ. eigenvalues --  -10.35693 -10.35285 -10.35249 -10.35208 -10.35163
 Alpha  occ. eigenvalues --  -10.35103 -10.34976 -10.34841 -10.34659 -10.34606
 Alpha  occ. eigenvalues --  -10.34513 -10.34513 -10.34441 -10.34000 -10.33586
 Alpha  occ. eigenvalues --  -10.33341 -10.33330 -10.32869 -10.32698 -10.32683
 Alpha  occ. eigenvalues --  -10.32565 -10.32558 -10.32547 -10.32535 -10.32461
 Alpha  occ. eigenvalues --  -10.32331 -10.32298 -10.32241 -10.32184 -10.32109
 Alpha  occ. eigenvalues --  -10.32086 -10.32011 -10.31981 -10.31887 -10.31882
 Alpha  occ. eigenvalues --  -10.31693 -10.31670 -10.31527 -10.31073 -10.30935
 Alpha  occ. eigenvalues --  -10.30861 -10.30729 -10.30569 -10.30544 -10.30497
 Alpha  occ. eigenvalues --  -10.30481 -10.30425 -10.30371 -10.30351 -10.30348
 Alpha  occ. eigenvalues --  -10.30306 -10.30195 -10.29963 -10.29656 -10.29515
 Alpha  occ. eigenvalues --  -10.29440 -10.29409 -10.29368 -10.29187 -10.29160
 Alpha  occ. eigenvalues --  -10.28618  -3.22018  -3.21012  -1.95549  -1.95192
 Alpha  occ. eigenvalues --   -1.94948  -1.94565  -1.94142  -1.94000  -1.19414
 Alpha  occ. eigenvalues --   -1.18215  -1.12975  -1.12613  -1.12541  -1.12197
 Alpha  occ. eigenvalues --   -1.11164  -1.10909  -1.06883  -1.06596  -1.06038
 Alpha  occ. eigenvalues --   -1.05333  -1.04955  -1.04655  -1.04370  -1.03620
 Alpha  occ. eigenvalues --   -0.95164  -0.94178  -0.91749  -0.91315  -0.91090
 Alpha  occ. eigenvalues --   -0.90301  -0.90254  -0.90055  -0.89454  -0.88791
 Alpha  occ. eigenvalues --   -0.88372  -0.88288  -0.87760  -0.87751  -0.86651
 Alpha  occ. eigenvalues --   -0.86056  -0.85982  -0.85228  -0.84636  -0.84604
 Alpha  occ. eigenvalues --   -0.84148  -0.83604  -0.83086  -0.82822  -0.82471
 Alpha  occ. eigenvalues --   -0.82210  -0.79888  -0.79740  -0.79445  -0.79286
 Alpha  occ. eigenvalues --   -0.78784  -0.78676  -0.78039  -0.77984  -0.77098
 Alpha  occ. eigenvalues --   -0.76879  -0.74696  -0.74639  -0.73658  -0.73318
 Alpha  occ. eigenvalues --   -0.71562  -0.71129  -0.70816  -0.70575  -0.70399
 Alpha  occ. eigenvalues --   -0.69393  -0.69094  -0.68464  -0.67837  -0.67794
 Alpha  occ. eigenvalues --   -0.67079  -0.66821  -0.66526  -0.66440  -0.66372
 Alpha  occ. eigenvalues --   -0.66086  -0.64782  -0.64103  -0.61980  -0.61684
 Alpha  occ. eigenvalues --   -0.61430  -0.61423  -0.61012  -0.60970  -0.60928
 Alpha  occ. eigenvalues --   -0.60513  -0.60110  -0.59966  -0.59442  -0.59401
 Alpha  occ. eigenvalues --   -0.58540  -0.58318  -0.58022  -0.57366  -0.57271
 Alpha  occ. eigenvalues --   -0.57059  -0.56930  -0.56675  -0.56565  -0.56028
 Alpha  occ. eigenvalues --   -0.55915  -0.55168  -0.54996  -0.54808  -0.54664
 Alpha  occ. eigenvalues --   -0.54486  -0.54398  -0.54302  -0.54214  -0.54026
 Alpha  occ. eigenvalues --   -0.54022  -0.53680  -0.53575  -0.53535  -0.53346
 Alpha  occ. eigenvalues --   -0.53080  -0.52943  -0.52877  -0.52694  -0.52144
 Alpha  occ. eigenvalues --   -0.52103  -0.52001  -0.51666  -0.51566  -0.51556
 Alpha  occ. eigenvalues --   -0.51342  -0.51217  -0.51135  -0.51033  -0.50850
 Alpha  occ. eigenvalues --   -0.50698  -0.50692  -0.50554  -0.50351  -0.50288
 Alpha  occ. eigenvalues --   -0.49911  -0.49786  -0.49467  -0.49208  -0.49134
 Alpha  occ. eigenvalues --   -0.49047  -0.48978  -0.48907  -0.48827  -0.48741
 Alpha  occ. eigenvalues --   -0.48339  -0.48314  -0.48064  -0.47952  -0.47868
 Alpha  occ. eigenvalues --   -0.47828  -0.47561  -0.47428  -0.47172  -0.47156
 Alpha  occ. eigenvalues --   -0.46868  -0.46723  -0.46605  -0.46416  -0.46300
 Alpha  occ. eigenvalues --   -0.46028  -0.46007  -0.45882  -0.45840  -0.45540
 Alpha  occ. eigenvalues --   -0.45436  -0.45339  -0.45154  -0.45059  -0.44707
 Alpha  occ. eigenvalues --   -0.44701  -0.44604  -0.44525  -0.44411  -0.44385
 Alpha  occ. eigenvalues --   -0.44159  -0.44116  -0.44084  -0.43792  -0.43371
 Alpha  occ. eigenvalues --   -0.43060  -0.42936  -0.42868  -0.42676  -0.42344
 Alpha  occ. eigenvalues --   -0.42300  -0.41766  -0.41695  -0.41035  -0.40597
 Alpha  occ. eigenvalues --   -0.40413  -0.40161  -0.39814  -0.39678  -0.39319
 Alpha  occ. eigenvalues --   -0.39079  -0.39025  -0.38660  -0.38479  -0.38220
 Alpha  occ. eigenvalues --   -0.37714  -0.37553  -0.37052  -0.36733  -0.36228
 Alpha  occ. eigenvalues --   -0.36219  -0.35520  -0.35301  -0.33582  -0.33567
 Alpha  occ. eigenvalues --   -0.33435  -0.33123  -0.32467  -0.32415  -0.32075
 Alpha  occ. eigenvalues --   -0.31924  -0.31829  -0.31280  -0.26242  -0.26230
 Alpha  occ. eigenvalues --   -0.22966  -0.22854
 Alpha virt. eigenvalues --   -0.07123  -0.07105   0.00124   0.00270   0.02295
 Alpha virt. eigenvalues --    0.02531   0.04273   0.04489   0.04513   0.04650
 Alpha virt. eigenvalues --    0.06746   0.07104   0.07574   0.07770   0.08152

 Mulliken charges:
               1
     1  Mg   0.971278
     2  C   -0.073496
     3  C   -0.088790
     4  C   -0.070264
     5  C   -0.087636
     6  N   -0.366475
     7  C    0.021195
     8  C   -0.041302
     9  C   -0.131823
    10  C    0.060076
    11  C    0.036730
    12  C   -0.026226
    13  C   -0.106215
    14  H    0.042072
    15  N   -0.438636
    16  C    0.155143
    17  C   -0.199114
    18  C   -0.050426
    19  C    0.165571
    20  C    0.110708
    21  C    0.017476
    22  O   -0.237326
    23  C   -0.009436
    24  N   -0.356863
    25  C    0.045839
    26  C   -0.080047
    27  C   -0.111601
    28  C    0.037404
    29  C    0.042906
    30  C    0.014738
    31  C   -0.045851
    32  N   -0.434693
    33  C    0.147962
    34  C   -0.205186
    35  C   -0.044363
    36  C    0.162997
    37  C    0.102113
    38  C    0.124242
    39  O   -0.206587
    40  C   -0.072811
    41  C    0.257857
    42  O   -0.210121
    43  O   -0.374950
    44  C    0.128973
    45  H   -0.001774
    46  H   -0.030303
    47  H    0.001590
    48  H    0.040535
    49  H    0.052522
    50  H    0.037917
    51  H    0.045543
    52  H    0.046137
    53  H    0.018135
    54  H    0.023461
    55  H    0.051747
    56  H    0.057217
    57  H    0.065782
    58  H    0.021457
    59  H    0.056295
    60  H    0.066088
    61  H    0.044681
    62  H    0.054433
    63  H    0.033934
    64  H    0.029536
    65  H    0.040564
    66  H    0.046108
    67  H    0.027745
    68  H    0.057234
    69  H    0.024515
    70  H    0.038662
    71  H    0.024903
    72  H    0.035850
    73  H    0.069375
    74  H    0.037729
    75  H    0.057391
    76  H    0.064940
    77  H    0.073172
    78  H    0.055915
    79  H    0.055922
    80  Mg   0.960994
    81  C   -0.078102
    82  C   -0.075595
    83  C   -0.094049
    84  C   -0.091069
    85  N   -0.325311
    86  C   -0.039683
    87  C   -0.084329
    88  C   -0.134219
    89  C    0.034859
    90  C    0.014947
    91  C    0.052998
    92  C   -0.094419
    93  H    0.019874
    94  N   -0.466643
    95  C    0.174638
    96  C   -0.161967
    97  C   -0.102799
    98  C    0.203931
    99  C    0.095723
   100  C    0.076076
   101  O   -0.234442
   102  C   -0.028196
   103  N   -0.403738
   104  C    0.073772
   105  C   -0.123963
   106  C   -0.024169
   107  C    0.034419
   108  C    0.024327
   109  C   -0.029689
   110  C   -0.054245
   111  N   -0.416145
   112  C    0.139576
   113  C   -0.160876
   114  C   -0.085684
   115  C    0.221334
   116  C    0.066593
   117  C    0.108969
   118  O   -0.181765
   119  C   -0.079593
   120  C    0.276207
   121  O   -0.220972
   122  O   -0.387181
   123  C    0.130582
   124  H    0.011451
   125  H   -0.019694
   126  H   -0.007333
   127  H    0.027385
   128  H    0.037146
   129  H    0.043888
   130  H    0.052436
   131  H    0.042191
   132  H    0.036900
   133  H    0.036969
   134  H    0.063452
   135  H    0.049717
   136  H    0.010715
   137  H    0.056741
   138  H    0.066319
   139  H    0.071087
   140  H    0.057645
   141  H    0.067781
   142  H    0.055939
   143  H    0.043565
   144  H    0.039927
   145  H    0.046133
   146  H    0.045218
   147  H    0.031535
   148  H    0.018902
   149  H    0.040044
   150  H    0.034063
   151  H    0.032254
   152  H    0.049858
   153  H    0.043544
   154  H    0.043540
   155  H    0.072439
   156  H    0.046043
   157  H    0.054187
   158  H    0.067032
 Sum of Mulliken charges =  -0.00000

 Dipole moment (field-independent basis, Debye):
    X=             -1.4011    Y=              4.0853    Z=             -1.2624  Tot=              4.4996
 Quadrupole moment (field-independent basis, Debye-Ang):
   XX=           -486.5976   YY=           -474.9253   ZZ=           -517.8038
   XY=             48.9740   XZ=             29.4112   YZ=            -20.3158

 Normal termination of Gaussian 16 at Sat Sep 18 14:57:59 2021.
