 Gaussian 16, Revision A.03,
 Gaussian 16:  ES64L-G16RevA.03 25-Dec-2016

 --------------------------------
 #p wB97XD/Def2SVP td=(nstates=5)
 --------------------------------

 --------------------------------
 TDDFT excited states in gaussian
 --------------------------------
 Symbolic Z-matrix:
 Charge =  0 Multiplicity = 1

                         Standard orientation:
 ---------------------------------------------------------------------
 Center     Atomic      Atomic             Coordinates (Angstroms)
 Number     Number       Type             X           Y           Z
 ---------------------------------------------------------------------
      1         12           0      -17.614089   -0.753928    0.099971
      2          6           0      -17.521317    2.437455   -1.169000
      3          6           0      -17.102520    0.632540    3.336579
      4          6           0      -17.144162   -3.826556    1.429555
      5          6           0      -17.760982   -2.070378   -2.981590
      6          7           0      -17.338488    1.313743    0.974573
      7          6           0      -17.330010    2.453485    0.216103
      8          6           0      -17.238403    3.700580    1.098318
      9          6           0      -16.905495    3.038673    2.514443
     10          6           0      -17.122580    1.573227    2.274641
     11          6           0      -15.493478    3.424227    3.089991
     12          6           0      -18.581673    4.563346    1.130533
     13          6           0      -18.583647    6.070555    1.042734
     14          1           0      -17.631767    6.830485    1.896544
     15          7           0      -17.229554   -1.537368    2.128353
     16          6           0      -17.237564   -0.844959    3.288612
     17          6           0      -17.213007   -1.716060    4.415569
     18          6           0      -17.257528   -3.045567    3.889193
     19          6           0      -17.139055   -2.823651    2.417101
     20          6           0      -17.112706   -1.117254    5.781362
     21          6           0      -17.183547   -4.367038    4.634963
     22          8           0      -16.949340   -5.436657    4.063874
     23          6           0      -17.379903   -4.407992    6.140285
     24          7           0      -17.315041   -2.710374   -0.686714
     25          6           0      -17.271788   -3.828949    0.083960
     26          6           0      -17.367612   -5.084629   -0.780977
     27          6           0      -17.746563   -4.488572   -2.189838
     28          6           0      -17.610251   -2.997996   -1.949505
     29          6           0      -16.219361   -6.136273   -0.808495
     30          6           0      -19.134908   -4.942565   -2.806926
     31          6           0      -20.383908   -4.119280   -2.573377
     32          7           0      -17.538563   -0.026384   -1.707658
     33          6           0      -17.750002   -0.624073   -2.924186
     34          6           0      -17.695472    0.280939   -4.013776
     35          6           0      -17.655815    1.516199   -3.374689
     36          6           0      -17.585162    1.275195   -1.978439
     37          6           0      -17.786407    0.102372   -5.523672
     38          6           0      -17.610021    2.901794   -3.548357
     39          8           0      -17.571760    3.528780   -4.591034
     40          6           0      -17.493482    3.637755   -2.098007
     41          6           0      -16.249417    4.397279   -2.081430
     42          8           0      -15.099185    3.918625   -2.134736
     43          8           0      -16.437678    5.743212   -2.051856
     44          6           0      -15.302791    6.624176   -2.349662
     45          1           0      -17.031451    1.174511    4.281528
     46          1           0      -17.281893   -4.825292    1.848599
     47          1           0      -18.169839   -2.424065   -3.929605
     48          1           0      -16.478715    4.361902    0.679675
     49          1           0      -17.587530    3.391497    3.288219
     50          1           0      -15.651205    3.913486    4.050549
     51          1           0      -15.033317    4.024451    2.304890
     52          1           0      -14.859252    2.583131    3.371660
     53          1           0      -18.998002    4.265482    2.093007
     54          1           0      -19.333370    4.139956    0.465192
     55          1           0      -19.600528    6.448337    1.148959
     56          1           0      -18.225696    6.300698    0.039887
     57          1           0      -17.845703   -1.660616    6.376546
     58          1           0      -17.435909   -0.076017    5.772341
     59          1           0      -16.133063   -1.163113    6.258291
     60          1           0      -18.193391   -3.776866    6.499300
     61          1           0      -16.414842   -4.305150    6.638346
     62          1           0      -17.709922   -5.428735    6.335701
     63          1           0      -18.165519   -5.650852   -0.300042
     64          1           0      -17.098157   -4.848058   -2.987980
     65          1           0      -15.703339   -6.106653   -1.768046
     66          1           0      -16.696688   -7.109467   -0.695033
     67          1           0      -15.569166   -5.883406    0.028284
     68          1           0      -19.327298   -5.944291   -2.425106
     69          1           0      -19.049616   -5.013253   -3.891518
     70          1           0      -21.202897   -4.725589   -2.185687
     71          1           0      -20.738992   -3.601684   -3.465498
     72          1           0      -20.088935   -3.372081   -1.836614
     73          1           0      -17.952857   -0.951956   -5.747850
     74          1           0      -16.865829    0.464088   -5.982405
     75          1           0      -18.621269    0.698104   -5.891665
     76          1           0      -18.334224    4.328558   -2.167905
     77          1           0      -15.589915    7.614133   -2.704396
     78          1           0      -14.520735    6.189722   -2.971625
     79          1           0      -14.884642    6.876973   -1.375196
     80         12           0       17.685905   -0.545318   -0.252903
     81          6           0       15.185402    1.809558    0.043757
     82          6           0       19.991300    2.132817    0.330744
     83          6           0       20.161092   -2.589563   -0.842542
     84          6           0       15.372067   -2.960927   -1.133917
     85          7           0       17.553767    1.802073   -0.061145
     86          6           0       16.429369    2.425445    0.248755
     87          6           0       16.719867    3.793599    0.927988
     88          6           0       18.197077    4.019161    0.450578
     89          6           0       18.670169    2.576439    0.211087
     90          6           0       18.279091    4.898642   -0.847506
     91          6           0       16.573871    3.556631    2.447640
     92          6           0       16.668169    4.796898    3.346681
     93          1           0       17.139014    6.119034    2.774783
     94          7           0       19.757239   -0.386691   -0.173314
     95          6           0       20.497863    0.808768    0.123835
     96          6           0       21.886670    0.393268    0.265358
     97          6           0       21.924350   -1.016727    0.030320
     98          6           0       20.578477   -1.406694   -0.387507
     99          6           0       23.073564    1.347530    0.663917
    100          6           0       23.151526   -1.970280    0.210116
    101          8           0       23.037091   -3.110386   -0.148054
    102          6           0       24.436328   -1.457789    0.775263
    103          7           0       17.749425   -2.549218   -0.816094
    104          6           0       18.912498   -3.212898   -1.003289
    105          6           0       18.717105   -4.643726   -1.503332
    106          6           0       17.178362   -4.789373   -1.457543
    107          6           0       16.725883   -3.313515   -1.108061
    108          6           0       19.323394   -4.958820   -2.920048
    109          6           0       16.611634   -5.896741   -0.606125
    110          6           0       17.109219   -6.134564    0.840050
    111          7           0       15.689985   -0.650125   -0.531070
    112          6           0       14.866339   -1.683342   -0.875692
    113          6           0       13.506522   -1.198112   -0.769388
    114          6           0       13.533662    0.183932   -0.375510
    115          6           0       14.924415    0.456256   -0.260833
    116          6           0       12.295428   -2.032954   -1.046740
    117          6           0       12.776132    1.363405   -0.123135
    118          8           0       11.551325    1.612339   -0.157898
    119          6           0       13.906799    2.530218   -0.108098
    120          6           0       13.476660    3.536028    0.960977
    121          8           0       13.221065    3.279806    2.075107
    122          8           0       13.401900    4.766896    0.373613
    123          6           0       13.369706    5.930793    1.235206
    124          1           0       20.688767    2.964976    0.442976
    125          1           0       20.948871   -3.300353   -1.100752
    126          1           0       14.594127   -3.670590   -1.420521
    127          1           0       16.102667    4.595173    0.522489
    128          1           0       18.677015    4.467334    1.320912
    129          1           0       18.610823    5.901993   -0.583258
    130          1           0       17.289570    4.909236   -1.304896
    131          1           0       19.018023    4.545049   -1.566626
    132          1           0       17.406531    2.925526    2.757178
    133          1           0       15.704457    2.944448    2.685364
    134          1           0       17.082500    4.581971    4.331941
    135          1           0       15.642506    4.963231    3.676529
    136          1           0       23.920348    1.263640   -0.017919
    137          1           0       23.320648    1.090085    1.693730
    138          1           0       22.711004    2.374744    0.718137
    139          1           0       24.848486   -2.355091    1.237401
    140          1           0       24.285358   -0.761935    1.599757
    141          1           0       25.090394   -0.821894    0.178723
    142          1           0       19.203886   -5.270026   -0.756074
    143          1           0       16.732387   -4.904903   -2.445374
    144          1           0       18.633304   -5.665220   -3.380665
    145          1           0       20.271531   -5.432121   -2.664008
    146          1           0       19.531377   -4.035040   -3.459841
    147          1           0       17.048416   -6.759281   -1.108340
    148          1           0       15.526249   -5.985687   -0.549080
    149          1           0       17.583810   -7.087072    1.072081
    150          1           0       16.277959   -6.178392    1.543706
    151          1           0       17.832809   -5.361954    1.100446
    152          1           0       11.446056   -1.359356   -0.936641
    153          1           0       12.189661   -2.802558   -0.280955
    154          1           0       12.320477   -2.596134   -1.979175
    155          1           0       13.913406    2.922185   -1.125372
    156          1           0       12.466428    6.297454    0.747401
    157          1           0       14.285832    6.521313    1.211689
    158          1           0       13.133382    5.714074    2.277301
 ---------------------------------------------------------------------

 SCF Done:  E(RwB97XD) =  -4070.62793744     A.U. after   19 cycles

 Excitation energies and oscillator strengths:

 Excited State   1:      Singlet-A      1.6605 eV  746.65 nm  f=0.4147  <S**2>=0.000
     310 -> 316        0.18408
     311 -> 313        0.68431
     310 <- 316        0.11634
 This state for optimization and/or second-order correction.
 Total Energy, E(TD-HF/TD-DFT) =  -4070.56691347
 Copying the excited state density for this state as the 1-particle RhoCI density.

 Excited State   2:      Singlet-A      1.6763 eV  739.61 nm  f=0.3736  <S**2>=0.000
     309 -> 315       -0.20181
     312 -> 314        0.67874
     309 <- 315       -0.12039

 Excited State   3:      Singlet-A      2.1344 eV  580.90 nm  f=0.1676  <S**2>=0.000
     310 -> 313        0.66024
     311 -> 316       -0.24161

 Excited State   4:      Singlet-A      2.1629 eV  573.22 nm  f=0.0908  <S**2>=0.000
     309 -> 314        0.63314
     312 -> 315        0.30183

 Excited State   5:      Singlet-A      3.8013 eV  326.16 nm  f=0.0000  <S**2>=0.000
     312 -> 313        0.70710

 The electronic state is 1-A.
 Alpha  occ. eigenvalues --  -46.95399 -46.94582 -19.30226 -19.29608 -19.25168
 Alpha  occ. eigenvalues --  -19.24103 -19.24044 -19.23882 -19.23602 -19.23425
 Alpha  occ. eigenvalues --  -14.46661 -14.46300 -14.46263 -14.46071 -14.44115
 Alpha  occ. eigenvalues --  -14.44041 -14.43876 -14.43872 -10.42751 -10.42725
 Alpha  occ. eigenvalues --  -10.39312 -10.39175 -10.39115 -10.38486 -10.35305
 Alpha  occ. eigenvalues --  -10.35183 -10.35034 -10.34849 -10.34719 -10.34606
 Alpha  occ. eigenvalues --  -10.34557 -10.34416 -10.34356 -10.34282 -10.34101
 Alpha  occ. eigenvalues --  -10.34079 -10.34072 -10.33841 -10.33655 -10.33351
 Alpha  occ. eigenvalues --  -10.32944 -10.32932 -10.32771 -10.32723 -10.32551
 Alpha  occ. eigenvalues --  -10.32484 -10.32479 -10.32477 -10.32268 -10.32130
 Alpha  occ. eigenvalues --  -10.32067 -10.32042 -10.31996 -10.31823 -10.31778
 Alpha  occ. eigenvalues --  -10.31742 -10.31734 -10.31703 -10.31678 -10.31596
 Alpha  occ. eigenvalues --  -10.31552 -10.31522 -10.31501 -10.31310 -10.30813
 Alpha  occ. eigenvalues --  -10.30765 -10.30681 -10.30602 -10.30558 -10.30494
 Alpha  occ. eigenvalues --  -10.30362 -10.30243 -10.30110 -10.30104 -10.30088
 Alpha  occ. eigenvalues --  -10.30032 -10.30016 -10.29874 -10.29824 -10.29675
 Alpha  occ. eigenvalues --  -10.29519 -10.29194 -10.29046 -10.28902 -10.28799
 Alpha  occ. eigenvalues --  -10.28591  -3.21450  -3.20648  -1.95023  -1.94537
 Alpha  occ. eigenvalues --   -1.94465  -1.94240  -1.93790  -1.93608  -1.19762
 Alpha  occ. eigenvalues --   -1.17974  -1.13675  -1.12076  -1.11994  -1.11647
 Alpha  occ. eigenvalues --   -1.10263  -1.07969  -1.07352  -1.07197  -1.06648
 Alpha  occ. eigenvalues --   -1.06114  -1.06061  -1.05459  -1.05086  -1.04065
 Alpha  occ. eigenvalues --   -0.95016  -0.94538  -0.91185  -0.90903  -0.90569
 Alpha  occ. eigenvalues --   -0.90367  -0.90061  -0.90011  -0.89677  -0.89321
 Alpha  occ. eigenvalues --   -0.89221  -0.88372  -0.88322  -0.87571  -0.86168
 Alpha  occ. eigenvalues --   -0.85961  -0.85610  -0.85586  -0.84519  -0.84294
 Alpha  occ. eigenvalues --   -0.83727  -0.83631  -0.83351  -0.83062  -0.82231
 Alpha  occ. eigenvalues --   -0.82222  -0.80308  -0.79915  -0.79357  -0.79241
 Alpha  occ. eigenvalues --   -0.78984  -0.78710  -0.78113  -0.77799  -0.77414
 Alpha  occ. eigenvalues --   -0.77382  -0.75486  -0.74653  -0.73957  -0.73475
 Alpha  occ. eigenvalues --   -0.72149  -0.71502  -0.71164  -0.70839  -0.70059
 Alpha  occ. eigenvalues --   -0.70046  -0.69077  -0.68159  -0.67508  -0.67131
 Alpha  occ. eigenvalues --   -0.67059  -0.66836  -0.66680  -0.66256  -0.66156
 Alpha  occ. eigenvalues --   -0.66101  -0.64324  -0.64184  -0.62454  -0.62155
 Alpha  occ. eigenvalues --   -0.61756  -0.61602  -0.61120  -0.61014  -0.60797
 Alpha  occ. eigenvalues --   -0.60222  -0.60129  -0.59853  -0.59829  -0.59230
 Alpha  occ. eigenvalues --   -0.58189  -0.58098  -0.58077  -0.57609  -0.57280
 Alpha  occ. eigenvalues --   -0.57256  -0.56950  -0.56729  -0.56169  -0.55939
 Alpha  occ. eigenvalues --   -0.55599  -0.55440  -0.55177  -0.55042  -0.54870
 Alpha  occ. eigenvalues --   -0.54696  -0.54439  -0.54290  -0.54180  -0.54121
 Alpha  occ. eigenvalues --   -0.53977  -0.53967  -0.53686  -0.53349  -0.52687
 Alpha  occ. eigenvalues --   -0.52636  -0.52620  -0.52478  -0.52144  -0.52039
 Alpha  occ. eigenvalues --   -0.51880  -0.51752  -0.51596  -0.51467  -0.51414
 Alpha  occ. eigenvalues --   -0.51225  -0.51187  -0.51112  -0.50959  -0.50725
 Alpha  occ. eigenvalues --   -0.50680  -0.50623  -0.50452  -0.50153  -0.50119
 Alpha  occ. eigenvalues --   -0.50053  -0.49873  -0.49726  -0.49537  -0.49453
 Alpha  occ. eigenvalues --   -0.49046  -0.48795  -0.48749  -0.48521  -0.48441
 Alpha  occ. eigenvalues --   -0.48375  -0.48045  -0.47892  -0.47837  -0.47753
 Alpha  occ. eigenvalues --   -0.47730  -0.47508  -0.47183  -0.47141  -0.46916
 Alpha  occ. eigenvalues --   -0.46905  -0.46592  -0.46405  -0.45811  -0.45782
 Alpha  occ. eigenvalues --   -0.45771  -0.45507  -0.45268  -0.45241  -0.45178
 Alpha  occ. eigenvalues --   -0.45118  -0.44883  -0.44877  -0.44825  -0.44604
 Alpha  occ. eigenvalues --   -0.44241  -0.44134  -0.44027  -0.43928  -0.43859
 Alpha  occ. eigenvalues --   -0.43763  -0.43742  -0.43547  -0.43403  -0.43312
 Alpha  occ. eigenvalues --   -0.43179  -0.42982  -0.42826  -0.42443  -0.42091
 Alpha  occ. eigenvalues --   -0.41877  -0.41707  -0.41472  -0.41405  -0.41298
 Alpha  occ. eigenvalues --   -0.40363  -0.40271  -0.40100  -0.39832  -0.39538
 Alpha  occ. eigenvalues --   -0.39226  -0.39142  -0.38610  -0.38355  -0.37993
 Alpha  occ. eigenvalues --   -0.37732  -0.37622  -0.37153  -0.36498  -0.35919
 Alpha  occ. eigenvalues --   -0.35546  -0.35367  -0.35028  -0.33644  -0.33487
 Alpha  occ. eigenvalues --   -0.33199  -0.32996  -0.32981  -0.32478  -0.32399
 Alpha  occ. eigenvalues --   -0.32206  -0.31995  -0.31484  -0.25705  -0.25696
 Alpha  occ. eigenvalues --   -0.23224  -0.22879
 Alpha virt. eigenvalues --   -0.07410  -0.06764   0.00050   0.00777   0.02263
 Alpha virt. eigenvalues --    0.02362   0.04608   0.04740   0.04987   0.06127
 Alpha virt. eigenvalues --    0.06927   0.08023   0.08246   0.08530   0.08606

 Mulliken charges:
               1
     1  Mg   0.974596
     2  C   -0.004359
     3  C   -0.064877
     4  C   -0.065444
     5  C   -0.074885
     6  N   -0.330622
     7  C    0.000597
     8  C   -0.084401
     9  C   -0.117816
    10  C    0.051498
    11  C    0.025247
    12  C    0.010917
    13  C   -0.102380
    14  H    0.032791
    15  N   -0.356592
    16  C    0.129021
    17  C   -0.163713
    18  C   -0.075609
    19  C    0.100172
    20  C    0.082229
    21  C    0.043305
    22  O   -0.246930
    23  C   -0.017046
    24  N   -0.351512
    25  C    0.050147
    26  C   -0.080583
    27  C   -0.041503
    28  C    0.061651
    29  C    0.035324
    30  C   -0.057991
    31  C   -0.043061
    32  N   -0.478594
    33  C    0.099369
    34  C   -0.189134
    35  C    0.040963
    36  C    0.138202
    37  C    0.096935
    38  C    0.037764
    39  O   -0.207929
    40  C   -0.055967
    41  C    0.260156
    42  O   -0.281175
    43  O   -0.359785
    44  C    0.146619
    45  H   -0.010865
    46  H    0.017261
    47  H   -0.000464
    48  H    0.049062
    49  H    0.042584
    50  H    0.031642
    51  H    0.050501
    52  H    0.040659
    53  H    0.012347
    54  H    0.032221
    55  H    0.055936
    56  H    0.054371
    57  H    0.030543
    58  H    0.036812
    59  H    0.063633
    60  H    0.053769
    61  H    0.071547
    62  H    0.050365
    63  H    0.036286
    64  H    0.036896
    65  H    0.036552
    66  H    0.040287
    67  H    0.051483
    68  H    0.029652
    69  H    0.029326
    70  H    0.038391
    71  H    0.037261
    72  H    0.035930
    73  H    0.026376
    74  H    0.066876
    75  H    0.060909
    76  H    0.060639
    77  H    0.053368
    78  H    0.075567
    79  H    0.036682
    80  Mg   0.965907
    81  C   -0.025796
    82  C   -0.077112
    83  C   -0.087958
    84  C   -0.117653
    85  N   -0.288378
    86  C   -0.035814
    87  C   -0.084292
    88  C   -0.089527
    89  C    0.019543
    90  C    0.040464
    91  C    0.000380
    92  C   -0.089343
    93  H    0.044085
    94  N   -0.478721
    95  C    0.175838
    96  C   -0.189383
    97  C   -0.081147
    98  C    0.188666
    99  C    0.062390
   100  C    0.064864
   101  O   -0.213730
   102  C   -0.007273
   103  N   -0.341998
   104  C    0.014365
   105  C   -0.099341
   106  C   -0.054311
   107  C    0.091286
   108  C    0.035521
   109  C   -0.010001
   110  C   -0.072533
   111  N   -0.486587
   112  C    0.144489
   113  C   -0.184368
   114  C   -0.031005
   115  C    0.180600
   116  C    0.067883
   117  C    0.153345
   118  O   -0.233625
   119  C   -0.147506
   120  C    0.242846
   121  O   -0.185810
   122  O   -0.368601
   123  C    0.110447
   124  H    0.003736
   125  H    0.009616
   126  H   -0.005439
   127  H    0.019601
   128  H    0.022892
   129  H    0.039803
   130  H    0.043901
   131  H    0.040348
   132  H    0.025748
   133  H    0.065952
   134  H    0.042688
   135  H    0.038149
   136  H    0.059037
   137  H    0.057740
   138  H    0.030210
   139  H    0.058126
   140  H    0.020554
   141  H    0.069233
   142  H    0.047932
   143  H    0.031259
   144  H    0.046325
   145  H    0.047877
   146  H    0.054226
   147  H    0.029211
   148  H    0.040739
   149  H    0.032752
   150  H    0.032895
   151  H    0.039551
   152  H    0.062358
   153  H    0.042971
   154  H    0.047464
   155  H    0.085757
   156  H    0.070162
   157  H    0.062592
   158  H    0.062924
 Sum of Mulliken charges =  -0.00000

 Dipole moment (field-independent basis, Debye):
    X=              1.3771    Y=              1.0115    Z=              3.7281  Tot=              4.1010
 Quadrupole moment (field-independent basis, Debye-Ang):
   XX=           -284.6179   YY=           -470.7624   ZZ=           -497.5048
   XY=             40.7276   XZ=            -41.9016   YZ=             34.5268

 Normal termination of Gaussian 16 at Mon Sep 20 19:15:09 2021.
