 Gaussian 16, Revision A.03,
 Gaussian 16:  ES64L-G16RevA.03 25-Dec-2016

 --------------------------------
 #p wB97XD/Def2SVP td=(nstates=5)
 --------------------------------

 --------------------------------
 TDDFT excited states in gaussian
 --------------------------------
 Symbolic Z-matrix:
 Charge =  0 Multiplicity = 1

                         Standard orientation:
 ---------------------------------------------------------------------
 Center     Atomic      Atomic             Coordinates (Angstroms)
 Number     Number       Type             X           Y           Z
 ---------------------------------------------------------------------
      1         12           0      -17.242369   -0.918418    0.155160
      2          6           0      -17.521010    2.360550   -1.029602
      3          6           0      -17.054700    0.456219    3.335278
      4          6           0      -16.554527   -3.908719    1.230449
      5          6           0      -17.229769   -2.030304   -3.207462
      6          7           0      -16.878331    1.241226    1.035087
      7          6           0      -17.200073    2.355144    0.369439
      8          6           0      -17.169185    3.488889    1.339140
      9          6           0      -16.581823    2.889933    2.640611
     10          6           0      -16.869582    1.427439    2.364730
     11          6           0      -15.122905    3.159701    3.013099
     12          6           0      -18.588315    4.098798    1.569230
     13          6           0      -18.771605    5.648094    1.476130
     14          1           0      -17.578538    6.579617    1.855939
     15          7           0      -16.997759   -1.665914    2.085231
     16          6           0      -17.150131   -0.927579    3.251339
     17          6           0      -17.043354   -1.851610    4.333163
     18          6           0      -16.760536   -3.153428    3.754519
     19          6           0      -16.766962   -2.981562    2.309422
     20          6           0      -17.085087   -1.462561    5.827150
     21          6           0      -16.431316   -4.504000    4.453156
     22          8           0      -16.193216   -5.519174    3.879444
     23          6           0      -16.490836   -4.499307    5.968023
     24          7           0      -16.956719   -2.682757   -0.871598
     25          6           0      -16.612186   -3.795523   -0.185719
     26          6           0      -16.407752   -5.049353   -1.079974
     27          6           0      -16.898481   -4.470420   -2.476019
     28          6           0      -17.074049   -2.981251   -2.203265
     29          6           0      -14.853063   -5.555055   -1.018005
     30          6           0      -18.124029   -5.229253   -3.075194
     31          6           0      -19.502521   -4.628362   -2.866298
     32          7           0      -17.389007   -0.075239   -1.792911
     33          6           0      -17.457898   -0.653035   -3.031847
     34          6           0      -17.651737    0.440366   -4.047831
     35          6           0      -17.681077    1.628757   -3.283581
     36          6           0      -17.476385    1.292681   -1.904391
     37          6           0      -17.620175    0.321368   -5.547377
     38          6           0      -17.811714    3.082222   -3.350165
     39          8           0      -17.959322    3.786103   -4.353329
     40          6           0      -17.873973    3.556649   -1.901338
     41          6           0      -16.871794    4.670192   -1.794898
     42          8           0      -15.666608    4.523169   -1.705893
     43          8           0      -17.548838    5.785856   -2.011540
     44          6           0      -16.805829    6.981399   -2.377803
     45          1           0      -16.851741    0.886555    4.317691
     46          1           0      -16.505334   -4.942126    1.578987
     47          1           0      -17.240926   -2.376305   -4.243433
     48          1           0      -16.532773    4.274874    0.933799
     49          1           0      -17.153669    3.330823    3.457237
     50          1           0      -14.565754    3.816541    2.344847
     51          1           0      -14.573306    2.220932    3.087511
     52          1           0      -15.145959    3.617936    4.001583
     53          1           0      -19.069886    3.748010    2.481755
     54          1           0      -19.115671    3.617300    0.745844
     55          1           0      -19.594723    5.845183    2.164117
     56          1           0      -19.079127    5.900149    0.461561
     57          1           0      -16.228672   -1.830554    6.392244
     58          1           0      -17.914533   -1.933979    6.354525
     59          1           0      -17.180281   -0.391894    6.012786
     60          1           0      -17.422367   -4.084281    6.353423
     61          1           0      -15.610491   -3.972511    6.336445
     62          1           0      -16.307947   -5.500920    6.357110
     63          1           0      -17.030337   -5.889045   -0.771579
     64          1           0      -16.160678   -4.587616   -3.269626
     65          1           0      -14.445754   -5.290490   -1.993908
     66          1           0      -14.749819   -6.640041   -0.990838
     67          1           0      -14.240290   -5.022217   -0.290015
     68          1           0      -18.157911   -6.156613   -2.503223
     69          1           0      -17.986512   -5.480918   -4.126592
     70          1           0      -19.496739   -4.316006   -1.821316
     71          1           0      -20.139783   -5.489322   -3.066794
     72          1           0      -19.805173   -3.725813   -3.396626
     73          1           0      -17.365565   -0.641364   -5.990677
     74          1           0      -16.891081    1.026704   -5.946406
     75          1           0      -18.591346    0.687224   -5.879166
     76          1           0      -18.798910    4.063598   -1.625686
     77          1           0      -15.733603    6.923401   -2.562318
     78          1           0      -16.900369    7.599912   -1.484748
     79          1           0      -17.453725    7.608010   -2.990862
     80         12           0       17.673422   -0.495608    0.243259
     81          6           0       15.117119    1.949331    0.198649
     82          6           0       19.839203    1.970671    0.236634
     83          6           0       19.867798   -2.755186   -0.762249
     84          6           0       15.098295   -2.843488   -0.452839
     85          7           0       17.389572    1.746465    0.398218
     86          6           0       16.349773    2.496280    0.451967
     87          6           0       16.732991    3.942178    0.828815
     88          6           0       18.274393    4.040347    0.364086
     89          6           0       18.537929    2.481767    0.243440
     90          6           0       18.559550    4.822322   -0.978816
     91          6           0       16.637017    4.162426    2.427929
     92          6           0       16.229259    5.553036    3.013646
     93          1           0       16.600274    6.809535    2.142777
     94          7           0       19.635874   -0.452433   -0.001382
     95          6           0       20.374611    0.716153    0.107359
     96          6           0       21.824736    0.379401   -0.116218
     97          6           0       21.819376   -1.054028   -0.379124
     98          6           0       20.442445   -1.554336   -0.413742
     99          6           0       22.895180    1.454045   -0.089658
    100          6           0       23.023899   -1.943908   -0.593560
    101          8           0       22.967884   -3.153137   -0.857057
    102          6           0       24.370402   -1.359869   -0.447577
    103          7           0       17.505924   -2.620392   -0.427103
    104          6           0       18.590718   -3.264426   -0.818039
    105          6           0       18.284956   -4.823027   -0.943449
    106          6           0       16.663514   -4.799403   -0.857125
    107          6           0       16.403108   -3.333570   -0.520685
    108          6           0       18.887866   -5.486083   -2.225808
    109          6           0       15.968168   -5.757488    0.164940
    110          6           0       15.165097   -6.898843   -0.404110
    111          7           0       15.492376   -0.551365    0.136168
    112          6           0       14.642268   -1.599300   -0.156300
    113          6           0       13.324247   -1.131794   -0.272187
    114          6           0       13.474966    0.264839   -0.180035
    115          6           0       14.789134    0.607886    0.033012
    116          6           0       12.121460   -1.893466   -0.521907
    117          6           0       12.693084    1.439308   -0.141883
    118          8           0       11.460738    1.706639   -0.148026
    119          6           0       13.770155    2.615027   -0.166906
    120          6           0       13.363050    3.706436    0.753658
    121          8           0       13.232364    3.654972    1.974885
    122          8           0       13.253932    4.898110   -0.030303
    123          6           0       12.848603    6.124322    0.668619
    124          1           0       20.517687    2.815535    0.375099
    125          1           0       20.613122   -3.505129   -1.032881
    126          1           0       14.306825   -3.584363   -0.588726
    127          1           0       16.224719    4.599416    0.123744
    128          1           0       18.815898    4.625933    1.106235
    129          1           0       17.646094    5.010152   -1.542692
    130          1           0       19.186031    4.242243   -1.656181
    131          1           0       19.020426    5.763600   -0.679539
    132          1           0       17.560420    3.854045    2.918411
    133          1           0       15.939332    3.425127    2.825573
    134          1           0       16.654617    5.756924    3.996821
    135          1           0       15.141187    5.605056    2.958521
    136          1           0       23.772532    1.146334    0.480397
    137          1           0       22.540793    2.402993    0.312904
    138          1           0       23.113702    1.768595   -1.109853
    139          1           0       24.515172   -0.527640   -1.137022
    140          1           0       25.126051   -2.123630   -0.631575
    141          1           0       24.619418   -0.991707    0.547689
    142          1           0       18.619807   -5.388183   -0.073712
    143          1           0       16.198997   -4.867932   -1.841910
    144          1           0       19.334782   -4.728823   -2.870205
    145          1           0       18.021726   -6.037391   -2.592375
    146          1           0       19.578006   -6.256444   -1.884227
    147          1           0       15.278926   -5.153673    0.755653
    148          1           0       16.713449   -6.152222    0.855768
    149          1           0       15.408774   -6.869172   -1.465282
    150          1           0       14.109405   -6.648721   -0.292766
    151          1           0       15.458008   -7.872507   -0.013277
    152          1           0       12.102943   -2.698157    0.212612
    153          1           0       12.119655   -2.501111   -1.426865
    154          1           0       11.248669   -1.253863   -0.389276
    155          1           0       13.835102    2.991987   -1.188084
    156          1           0       12.712404    6.943909   -0.037434
    157          1           0       13.689654    6.473251    1.268059
    158          1           0       11.893110    5.954349    1.163726
 ---------------------------------------------------------------------

 SCF Done:  E(RwB97XD) =  -4070.57437250     A.U. after   19 cycles

 Excitation energies and oscillator strengths:

 Excited State   1:      Singlet-A      1.6770 eV  739.30 nm  f=0.3948  <S**2>=0.000
     310 -> 316        0.19187
     312 -> 314        0.68165
     310 <- 316        0.11865
 This state for optimization and/or second-order correction.
 Total Energy, E(TD-HF/TD-DFT) =  -4070.51274225
 Copying the excited state density for this state as the 1-particle RhoCI density.

 Excited State   2:      Singlet-A      1.7434 eV  711.16 nm  f=0.3645  <S**2>=0.000
     309 -> 315        0.21769
     311 -> 313        0.67307
     309 <- 315        0.11923

 Excited State   3:      Singlet-A      2.1598 eV  574.05 nm  f=0.0942  <S**2>=0.000
     310 -> 314        0.64010
     312 -> 316       -0.28497

 Excited State   4:      Singlet-A      2.1695 eV  571.50 nm  f=0.0812  <S**2>=0.000
     309 -> 313        0.62741
     311 -> 315       -0.30970

 Excited State   5:      Singlet-A      3.3072 eV  374.90 nm  f=0.0357  <S**2>=0.000
     304 -> 313        0.13275
     307 -> 313        0.60491
     311 -> 315        0.28111

 The electronic state is 1-A.
 Alpha  occ. eigenvalues --  -46.95720 -46.95074 -19.31454 -19.29171 -19.25139
 Alpha  occ. eigenvalues --  -19.24583 -19.24500 -19.24022 -19.23520 -19.23510
 Alpha  occ. eigenvalues --  -14.46706 -14.46304 -14.46285 -14.46132 -14.44601
 Alpha  occ. eigenvalues --  -14.43902 -14.43244 -14.43169 -10.43150 -10.42985
 Alpha  occ. eigenvalues --  -10.39508 -10.39080 -10.38514 -10.38337 -10.35768
 Alpha  occ. eigenvalues --  -10.35571 -10.35268 -10.35084 -10.35015 -10.34822
 Alpha  occ. eigenvalues --  -10.34793 -10.34731 -10.34700 -10.34691 -10.34624
 Alpha  occ. eigenvalues --  -10.34429 -10.34274 -10.33645 -10.33575 -10.33481
 Alpha  occ. eigenvalues --  -10.33433 -10.33307 -10.33297 -10.32862 -10.32747
 Alpha  occ. eigenvalues --  -10.32713 -10.32549 -10.32503 -10.32383 -10.32373
 Alpha  occ. eigenvalues --  -10.32352 -10.32349 -10.32332 -10.32081 -10.31958
 Alpha  occ. eigenvalues --  -10.31872 -10.31647 -10.31646 -10.31569 -10.31567
 Alpha  occ. eigenvalues --  -10.31457 -10.31135 -10.31068 -10.30998 -10.30986
 Alpha  occ. eigenvalues --  -10.30664 -10.30573 -10.30546 -10.30395 -10.30373
 Alpha  occ. eigenvalues --  -10.30284 -10.30229 -10.30221 -10.30157 -10.30057
 Alpha  occ. eigenvalues --  -10.29896 -10.29886 -10.29781 -10.29747 -10.29681
 Alpha  occ. eigenvalues --  -10.29659 -10.29206 -10.29152 -10.28984 -10.28847
 Alpha  occ. eigenvalues --  -10.28661  -3.21631  -3.20980  -1.95222  -1.94763
 Alpha  occ. eigenvalues --   -1.94579  -1.94576  -1.94138  -1.93908  -1.20512
 Alpha  occ. eigenvalues --   -1.16100  -1.13465  -1.11870  -1.11624  -1.10842
 Alpha  occ. eigenvalues --   -1.09497  -1.08923  -1.07784  -1.07207  -1.06971
 Alpha  occ. eigenvalues --   -1.05727  -1.05543  -1.04623  -1.03804  -1.03503
 Alpha  occ. eigenvalues --   -0.95354  -0.94944  -0.91415  -0.90540  -0.90510
 Alpha  occ. eigenvalues --   -0.90433  -0.89881  -0.89792  -0.89474  -0.89259
 Alpha  occ. eigenvalues --   -0.88976  -0.88848  -0.88181  -0.87379  -0.86329
 Alpha  occ. eigenvalues --   -0.86208  -0.85861  -0.85564  -0.84638  -0.84455
 Alpha  occ. eigenvalues --   -0.83946  -0.83440  -0.83296  -0.82650  -0.82623
 Alpha  occ. eigenvalues --   -0.81908  -0.80931  -0.79824  -0.79642  -0.79257
 Alpha  occ. eigenvalues --   -0.78883  -0.78855  -0.78175  -0.77819  -0.77162
 Alpha  occ. eigenvalues --   -0.76981  -0.75214  -0.74640  -0.74239  -0.73639
 Alpha  occ. eigenvalues --   -0.71412  -0.70933  -0.70836  -0.70497  -0.69948
 Alpha  occ. eigenvalues --   -0.69884  -0.69199  -0.68012  -0.67881  -0.67572
 Alpha  occ. eigenvalues --   -0.67547  -0.67193  -0.66854  -0.66587  -0.66574
 Alpha  occ. eigenvalues --   -0.66284  -0.64761  -0.63249  -0.62538  -0.62115
 Alpha  occ. eigenvalues --   -0.61783  -0.61600  -0.61290  -0.61126  -0.60429
 Alpha  occ. eigenvalues --   -0.60344  -0.60052  -0.59715  -0.59287  -0.59251
 Alpha  occ. eigenvalues --   -0.58956  -0.58784  -0.57950  -0.57749  -0.57400
 Alpha  occ. eigenvalues --   -0.56865  -0.56692  -0.56593  -0.56300  -0.55732
 Alpha  occ. eigenvalues --   -0.55538  -0.55464  -0.55156  -0.55106  -0.54875
 Alpha  occ. eigenvalues --   -0.54779  -0.54548  -0.54398  -0.54393  -0.54178
 Alpha  occ. eigenvalues --   -0.53844  -0.53556  -0.53451  -0.53288  -0.53091
 Alpha  occ. eigenvalues --   -0.53073  -0.52945  -0.52835  -0.52500  -0.52256
 Alpha  occ. eigenvalues --   -0.52079  -0.51827  -0.51572  -0.51488  -0.51269
 Alpha  occ. eigenvalues --   -0.51099  -0.51053  -0.50730  -0.50705  -0.50609
 Alpha  occ. eigenvalues --   -0.50575  -0.50302  -0.50259  -0.49961  -0.49949
 Alpha  occ. eigenvalues --   -0.49835  -0.49720  -0.49555  -0.49237  -0.49205
 Alpha  occ. eigenvalues --   -0.48997  -0.48764  -0.48718  -0.48269  -0.48237
 Alpha  occ. eigenvalues --   -0.48044  -0.47875  -0.47780  -0.47740  -0.47546
 Alpha  occ. eigenvalues --   -0.47513  -0.47481  -0.47283  -0.47270  -0.46903
 Alpha  occ. eigenvalues --   -0.46861  -0.46695  -0.46374  -0.46180  -0.45892
 Alpha  occ. eigenvalues --   -0.45842  -0.45654  -0.45489  -0.45275  -0.45232
 Alpha  occ. eigenvalues --   -0.45115  -0.44977  -0.44911  -0.44849  -0.44584
 Alpha  occ. eigenvalues --   -0.44546  -0.44051  -0.43880  -0.43657  -0.43611
 Alpha  occ. eigenvalues --   -0.43567  -0.43493  -0.43104  -0.43055  -0.42940
 Alpha  occ. eigenvalues --   -0.42899  -0.42648  -0.42547  -0.42525  -0.42227
 Alpha  occ. eigenvalues --   -0.42111  -0.41967  -0.41484  -0.41144  -0.40945
 Alpha  occ. eigenvalues --   -0.40412  -0.40238  -0.39900  -0.39399  -0.39137
 Alpha  occ. eigenvalues --   -0.38971  -0.38734  -0.38387  -0.38372  -0.38094
 Alpha  occ. eigenvalues --   -0.38087  -0.37604  -0.36574  -0.36360  -0.36035
 Alpha  occ. eigenvalues --   -0.35886  -0.35628  -0.35288  -0.34006  -0.33397
 Alpha  occ. eigenvalues --   -0.33219  -0.32950  -0.32609  -0.32299  -0.32225
 Alpha  occ. eigenvalues --   -0.32100  -0.31457  -0.31022  -0.26082  -0.25666
 Alpha  occ. eigenvalues --   -0.23484  -0.22827
 Alpha virt. eigenvalues --   -0.06956  -0.06779  -0.00726   0.00448   0.01826
 Alpha virt. eigenvalues --    0.02268   0.04366   0.05040   0.05441   0.05939
 Alpha virt. eigenvalues --    0.06752   0.07745   0.07870   0.07919   0.08133

 Mulliken charges:
               1
     1  Mg   0.943544
     2  C   -0.009936
     3  C   -0.053467
     4  C   -0.049884
     5  C   -0.089431
     6  N   -0.281282
     7  C    0.032732
     8  C   -0.102528
     9  C   -0.079092
    10  C   -0.023275
    11  C    0.044024
    12  C   -0.008028
    13  C   -0.108837
    14  H    0.034784
    15  N   -0.486411
    16  C    0.194079
    17  C   -0.162169
    18  C   -0.110845
    19  C    0.127679
    20  C    0.067001
    21  C    0.057661
    22  O   -0.197975
    23  C   -0.025158
    24  N   -0.388214
    25  C    0.068382
    26  C   -0.106338
    27  C   -0.051991
    28  C    0.081239
    29  C    0.014966
    30  C   -0.034368
    31  C   -0.035099
    32  N   -0.431033
    33  C    0.126549
    34  C   -0.181600
    35  C   -0.031545
    36  C    0.144790
    37  C    0.071999
    38  C    0.142833
    39  O   -0.213902
    40  C   -0.092742
    41  C    0.223784
    42  O   -0.247734
    43  O   -0.327132
    44  C    0.146655
    45  H   -0.006186
    46  H    0.024673
    47  H   -0.006569
    48  H    0.040547
    49  H    0.020959
    50  H    0.047062
    51  H    0.041577
    52  H    0.029966
    53  H    0.038424
    54  H    0.025549
    55  H    0.052939
    56  H    0.060516
    57  H    0.037156
    58  H    0.040562
    59  H    0.034196
    60  H    0.057373
    61  H    0.052260
    62  H    0.039897
    63  H    0.049955
    64  H    0.031442
    65  H    0.019169
    66  H    0.045858
    67  H    0.059072
    68  H    0.022728
    69  H    0.029603
    70  H    0.030060
    71  H    0.044225
    72  H    0.041657
    73  H    0.038398
    74  H    0.061923
    75  H    0.059338
    76  H    0.073352
    77  H    0.085569
    78  H    0.026924
    79  H    0.057137
    80  Mg   0.950719
    81  C   -0.001592
    82  C   -0.092558
    83  C   -0.057226
    84  C   -0.097676
    85  N   -0.289295
    86  C   -0.079912
    87  C   -0.022091
    88  C   -0.152187
    89  C    0.044854
    90  C    0.020213
    91  C    0.019282
    92  C   -0.121937
    93  H   -0.003195
    94  N   -0.573526
    95  C    0.230515
    96  C   -0.157418
    97  C   -0.064108
    98  C    0.176480
    99  C    0.067711
   100  C    0.057044
   101  O   -0.243293
   102  C   -0.029375
   103  N   -0.281854
   104  C    0.040660
   105  C   -0.118733
   106  C   -0.082448
   107  C    0.022917
   108  C    0.039323
   109  C   -0.018080
   110  C   -0.035010
   111  N   -0.420980
   112  C    0.154619
   113  C   -0.152092
   114  C   -0.029554
   115  C    0.146275
   116  C    0.092531
   117  C    0.133309
   118  O   -0.250559
   119  C   -0.095294
   120  C    0.288738
   121  O   -0.246493
   122  O   -0.409257
   123  C    0.146591
   124  H   -0.006554
   125  H    0.019221
   126  H   -0.015373
   127  H    0.025041
   128  H    0.044081
   129  H    0.036959
   130  H    0.039603
   131  H    0.044084
   132  H    0.028259
   133  H    0.057683
   134  H    0.065738
   135  H    0.078879
   136  H    0.055748
   137  H    0.031512
   138  H    0.060636
   139  H    0.053840
   140  H    0.050824
   141  H    0.060027
   142  H    0.047705
   143  H    0.033940
   144  H    0.061747
   145  H    0.029007
   146  H    0.039245
   147  H    0.034208
   148  H    0.025048
   149  H    0.022690
   150  H    0.040477
   151  H    0.046560
   152  H    0.029902
   153  H    0.045588
   154  H    0.072021
   155  H    0.082487
   156  H    0.044130
   157  H    0.042273
   158  H    0.066728
 Sum of Mulliken charges =  -0.00000

 Dipole moment (field-independent basis, Debye):
    X=              2.7901    Y=              1.8338    Z=              1.3944  Tot=              3.6183
 Quadrupole moment (field-independent basis, Debye-Ang):
   XX=           -313.6583   YY=           -472.4187   ZZ=           -498.4679
   XY=             21.3363   XZ=            -18.7557   YZ=             26.5673

 Normal termination of Gaussian 16 at Mon Sep 20 19:25:28 2021.
