 Gaussian 16, Revision A.03,
 Gaussian 16:  ES64L-G16RevA.03 25-Dec-2016

 --------------------------------
 #p wB97XD/Def2SVP td=(nstates=5)
 --------------------------------

 --------------------------------
 TDDFT excited states in gaussian
 --------------------------------
 Symbolic Z-matrix:
 Charge =  0 Multiplicity = 1

                         Standard orientation:
 ---------------------------------------------------------------------
 Center     Atomic      Atomic             Coordinates (Angstroms)
 Number     Number       Type             X           Y           Z
 ---------------------------------------------------------------------
      1         12           0      -24.752514    0.453839   -0.045737
      2          6           0      -21.702758   -1.096000    0.538528
      3          6           0      -26.308266   -2.536979    0.047881
      4          6           0      -27.603550    2.042494   -0.789140
      5          6           0      -23.025266    3.490501   -0.285059
      6          7           0      -24.005135   -1.572948    0.299285
      7          6           0      -22.792377   -1.971045    0.600927
      8          6           0      -22.851294   -3.548707    0.847871
      9          6           0      -24.026953   -3.861565   -0.053464
     10          6           0      -24.895993   -2.576129    0.124719
     11          6           0      -23.537879   -4.161299   -1.486878
     12          6           0      -22.885737   -3.871881    2.403387
     13          6           0      -22.468436   -5.300068    2.767408
     14          1           0      -22.300719   -6.319900    1.654305
     15          7           0      -26.687742   -0.126690   -0.152631
     16          6           0      -27.140022   -1.435484   -0.002176
     17          6           0      -28.631314   -1.390131    0.069573
     18          6           0      -29.044028   -0.026265   -0.246743
     19          6           0      -27.734017    0.637720   -0.480033
     20          6           0      -29.474352   -2.610742    0.353520
     21          6           0      -30.488522    0.655965   -0.294375
     22          8           0      -30.672013    1.859000   -0.508673
     23          6           0      -31.672519   -0.253165   -0.038948
     24          7           0      -25.220104    2.399346   -0.573197
     25          6           0      -26.452219    2.818498   -0.848781
     26          6           0      -26.495892    4.309624   -1.304792
     27          6           0      -25.087199    4.757915   -0.889875
     28          6           0      -24.386383    3.495599   -0.496554
     29          6           0      -26.821408    4.519066   -2.810070
     30          6           0      -24.947438    5.984806    0.117119
     31          6           0      -24.608732    5.674024    1.538010
     32          7           0      -22.763395    1.092211   -0.116404
     33          6           0      -22.217021    2.330864   -0.149955
     34          6           0      -20.798886    2.318300   -0.089361
     35          6           0      -20.524458    0.943805    0.196217
     36          6           0      -21.746983    0.312662    0.164361
     37          6           0      -19.732871    3.371243   -0.247916
     38          6           0      -19.529712   -0.045712    0.485599
     39          8           0      -18.324076    0.022700    0.590699
     40          6           0      -20.233468   -1.384046    0.877335
     41          6           0      -19.648799   -2.488802    0.111307
     42          8           0      -19.695203   -2.536730   -1.108499
     43          8           0      -18.877770   -3.385292    0.894631
     44          6           0      -18.172203   -4.444702    0.156634
     45          1           0      -26.763521   -3.528018    0.019382
     46          1           0      -28.542365    2.522204   -1.070971
     47          1           0      -22.516489    4.447529   -0.415475
     48          1           0      -21.922964   -4.008631    0.511776
     49          1           0      -24.660020   -4.675315    0.299398
     50          1           0      -23.776415   -5.220201   -1.592058
     51          1           0      -22.467354   -3.995922   -1.615181
     52          1           0      -24.200823   -3.605685   -2.149760
     53          1           0      -23.892853   -3.724101    2.794254
     54          1           0      -22.135769   -3.212890    2.841480
     55          1           0      -23.208118   -5.666981    3.478324
     56          1           0      -21.530048   -5.221988    3.315890
     57          1           0      -28.966835   -3.296277    1.033133
     58          1           0      -29.813257   -3.191123   -0.504005
     59          1           0      -30.363819   -2.293257    0.897515
     60          1           0      -31.514721   -1.075001   -0.736965
     61          1           0      -32.640619    0.181146   -0.286775
     62          1           0      -31.698545   -0.538933    1.012732
     63          1           0      -27.255186    4.869750   -0.759268
     64          1           0      -24.570746    4.980683   -1.822836
     65          1           0      -26.130576    5.294344   -3.142317
     66          1           0      -27.845738    4.790010   -3.061147
     67          1           0      -26.672418    3.565663   -3.317020
     68          1           0      -25.840477    6.603695    0.029422
     69          1           0      -24.094934    6.592496   -0.185422
     70          1           0      -23.601865    6.049928    1.721251
     71          1           0      -24.451546    4.621374    1.776424
     72          1           0      -25.255200    6.153403    2.273194
     73          1           0      -20.143440    4.337746   -0.542277
     74          1           0      -18.955356    2.989928   -0.910497
     75          1           0      -19.218106    3.683015    0.661138
     76          1           0      -20.122043   -1.604446    1.938659
     77          1           0      -17.730018   -5.223228    0.777813
     78          1           0      -17.397268   -3.895444   -0.378746
     79          1           0      -18.892077   -4.814975   -0.572337
     80         12           0       24.820258   -0.087929    0.174587
     81          6           0       21.458678   -0.840993   -0.300900
     82          6           0       25.248625   -0.339427   -3.257166
     83          6           0       27.878150    1.144292    0.411518
     84          6           0       24.164151    0.621250    3.498007
     85          7           0       23.491733   -0.374167   -1.584216
     86          6           0       22.181352   -0.802517   -1.526673
     87          6           0       21.640600   -1.204303   -2.866994
     88          6           0       22.979165   -1.393681   -3.708228
     89          6           0       23.977113   -0.632845   -2.845392
     90          6           0       23.434844   -2.822859   -4.271166
     91          6           0       20.553160   -0.213045   -3.492207
     92          6           0       20.683997    1.304606   -3.166546
     93          1           0       20.416855    2.216661   -4.339743
     94          7           0       26.327681    0.460009   -1.239260
     95          6           0       26.308353    0.256429   -2.624684
     96          6           0       27.494382    0.773570   -3.250416
     97          6           0       28.295780    1.247381   -2.184421
     98          6           0       27.527813    1.001268   -0.927596
     99          6           0       27.774870    0.487096   -4.726456
    100          6           0       29.699484    1.847738   -2.425913
    101          8           0       30.147465    2.031020   -3.562348
    102          6           0       30.492480    2.135327   -1.221096
    103          7           0       25.777684    0.864200    1.739904
    104          6           0       27.149388    1.025928    1.641137
    105          6           0       27.809809    1.404523    2.985093
    106          6           0       26.502435    1.444391    3.878048
    107          6           0       25.413122    1.006918    3.003391
    108          6           0       28.880191    0.526147    3.551821
    109          6           0       26.172183    2.917710    4.442577
    110          6           0       25.830238    2.872714    5.909046
    111          7           0       23.197699   -0.276015    1.468491
    112          6           0       23.083538    0.056151    2.805702
    113          6           0       21.704189   -0.208752    3.274780
    114          6           0       21.019284   -0.573908    2.063843
    115          6           0       21.970167   -0.586401    1.036727
    116          6           0       21.052539    0.107848    4.559290
    117          6           0       19.727282   -0.891103    1.418952
    118          8           0       18.615537   -0.901852    1.894656
    119          6           0       19.968032   -1.113243   -0.108964
    120          6           0       19.485990   -2.434762   -0.512369
    121          8           0       18.602256   -2.745447   -1.311432
    122          8           0       20.027617   -3.367518    0.410574
    123          6           0       19.704387   -4.785384    0.143202
    124          1           0       25.396128   -0.672821   -4.287008
    125          1           0       28.919862    1.375021    0.643506
    126          1           0       24.082479    0.800828    4.571481
    127          1           0       21.103712   -2.149634   -2.789018
    128          1           0       22.754581   -0.768791   -4.572987
    129          1           0       22.726921   -3.638397   -4.124438
    130          1           0       24.337818   -3.212530   -3.801351
    131          1           0       23.471838   -2.783265   -5.360166
    132          1           0       19.545057   -0.560074   -3.267885
    133          1           0       20.615551   -0.343480   -4.572549
    134          1           0       21.665853    1.525174   -2.746614
    135          1           0       19.955263    1.582086   -2.405432
    136          1           0       28.349409    1.268335   -5.225125
    137          1           0       26.832535    0.479241   -5.273595
    138          1           0       28.342942   -0.443317   -4.743298
    139          1           0       30.788545    1.189465   -0.768433
    140          1           0       29.914568    2.761678   -0.540811
    141          1           0       31.373180    2.664409   -1.585044
    142          1           0       28.105319    2.451777    2.917429
    143          1           0       26.667280    0.616506    4.567609
    144          1           0       29.033473    0.869664    4.574989
    145          1           0       29.803589    0.771393    3.027105
    146          1           0       28.602526   -0.524341    3.457557
    147          1           0       25.363284    3.307649    3.824870
    148          1           0       26.920473    3.693263    4.274406
    149          1           0       24.769762    3.102029    6.010683
    150          1           0       26.247017    3.717327    6.458710
    151          1           0       25.959493    1.858866    6.287318
    152          1           0       21.688704    0.574059    5.313117
    153          1           0       20.745369   -0.849041    4.979892
    154          1           0       20.361927    0.887556    4.238655
    155          1           0       19.399699   -0.318413   -0.591452
    156          1           0       20.673947   -5.265568    0.280279
    157          1           0       19.303636   -5.099198   -0.820696
    158          1           0       19.148389   -5.104869    1.024814
 ---------------------------------------------------------------------

 SCF Done:  E(RwB97XD) =  -4070.61945668     A.U. after   20 cycles

 Excitation energies and oscillator strengths:

 Excited State   1:      Singlet-A      1.6615 eV  746.23 nm  f=0.3789  <S**2>=0.000
     309 -> 315        0.18776
     312 -> 314        0.68143
     309 <- 315        0.11476
 This state for optimization and/or second-order correction.
 Total Energy, E(TD-HF/TD-DFT) =  -4070.55839847
 Copying the excited state density for this state as the 1-particle RhoCI density.

 Excited State   2:      Singlet-A      1.6903 eV  733.51 nm  f=0.3844  <S**2>=0.000
     310 -> 316        0.18170
     311 -> 313        0.68413
     310 <- 316        0.11474

 Excited State   3:      Singlet-A      2.1479 eV  577.24 nm  f=0.0864  <S**2>=0.000
     309 -> 314        0.62823
     312 -> 315       -0.30710

 Excited State   4:      Singlet-A      2.1645 eV  572.82 nm  f=0.1458  <S**2>=0.000
     310 -> 313        0.65220
     311 -> 316       -0.26037

 Excited State   5:      Singlet-A      3.4234 eV  362.16 nm  f=0.0671  <S**2>=0.000
     305 -> 314       -0.14635
     307 -> 314        0.61992
     312 -> 315        0.24522

 The electronic state is 1-A.
 Alpha  occ. eigenvalues --  -46.95428 -46.94092 -19.29551 -19.29113 -19.25551
 Alpha  occ. eigenvalues --  -19.25460 -19.24372 -19.24038 -19.23848 -19.22885
 Alpha  occ. eigenvalues --  -14.46820 -14.46762 -14.46585 -14.46004 -14.44728
 Alpha  occ. eigenvalues --  -14.44238 -14.43748 -14.43170 -10.43572 -10.42689
 Alpha  occ. eigenvalues --  -10.41271 -10.39116 -10.39054 -10.38049 -10.35663
 Alpha  occ. eigenvalues --  -10.35386 -10.35228 -10.35186 -10.35112 -10.34996
 Alpha  occ. eigenvalues --  -10.34755 -10.34708 -10.34641 -10.34622 -10.34551
 Alpha  occ. eigenvalues --  -10.34426 -10.34116 -10.34060 -10.33772 -10.33371
 Alpha  occ. eigenvalues --  -10.33210 -10.32921 -10.32772 -10.32726 -10.32590
 Alpha  occ. eigenvalues --  -10.32589 -10.32545 -10.32350 -10.32348 -10.32292
 Alpha  occ. eigenvalues --  -10.32249 -10.32244 -10.32090 -10.32020 -10.32006
 Alpha  occ. eigenvalues --  -10.31993 -10.31697 -10.31617 -10.31569 -10.31567
 Alpha  occ. eigenvalues --  -10.31401 -10.31317 -10.31248 -10.31182 -10.31069
 Alpha  occ. eigenvalues --  -10.31061 -10.30988 -10.30956 -10.30840 -10.30805
 Alpha  occ. eigenvalues --  -10.30755 -10.30717 -10.30209 -10.30054 -10.30040
 Alpha  occ. eigenvalues --  -10.29881 -10.29877 -10.29828 -10.29612 -10.29575
 Alpha  occ. eigenvalues --  -10.29557 -10.29543 -10.29503 -10.29419 -10.28272
 Alpha  occ. eigenvalues --  -10.28145  -3.21397  -3.20258  -1.94969  -1.94535
 Alpha  occ. eigenvalues --   -1.94359  -1.93867  -1.93353  -1.93282  -1.16943
 Alpha  occ. eigenvalues --   -1.16601  -1.12744  -1.12582  -1.11747  -1.11571
 Alpha  occ. eigenvalues --   -1.09083  -1.08906  -1.07559  -1.07037  -1.06715
 Alpha  occ. eigenvalues --   -1.06150  -1.05699  -1.05210  -1.05194  -1.04367
 Alpha  occ. eigenvalues --   -0.94406  -0.94062  -0.91484  -0.91142  -0.91069
 Alpha  occ. eigenvalues --   -0.90421  -0.90190  -0.89859  -0.89535  -0.89248
 Alpha  occ. eigenvalues --   -0.89017  -0.88790  -0.88144  -0.88133  -0.86706
 Alpha  occ. eigenvalues --   -0.86338  -0.86187  -0.85491  -0.84675  -0.84637
 Alpha  occ. eigenvalues --   -0.84495  -0.84250  -0.82861  -0.82770  -0.82080
 Alpha  occ. eigenvalues --   -0.82011  -0.80565  -0.80213  -0.79432  -0.79121
 Alpha  occ. eigenvalues --   -0.78735  -0.78544  -0.78115  -0.77735  -0.77680
 Alpha  occ. eigenvalues --   -0.76974  -0.74779  -0.74606  -0.74099  -0.73131
 Alpha  occ. eigenvalues --   -0.71331  -0.71218  -0.71103  -0.70708  -0.70056
 Alpha  occ. eigenvalues --   -0.69867  -0.68800  -0.68641  -0.68320  -0.66998
 Alpha  occ. eigenvalues --   -0.66876  -0.66556  -0.66488  -0.66158  -0.65963
 Alpha  occ. eigenvalues --   -0.65936  -0.64502  -0.63219  -0.62668  -0.62228
 Alpha  occ. eigenvalues --   -0.61521  -0.61376  -0.61095  -0.60913  -0.60248
 Alpha  occ. eigenvalues --   -0.59984  -0.59927  -0.59545  -0.59485  -0.59171
 Alpha  occ. eigenvalues --   -0.58272  -0.57813  -0.57743  -0.57629  -0.57331
 Alpha  occ. eigenvalues --   -0.57320  -0.57020  -0.56654  -0.56521  -0.55859
 Alpha  occ. eigenvalues --   -0.55767  -0.55542  -0.55310  -0.54922  -0.54837
 Alpha  occ. eigenvalues --   -0.54629  -0.54560  -0.54534  -0.54216  -0.54084
 Alpha  occ. eigenvalues --   -0.54058  -0.53891  -0.53706  -0.53517  -0.53106
 Alpha  occ. eigenvalues --   -0.53018  -0.52724  -0.52694  -0.52673  -0.52343
 Alpha  occ. eigenvalues --   -0.52208  -0.52199  -0.51790  -0.51526  -0.51471
 Alpha  occ. eigenvalues --   -0.51390  -0.51229  -0.51080  -0.50961  -0.50764
 Alpha  occ. eigenvalues --   -0.50731  -0.50474  -0.50457  -0.50385  -0.50163
 Alpha  occ. eigenvalues --   -0.50072  -0.49725  -0.49656  -0.49284  -0.49178
 Alpha  occ. eigenvalues --   -0.48847  -0.48768  -0.48438  -0.48325  -0.48189
 Alpha  occ. eigenvalues --   -0.48146  -0.48117  -0.47912  -0.47677  -0.47633
 Alpha  occ. eigenvalues --   -0.47420  -0.47294  -0.47033  -0.46884  -0.46832
 Alpha  occ. eigenvalues --   -0.46825  -0.46606  -0.46554  -0.46548  -0.46234
 Alpha  occ. eigenvalues --   -0.45908  -0.45858  -0.45835  -0.45413  -0.45332
 Alpha  occ. eigenvalues --   -0.45243  -0.45140  -0.45130  -0.45018  -0.44905
 Alpha  occ. eigenvalues --   -0.44723  -0.44422  -0.44405  -0.44038  -0.43997
 Alpha  occ. eigenvalues --   -0.43935  -0.43715  -0.43649  -0.43556  -0.43279
 Alpha  occ. eigenvalues --   -0.43096  -0.42927  -0.42834  -0.42398  -0.42345
 Alpha  occ. eigenvalues --   -0.42064  -0.41854  -0.41852  -0.41078  -0.40986
 Alpha  occ. eigenvalues --   -0.40408  -0.40172  -0.39950  -0.39937  -0.39424
 Alpha  occ. eigenvalues --   -0.39376  -0.38881  -0.38614  -0.38521  -0.38101
 Alpha  occ. eigenvalues --   -0.37629  -0.37589  -0.37120  -0.36744  -0.36414
 Alpha  occ. eigenvalues --   -0.35860  -0.35545  -0.35412  -0.34180  -0.33474
 Alpha  occ. eigenvalues --   -0.33364  -0.33119  -0.32768  -0.32693  -0.32145
 Alpha  occ. eigenvalues --   -0.32129  -0.31806  -0.31668  -0.25993  -0.25797
 Alpha  occ. eigenvalues --   -0.23189  -0.22997
 Alpha virt. eigenvalues --   -0.07148  -0.06983  -0.00290   0.00688   0.02026
 Alpha virt. eigenvalues --    0.02747   0.04586   0.04603   0.04882   0.06237
 Alpha virt. eigenvalues --    0.06631   0.07007   0.07487   0.08066   0.08713

 Mulliken charges:
               1
     1  Mg   0.985755
     2  C   -0.033993
     3  C   -0.089475
     4  C   -0.081519
     5  C   -0.113218
     6  N   -0.312383
     7  C   -0.022146
     8  C   -0.084747
     9  C   -0.106271
    10  C    0.035684
    11  C    0.056874
    12  C    0.017380
    13  C   -0.109394
    14  H    0.037451
    15  N   -0.477282
    16  C    0.190030
    17  C   -0.158459
    18  C   -0.108923
    19  C    0.127398
    20  C    0.049089
    21  C    0.101634
    22  O   -0.227664
    23  C   -0.029444
    24  N   -0.378912
    25  C    0.080988
    26  C   -0.097546
    27  C   -0.032606
    28  C    0.053282
    29  C    0.021169
    30  C   -0.006310
    31  C   -0.048441
    32  N   -0.374840
    33  C    0.116163
    34  C   -0.174773
    35  C   -0.023279
    36  C    0.102351
    37  C    0.084893
    38  C    0.096564
    39  O   -0.204496
    40  C   -0.019841
    41  C    0.245702
    42  O   -0.251745
    43  O   -0.402731
    44  C    0.147338
    45  H    0.004642
    46  H    0.017873
    47  H   -0.007191
    48  H    0.021260
    49  H    0.004249
    50  H    0.035508
    51  H    0.070990
    52  H    0.036999
    53  H    0.035369
    54  H    0.041328
    55  H    0.045538
    56  H    0.053120
    57  H    0.040752
    58  H    0.065810
    59  H    0.030963
    60  H    0.059202
    61  H    0.056196
    62  H    0.081313
    63  H    0.037143
    64  H    0.030713
    65  H    0.038440
    66  H    0.045349
    67  H    0.041234
    68  H    0.033861
    69  H    0.028055
    70  H    0.018071
    71  H    0.047781
    72  H    0.040828
    73  H    0.015391
    74  H    0.066060
    75  H    0.046129
    76  H    0.068328
    77  H    0.063935
    78  H    0.057361
    79  H    0.048093
    80  Mg   0.956505
    81  C   -0.040700
    82  C   -0.109765
    83  C   -0.099651
    84  C   -0.098525
    85  N   -0.351198
    86  C    0.005584
    87  C   -0.079483
    88  C   -0.049963
    89  C    0.025323
    90  C    0.014880
    91  C   -0.013959
    92  C   -0.131305
    93  H    0.040682
    94  N   -0.438365
    95  C    0.180625
    96  C   -0.147238
    97  C   -0.106990
    98  C    0.206995
    99  C    0.079934
   100  C    0.051217
   101  O   -0.236340
   102  C   -0.010293
   103  N   -0.368982
   104  C    0.022428
   105  C   -0.081685
   106  C   -0.120601
   107  C    0.043097
   108  C    0.052823
   109  C   -0.004580
   110  C   -0.029189
   111  N   -0.430995
   112  C    0.160644
   113  C   -0.200538
   114  C   -0.051246
   115  C    0.127624
   116  C    0.085800
   117  C    0.113350
   118  O   -0.186334
   119  C   -0.040824
   120  C    0.283479
   121  O   -0.239822
   122  O   -0.406702
   123  C    0.140515
   124  H   -0.005317
   125  H   -0.020525
   126  H   -0.017683
   127  H    0.039144
   128  H    0.033403
   129  H    0.033393
   130  H    0.047796
   131  H    0.043635
   132  H    0.053338
   133  H    0.034494
   134  H    0.067851
   135  H    0.053349
   136  H    0.060231
   137  H    0.036778
   138  H    0.064821
   139  H    0.070818
   140  H    0.065175
   141  H    0.051310
   142  H    0.031695
   143  H    0.032425
   144  H    0.042826
   145  H    0.037321
   146  H    0.047638
   147  H    0.039954
   148  H    0.030690
   149  H    0.027391
   150  H    0.038710
   151  H    0.043337
   152  H    0.019161
   153  H    0.066787
   154  H    0.074783
   155  H    0.069322
   156  H    0.037360
   157  H    0.075551
   158  H    0.056805
 Sum of Mulliken charges =  -0.00000

 Dipole moment (field-independent basis, Debye):
    X=             -0.4630    Y=             -3.9823    Z=              4.3056  Tot=              5.8831
 Quadrupole moment (field-independent basis, Debye-Ang):
   XX=            -99.2618   YY=           -462.7885   ZZ=           -497.2041
   XY=             23.4798   XZ=             63.6187   YZ=             11.8448

 Normal termination of Gaussian 16 at Mon Sep 20 21:20:13 2021.
