 Gaussian 16, Revision A.03,
 Gaussian 16:  ES64L-G16RevA.03 25-Dec-2016

 --------------------------------
 #p wB97XD/Def2SVP td=(nstates=5)
 --------------------------------

 --------------------------------
 TDDFT excited states in gaussian
 --------------------------------
 Symbolic Z-matrix:
 Charge =  0 Multiplicity = 1

                         Standard orientation:
 ---------------------------------------------------------------------
 Center     Atomic      Atomic             Coordinates (Angstroms)
 Number     Number       Type             X           Y           Z
 ---------------------------------------------------------------------
      1         12           0      -28.514355   -0.012176   -0.793693
      2          6           0      -24.970932    0.187160   -0.508114
      3          6           0      -28.318666   -3.421748   -0.530484
      4          6           0      -31.924836   -0.098575   -0.013814
      5          6           0      -28.669812    3.483045   -0.465475
      6          7           0      -26.719211   -1.413280   -0.277705
      7          6           0      -25.411752   -1.157939   -0.448291
      8          6           0      -24.674426   -2.460078   -0.701962
      9          6           0      -25.739239   -3.658255   -0.642967
     10          6           0      -27.048049   -2.717450   -0.621259
     11          6           0      -25.603328   -4.508451   -1.926116
     12          6           0      -23.546269   -2.647591    0.299630
     13          6           0      -23.818177   -2.188749    1.751980
     14          1           0      -24.027766   -3.304479    2.811934
     15          7           0      -29.980512   -1.580417   -0.413094
     16          6           0      -29.628799   -2.910843   -0.342710
     17          6           0      -30.859327   -3.632912   -0.256739
     18          6           0      -31.954906   -2.721748   -0.005495
     19          6           0      -31.345295   -1.379007   -0.179272
     20          6           0      -30.914357   -5.140540   -0.168790
     21          6           0      -33.366079   -3.059661    0.478033
     22          8           0      -33.663490   -4.211477    0.729782
     23          6           0      -34.389220   -2.077053    0.675645
     24          7           0      -30.062675    1.462651   -0.206711
     25          6           0      -31.352423    1.178385   -0.102084
     26          6           0      -32.214709    2.392407    0.203097
     27          6           0      -31.075280    3.479715    0.415399
     28          6           0      -29.874079    2.826095   -0.166486
     29          6           0      -33.242679    2.771670   -0.971511
     30          6           0      -30.975860    3.892151    1.955925
     31          6           0      -31.375080    5.269507    2.404288
     32          7           0      -27.193009    1.502228   -0.787699
     33          6           0      -27.406232    2.895749   -0.776384
     34          6           0      -26.130979    3.618306   -0.939720
     35          6           0      -25.208480    2.575315   -0.858961
     36          6           0      -25.842605    1.302305   -0.641889
     37          6           0      -25.872868    5.134086   -1.245909
     38          6           0      -23.764442    2.320380   -0.870844
     39          8           0      -22.773088    3.056276   -1.007151
     40          6           0      -23.540780    0.785787   -0.665398
     41          6           0      -22.800691    0.811383    0.627290
     42          8           0      -23.209575    1.290099    1.653954
     43          8           0      -21.567511    0.343836    0.455874
     44          6           0      -20.661934    0.195390    1.648277
     45          1           0      -28.259451   -4.490044   -0.748184
     46          1           0      -32.995411    0.025464    0.160985
     47          1           0      -28.823729    4.542711   -0.248832
     48          1           0      -24.282212   -2.226908   -1.691888
     49          1           0      -25.634499   -4.267473    0.255193
     50          1           0      -25.351322   -5.527163   -1.632146
     51          1           0      -24.810534   -4.185594   -2.601399
     52          1           0      -26.589460   -4.504518   -2.389700
     53          1           0      -22.663234   -2.107223   -0.041587
     54          1           0      -23.297108   -3.704246    0.401348
     55          1           0      -24.743111   -1.646498    1.947861
     56          1           0      -22.952427   -1.577958    2.008190
     57          1           0      -29.917815   -5.581981   -0.140710
     58          1           0      -31.551262   -5.494031   -0.980378
     59          1           0      -31.497209   -5.390649    0.716988
     60          1           0      -34.189881   -1.344557    1.458126
     61          1           0      -35.320199   -2.576393    0.943364
     62          1           0      -34.416810   -1.564975   -0.286794
     63          1           0      -32.736700    2.337798    1.158085
     64          1           0      -31.523626    4.347985   -0.067838
     65          1           0      -33.177899    2.027088   -1.765460
     66          1           0      -32.917804    3.726163   -1.386070
     67          1           0      -34.280816    2.919618   -0.670074
     68          1           0      -29.940827    3.893718    2.297890
     69          1           0      -31.539211    3.201677    2.582106
     70          1           0      -30.532526    5.938928    2.577905
     71          1           0      -31.858661    5.016077    3.348273
     72          1           0      -32.201790    5.711496    1.847899
     73          1           0      -26.041240    5.689937   -0.323935
     74          1           0      -26.530049    5.409351   -2.070961
     75          1           0      -24.818001    5.259419   -1.489468
     76          1           0      -22.985614    0.444994   -1.540098
     77          1           0      -20.135701    1.117271    1.896940
     78          1           0      -19.912068   -0.578507    1.479332
     79          1           0      -21.320818   -0.121675    2.456615
     80         12           0       27.829657    0.726099   -0.657166
     81          6           0       26.718691   -2.579454    0.004295
     82          6           0       24.915787    1.855292    0.892481
     83          6           0       29.395726    3.588654   -0.222019
     84          6           0       30.905308   -0.806759   -1.919975
     85          7           0       26.104107   -0.312545    0.579568
     86          6           0       25.772832   -1.620932    0.447307
     87          6           0       24.357502   -1.834430    0.953390
     88          6           0       23.658295   -0.504331    0.672024
     89          6           0       24.965387    0.436325    0.770400
     90          6           0       22.985000   -0.306203   -0.687299
     91          6           0       24.400136   -2.324497    2.466286
     92          6           0       23.477547   -3.451444    2.718774
     93          1           0       22.667811   -3.430770    4.029830
     94          7           0       27.274815    2.534689    0.272101
     95          6           0       25.983972    2.820207    0.782196
     96          6           0       26.009889    4.197752    1.205124
     97          6           0       27.244011    4.794730    0.834461
     98          6           0       28.066953    3.657778    0.287674
     99          6           0       24.797608    4.825287    1.885937
    100          6           0       27.651441    6.191642    1.091741
    101          8           0       26.868375    6.938479    1.665477
    102          6           0       28.981991    6.808238    0.808912
    103          7           0       29.980890    1.259779   -0.959250
    104          6           0       30.223614    2.582793   -0.872737
    105          6           0       31.625134    2.915281   -1.415910
    106          6           0       32.091653    1.522069   -2.124075
    107          6           0       30.927999    0.589256   -1.699466
    108          6           0       31.693296    4.232286   -2.312806
    109          6           0       33.513830    1.011799   -1.732762
    110          6           0       33.612958   -0.097698   -0.630925
    111          7           0       28.648841   -1.186998   -0.919554
    112          6           0       29.870251   -1.630067   -1.502399
    113          6           0       29.791590   -3.142617   -1.701842
    114          6           0       28.603917   -3.485464   -1.075645
    115          6           0       27.954207   -2.274145   -0.643533
    116          6           0       30.751365   -4.160125   -2.348167
    117          6           0       27.735368   -4.577457   -0.769426
    118          8           0       27.818514   -5.770624   -1.065284
    119          6           0       26.633293   -3.996151    0.042212
    120          6           0       26.930331   -4.529174    1.462511
    121          8           0       27.767266   -4.105340    2.256787
    122          8           0       26.100374   -5.666563    1.665479
    123          6           0       26.268433   -6.411287    2.846784
    124          1           0       23.985687    2.276415    1.280149
    125          1           0       29.762322    4.616658   -0.193037
    126          1           0       31.712894   -1.345421   -2.418699
    127          1           0       23.795015   -2.561232    0.367521
    128          1           0       22.871163   -0.143221    1.332939
    129          1           0       22.773159   -1.236732   -1.213141
    130          1           0       23.471751    0.479081   -1.266180
    131          1           0       22.009191    0.089173   -0.402828
    132          1           0       24.078647   -1.502552    3.106027
    133          1           0       25.404622   -2.497230    2.852788
    134          1           0       24.155216   -4.302894    2.667622
    135          1           0       22.759318   -3.493823    1.900100
    136          1           0       24.242951    5.496737    1.230778
    137          1           0       25.124419    5.301655    2.809101
    138          1           0       24.090356    4.051873    2.185831
    139          1           0       29.102903    6.873572   -0.272669
    140          1           0       29.845229    6.292782    1.231674
    141          1           0       28.989505    7.871471    1.045781
    142          1           0       32.214626    3.033710   -0.506997
    143          1           0       31.987284    1.631631   -3.202993
    144          1           0       30.876602    4.913006   -2.072931
    145          1           0       31.808581    4.133242   -3.392810
    146          1           0       32.696803    4.605066   -2.101709
    147          1           0       34.180355    1.822962   -1.440870
    148          1           0       33.860531    0.571502   -2.667349
    149          1           0       34.572920    0.232788   -0.233559
    150          1           0       33.693217   -1.136184   -0.952925
    151          1           0       32.809052    0.077225    0.084378
    152          1           0       30.263056   -4.696072   -3.161308
    153          1           0       30.771623   -4.860432   -1.513690
    154          1           0       31.703566   -3.655574   -2.510546
    155          1           0       25.680024   -4.402724   -0.295732
    156          1           0       25.611265   -7.277208    2.936000
    157          1           0       26.056789   -5.745720    3.682689
    158          1           0       27.308741   -6.737231    2.826158
 ---------------------------------------------------------------------

 SCF Done:  E(RwB97XD) =  -4070.52594573     A.U. after   20 cycles

 Excitation energies and oscillator strengths:

 Excited State   1:      Singlet-A      1.6239 eV  763.48 nm  f=0.3385  <S**2>=0.000
     310 -> 315        0.20410
     312 -> 314        0.67720
     310 <- 315        0.12275
 This state for optimization and/or second-order correction.
 Total Energy, E(TD-HF/TD-DFT) =  -4070.46626726
 Copying the excited state density for this state as the 1-particle RhoCI density.

 Excited State   2:      Singlet-A      1.6285 eV  761.32 nm  f=0.3654  <S**2>=0.000
     309 -> 316        0.20663
     311 -> 313        0.67771
     309 <- 316        0.12508

 Excited State   3:      Singlet-A      2.1336 eV  581.11 nm  f=0.0544  <S**2>=0.000
     310 -> 314        0.61277
     312 -> 315       -0.34218

 Excited State   4:      Singlet-A      2.1415 eV  578.96 nm  f=0.0703  <S**2>=0.000
     309 -> 313        0.61695
     311 -> 316       -0.33156

 Excited State   5:      Singlet-A      3.1857 eV  389.19 nm  f=0.0153  <S**2>=0.000
     308 -> 313        0.65684
     308 -> 318        0.10729
     311 -> 316        0.20201

 The electronic state is 1-A.
 Alpha  occ. eigenvalues --  -46.97661 -46.96549 -19.30296 -19.29956 -19.26349
 Alpha  occ. eigenvalues --  -19.23997 -19.23912 -19.23795 -19.23092 -19.22574
 Alpha  occ. eigenvalues --  -14.47018 -14.46997 -14.46566 -14.46518 -14.44838
 Alpha  occ. eigenvalues --  -14.44753 -14.44348 -14.44157 -10.44506 -10.42572
 Alpha  occ. eigenvalues --  -10.39006 -10.38589 -10.38268 -10.38062 -10.36228
 Alpha  occ. eigenvalues --  -10.36118 -10.35854 -10.35463 -10.35462 -10.35402
 Alpha  occ. eigenvalues --  -10.35361 -10.35051 -10.35017 -10.35014 -10.34868
 Alpha  occ. eigenvalues --  -10.34777 -10.34733 -10.34721 -10.34120 -10.33971
 Alpha  occ. eigenvalues --  -10.33917 -10.33576 -10.33494 -10.33006 -10.32951
 Alpha  occ. eigenvalues --  -10.32839 -10.32812 -10.32577 -10.32459 -10.32445
 Alpha  occ. eigenvalues --  -10.32443 -10.32386 -10.32264 -10.32227 -10.32221
 Alpha  occ. eigenvalues --  -10.32200 -10.32171 -10.31947 -10.31903 -10.31783
 Alpha  occ. eigenvalues --  -10.31728 -10.31649 -10.31616 -10.31473 -10.31461
 Alpha  occ. eigenvalues --  -10.31178 -10.31148 -10.31075 -10.31044 -10.30993
 Alpha  occ. eigenvalues --  -10.30868 -10.30683 -10.30671 -10.30547 -10.30341
 Alpha  occ. eigenvalues --  -10.30226 -10.30172 -10.30082 -10.29827 -10.29627
 Alpha  occ. eigenvalues --  -10.29515 -10.29506 -10.29320 -10.29182 -10.29044
 Alpha  occ. eigenvalues --  -10.28991  -3.23366  -3.22342  -1.96881  -1.96528
 Alpha  occ. eigenvalues --   -1.96278  -1.95887  -1.95489  -1.95276  -1.19237
 Alpha  occ. eigenvalues --   -1.17993  -1.12431  -1.11853  -1.11548  -1.11043
 Alpha  occ. eigenvalues --   -1.10862  -1.09903  -1.06601  -1.06212  -1.05678
 Alpha  occ. eigenvalues --   -1.05446  -1.04870  -1.04432  -1.03664  -1.03298
 Alpha  occ. eigenvalues --   -0.96408  -0.93925  -0.91034  -0.90836  -0.90681
 Alpha  occ. eigenvalues --   -0.90626  -0.90168  -0.89685  -0.89209  -0.89027
 Alpha  occ. eigenvalues --   -0.88791  -0.88075  -0.87508  -0.87337  -0.86696
 Alpha  occ. eigenvalues --   -0.86603  -0.85922  -0.85573  -0.84785  -0.84614
 Alpha  occ. eigenvalues --   -0.84531  -0.83558  -0.83058  -0.82810  -0.82239
 Alpha  occ. eigenvalues --   -0.82214  -0.79988  -0.79843  -0.79295  -0.79196
 Alpha  occ. eigenvalues --   -0.78804  -0.78341  -0.78214  -0.77966  -0.77153
 Alpha  occ. eigenvalues --   -0.76919  -0.74853  -0.74746  -0.73830  -0.73721
 Alpha  occ. eigenvalues --   -0.71840  -0.70856  -0.70720  -0.70450  -0.70098
 Alpha  occ. eigenvalues --   -0.69254  -0.68821  -0.68693  -0.67495  -0.67309
 Alpha  occ. eigenvalues --   -0.67161  -0.66918  -0.66778  -0.66697  -0.66552
 Alpha  occ. eigenvalues --   -0.66033  -0.64421  -0.64221  -0.62252  -0.61925
 Alpha  occ. eigenvalues --   -0.61767  -0.61272  -0.61259  -0.61009  -0.60864
 Alpha  occ. eigenvalues --   -0.60641  -0.60270  -0.59819  -0.59257  -0.59013
 Alpha  occ. eigenvalues --   -0.58224  -0.58098  -0.57938  -0.57822  -0.57620
 Alpha  occ. eigenvalues --   -0.56974  -0.56878  -0.56854  -0.56511  -0.56481
 Alpha  occ. eigenvalues --   -0.55819  -0.55639  -0.55395  -0.55301  -0.55018
 Alpha  occ. eigenvalues --   -0.54976  -0.54582  -0.54571  -0.54460  -0.54093
 Alpha  occ. eigenvalues --   -0.53969  -0.53892  -0.53684  -0.53609  -0.53458
 Alpha  occ. eigenvalues --   -0.53333  -0.53249  -0.52606  -0.52481  -0.52088
 Alpha  occ. eigenvalues --   -0.52073  -0.51902  -0.51738  -0.51621  -0.51400
 Alpha  occ. eigenvalues --   -0.51390  -0.51169  -0.51166  -0.50928  -0.50906
 Alpha  occ. eigenvalues --   -0.50482  -0.50425  -0.50185  -0.50179  -0.49715
 Alpha  occ. eigenvalues --   -0.49704  -0.49401  -0.49234  -0.49115  -0.48913
 Alpha  occ. eigenvalues --   -0.48840  -0.48774  -0.48537  -0.48206  -0.48012
 Alpha  occ. eigenvalues --   -0.47900  -0.47829  -0.47798  -0.47743  -0.47550
 Alpha  occ. eigenvalues --   -0.47363  -0.47240  -0.47232  -0.47092  -0.47062
 Alpha  occ. eigenvalues --   -0.47036  -0.46802  -0.46488  -0.46368  -0.46268
 Alpha  occ. eigenvalues --   -0.46025  -0.45921  -0.45800  -0.45605  -0.45499
 Alpha  occ. eigenvalues --   -0.45444  -0.45212  -0.45131  -0.44990  -0.44860
 Alpha  occ. eigenvalues --   -0.44345  -0.44343  -0.43972  -0.43970  -0.43492
 Alpha  occ. eigenvalues --   -0.43456  -0.43353  -0.43307  -0.43258  -0.42963
 Alpha  occ. eigenvalues --   -0.42873  -0.42777  -0.42328  -0.41997  -0.41966
 Alpha  occ. eigenvalues --   -0.41953  -0.41727  -0.41064  -0.40546  -0.40500
 Alpha  occ. eigenvalues --   -0.40178  -0.39905  -0.39881  -0.39628  -0.39387
 Alpha  occ. eigenvalues --   -0.39141  -0.38847  -0.38598  -0.38337  -0.38316
 Alpha  occ. eigenvalues --   -0.37722  -0.37685  -0.37180  -0.36227  -0.36194
 Alpha  occ. eigenvalues --   -0.36088  -0.35616  -0.35614  -0.33595  -0.33532
 Alpha  occ. eigenvalues --   -0.32983  -0.32760  -0.32713  -0.32608  -0.32385
 Alpha  occ. eigenvalues --   -0.32142  -0.31630  -0.31121  -0.26202  -0.25964
 Alpha  occ. eigenvalues --   -0.23121  -0.22832
 Alpha virt. eigenvalues --   -0.07122  -0.06881  -0.00729  -0.00665   0.01853
 Alpha virt. eigenvalues --    0.02344   0.02927   0.04138   0.04316   0.04575
 Alpha virt. eigenvalues --    0.06851   0.07177   0.07570   0.07594   0.08411

 Mulliken charges:
               1
     1  Mg   0.941961
     2  C   -0.038015
     3  C   -0.073453
     4  C   -0.078354
     5  C   -0.055640
     6  N   -0.320010
     7  C   -0.052869
     8  C   -0.003397
     9  C   -0.147400
    10  C    0.056798
    11  C    0.022577
    12  C   -0.011032
    13  C   -0.138276
    14  H    0.013820
    15  N   -0.462318
    16  C    0.168100
    17  C   -0.174985
    18  C   -0.086725
    19  C    0.201771
    20  C    0.084711
    21  C    0.035939
    22  O   -0.236009
    23  C    0.005159
    24  N   -0.322795
    25  C    0.047560
    26  C   -0.151749
    27  C   -0.062372
    28  C    0.046613
    29  C    0.017237
    30  C   -0.028956
    31  C   -0.050502
    32  N   -0.501101
    33  C    0.150882
    34  C   -0.184671
    35  C   -0.035209
    36  C    0.186871
    37  C    0.087863
    38  C    0.097759
    39  O   -0.231077
    40  C   -0.050509
    41  C    0.238009
    42  O   -0.235948
    43  O   -0.346719
    44  C    0.130775
    45  H    0.013628
    46  H   -0.019940
    47  H    0.003340
    48  H    0.035238
    49  H    0.061588
    50  H    0.033385
    51  H    0.044477
    52  H    0.040384
    53  H    0.041047
    54  H    0.041267
    55  H    0.087267
    56  H    0.047495
    57  H    0.029815
    58  H    0.048564
    59  H    0.062103
    60  H    0.066420
    61  H    0.056730
    62  H    0.054730
    63  H    0.040393
    64  H    0.018077
    65  H    0.043566
    66  H    0.031203
    67  H    0.046345
    68  H    0.037494
    69  H    0.032164
    70  H    0.053220
    71  H    0.028103
    72  H    0.026650
    73  H    0.054297
    74  H    0.056619
    75  H    0.063036
    76  H    0.067939
    77  H    0.072784
    78  H    0.059149
    79  H    0.067105
    80  Mg   0.936543
    81  C    0.010776
    82  C   -0.075260
    83  C   -0.029770
    84  C   -0.064492
    85  N   -0.298276
    86  C   -0.021611
    87  C   -0.051762
    88  C   -0.134255
    89  C    0.044038
    90  C    0.038287
    91  C    0.033670
    92  C   -0.117033
    93  H    0.034895
    94  N   -0.490251
    95  C    0.145799
    96  C   -0.165493
    97  C   -0.025072
    98  C    0.111717
    99  C    0.096162
   100  C   -0.007033
   101  O   -0.246433
   102  C    0.014182
   103  N   -0.325810
   104  C    0.062835
   105  C   -0.098292
   106  C   -0.020474
   107  C    0.007645
   108  C    0.005945
   109  C   -0.047046
   110  C   -0.048136
   111  N   -0.422861
   112  C    0.106608
   113  C   -0.210752
   114  C   -0.023474
   115  C    0.162212
   116  C    0.090948
   117  C    0.075750
   118  O   -0.216287
   119  C   -0.054991
   120  C    0.276414
   121  O   -0.229424
   122  O   -0.374833
   123  C    0.144818
   124  H    0.004564
   125  H   -0.047440
   126  H   -0.000910
   127  H    0.012665
   128  H    0.029582
   129  H    0.042134
   130  H    0.047021
   131  H    0.028407
   132  H    0.032670
   133  H    0.056498
   134  H    0.045299
   135  H    0.046270
   136  H    0.058367
   137  H    0.061372
   138  H    0.009499
   139  H    0.040843
   140  H    0.071606
   141  H    0.046900
   142  H    0.050779
   143  H    0.037824
   144  H    0.052398
   145  H    0.033870
   146  H    0.031538
   147  H    0.040214
   148  H    0.030981
   149  H    0.035608
   150  H    0.046460
   151  H    0.060499
   152  H    0.072921
   153  H    0.067991
   154  H    0.038956
   155  H    0.061009
   156  H    0.058028
   157  H    0.041816
   158  H    0.053635
 Sum of Mulliken charges =  -0.00000

 Dipole moment (field-independent basis, Debye):
    X=             -0.3162    Y=              1.2661    Z=             -5.5880  Tot=              5.7384
 Quadrupole moment (field-independent basis, Debye-Ang):
   XX=           -348.5368   YY=           -546.4890   ZZ=           -509.1178
   XY=            -33.6477   XZ=            -65.5988   YZ=            -12.0634

 Normal termination of Gaussian 16 at Sat Sep 18 15:12:57 2021.
