 Gaussian 16, Revision A.03,
 Gaussian 16:  ES64L-G16RevA.03 25-Dec-2016

 --------------------------------
 #p wB97XD/Def2SVP td=(nstates=5)
 --------------------------------

 --------------------------------
 TDDFT excited states in gaussian
 --------------------------------
 Symbolic Z-matrix:
 Charge =  0 Multiplicity = 1

                         Standard orientation:
 ---------------------------------------------------------------------
 Center     Atomic      Atomic             Coordinates (Angstroms)
 Number     Number       Type             X           Y           Z
 ---------------------------------------------------------------------
      1         12           0       12.773686    0.035617    0.172024
      2          6           0        9.441080   -0.617753   -0.213692
      3          6           0       13.083308    0.781613   -3.060612
      4          6           0       15.970198    0.389543    0.700787
      5          6           0       12.442423   -1.354380    3.437100
      6          7           0       11.430476   -0.085422   -1.528332
      7          6           0       10.083019   -0.115103   -1.375050
      8          6           0        9.368257    0.402792   -2.593070
      9          6           0       10.578279    0.573838   -3.596755
     10          6           0       11.786099    0.333410   -2.717243
     11          6           0       10.503782   -0.321090   -4.857118
     12          6           0        8.431309    1.730933   -2.318185
     13          6           0        7.002016    1.750363   -2.881206
     14          1           0        6.716448    0.838514   -4.115661
     15          7           0       14.221257    0.661706   -0.925104
     16          6           0       14.220668    0.932780   -2.256350
     17          6           0       15.532759    1.229505   -2.777504
     18          6           0       16.330626    1.319970   -1.677154
     19          6           0       15.535797    0.662854   -0.593510
     20          6           0       15.674337    1.326462   -4.285524
     21          6           0       17.803771    1.764978   -1.585331
     22          8           0       18.452434    1.754415   -0.565113
     23          6           0       18.393618    2.187467   -2.898404
     24          7           0       14.031373   -0.596791    1.807184
     25          6           0       15.312191   -0.186562    1.779222
     26          6           0       16.011405   -0.485687    3.109023
     27          6           0       14.812494   -0.746257    4.082926
     28          6           0       13.676891   -0.942720    3.057714
     29          6           0       17.106679   -1.634951    3.145013
     30          6           0       14.437614    0.429579    5.061701
     31          6           0       14.048214    1.801526    4.577580
     32          7           0       11.287863   -0.752495    1.476821
     33          6           0       11.286595   -1.364645    2.734365
     34          6           0        9.938977   -1.799944    3.122716
     35          6           0        9.168614   -1.514673    1.985440
     36          6           0       10.053920   -0.887125    1.053442
     37          6           0        9.481070   -2.358304    4.445622
     38          6           0        7.902424   -1.589062    1.414071
     39          8           0        6.841622   -2.059847    1.793753
     40          6           0        7.958791   -0.808611    0.075312
     41          6           0        7.269946   -1.727882   -0.859315
     42          8           0        7.775994   -2.719226   -1.390706
     43          8           0        5.948374   -1.409148   -0.979987
     44          6           0        5.031789   -2.361868   -1.614263
     45          1           0       13.107686    1.202875   -4.068008
     46          1           0       17.018299    0.534446    0.968113
     47          1           0       12.480727   -1.715081    4.467823
     48          1           0        8.749544   -0.377635   -3.036179
     49          1           0       10.642461    1.620329   -3.894018
     50          1           0       11.195446   -1.155009   -4.738248
     51          1           0       10.823526    0.267288   -5.717176
     52          1           0        9.473886   -0.671350   -4.926953
     53          1           0        8.996193    2.558537   -2.747401
     54          1           0        8.290892    1.883578   -1.248566
     55          1           0        6.764977    2.739796   -3.271372
     56          1           0        6.286563    1.581976   -2.076389
     57          1           0       15.429168    0.416632   -4.833655
     58          1           0       16.658254    1.428925   -4.742855
     59          1           0       15.052729    2.197455   -4.493161
     60          1           0       17.801235    2.984109   -3.347832
     61          1           0       18.447861    1.238741   -3.431930
     62          1           0       19.380419    2.648956   -2.907194
     63          1           0       16.543622    0.448836    3.290082
     64          1           0       14.969744   -1.703366    4.580730
     65          1           0       17.215309   -2.063120    2.148824
     66          1           0       16.759697   -2.480163    3.738236
     67          1           0       18.085619   -1.362094    3.542067
     68          1           0       15.350324    0.462657    5.657201
     69          1           0       13.606908    0.170171    5.717232
     70          1           0       14.228210    1.873665    3.504172
     71          1           0       14.668891    2.563338    5.049038
     72          1           0       12.997627    2.072784    4.679500
     73          1           0        9.260256   -3.423490    4.393117
     74          1           0        8.600336   -1.815531    4.789269
     75          1           0       10.367468   -2.256395    5.072233
     76          1           0        7.512076    0.181968    0.162703
     77          1           0        4.004220   -2.235475   -1.271301
     78          1           0        5.415948   -3.380301   -1.582941
     79          1           0        4.986325   -2.240943   -2.696425
     80         12           0      -12.378564   -0.458358   -0.651624
     81          6           0      -11.513724    2.995537    0.114933
     82          6           0       -9.085250   -0.939019   -1.495793
     83          6           0      -12.747246   -3.702820    0.069452
     84          6           0      -15.621072    0.235767    0.090450
     85          7           0      -10.469080    0.873429   -0.486630
     86          6           0      -10.385540    2.286869   -0.216189
     87          6           0       -8.978113    2.786365   -0.554465
     88          6           0       -8.351889    1.637857   -1.399224
     89          6           0       -9.333370    0.407490   -1.160927
     90          6           0       -8.246587    1.973931   -2.961803
     91          6           0       -8.152181    3.330248    0.574425
     92          6           0       -8.592470    2.979253    2.015272
     93          1           0       -7.869013    3.361369    3.319515
     94          7           0      -11.111612   -2.143737   -0.840609
     95          6           0       -9.778739   -2.116896   -1.186889
     96          6           0       -9.298899   -3.529960   -1.295143
     97          6           0      -10.329543   -4.278227   -0.732080
     98          6           0      -11.459520   -3.409467   -0.411167
     99          6           0       -7.930174   -3.837017   -1.790595
    100          6           0      -10.264663   -5.811954   -0.474895
    101          8           0       -9.212793   -6.382686   -0.702750
    102          6           0      -11.347938   -6.610417    0.171169
    103          7           0      -13.960268   -1.497463    0.144297
    104          6           0      -13.873064   -2.888014    0.200532
    105          6           0      -15.226418   -3.508279    0.547794
    106          6           0      -16.225960   -2.327836    0.268986
    107          6           0      -15.250028   -1.158584    0.119521
    108          6           0      -15.652226   -4.809786   -0.179156
    109          6           0      -17.333204   -2.094741    1.346364
    110          6           0      -18.812961   -2.530406    0.933039
    111          7           0      -13.432970    1.265002   -0.099318
    112          6           0      -14.800982    1.394699    0.091184
    113          6           0      -15.125940    2.792707    0.233112
    114          6           0      -13.861554    3.390690    0.322060
    115          6           0      -12.876868    2.399731    0.086111
    116          6           0      -16.557358    3.321291    0.429739
    117          6           0      -13.161051    4.630322    0.462836
    118          8           0      -13.698691    5.749274    0.586531
    119          6           0      -11.596973    4.488004    0.197202
    120          6           0      -10.967185    5.137249    1.364240
    121          8           0      -11.240110    4.943938    2.553630
    122          8           0       -9.947701    5.889609    0.882489
    123          6           0       -9.273374    6.798123    1.862066
    124          1           0       -8.034399   -1.094125   -1.747116
    125          1           0      -12.855991   -4.767521    0.287542
    126          1           0      -16.686808    0.444643    0.201313
    127          1           0       -9.276892    3.594617   -1.222013
    128          1           0       -7.412744    1.269121   -0.986361
    129          1           0       -7.172001    2.036108   -3.128924
    130          1           0       -8.793846    2.893044   -3.172554
    131          1           0       -8.653660    1.102140   -3.475260
    132          1           0       -8.071046    4.402543    0.397311
    133          1           0       -7.180512    2.892969    0.342325
    134          1           0       -8.683927    1.892639    2.016883
    135          1           0       -9.577768    3.403942    2.208478
    136          1           0       -7.379180   -4.212241   -0.928701
    137          1           0       -7.500099   -2.918943   -2.189799
    138          1           0       -7.996039   -4.544387   -2.618013
    139          1           0      -11.594566   -6.397632    1.210665
    140          1           0      -11.093849   -7.665968    0.263323
    141          1           0      -12.150652   -6.474524   -0.553461
    142          1           0      -15.021677   -3.689329    1.603609
    143          1           0      -16.641261   -2.550974   -0.714034
    144          1           0      -15.497812   -5.710807    0.415359
    145          1           0      -15.034139   -4.950257   -1.065284
    146          1           0      -16.688057   -4.682007   -0.495416
    147          1           0      -17.398787   -1.067718    1.706645
    148          1           0      -16.978013   -2.656753    2.210215
    149          1           0      -19.156665   -3.035749    1.835241
    150          1           0      -18.873612   -3.195841    0.071735
    151          1           0      -19.333180   -1.622136    0.630964
    152          1           0      -16.737700    4.328662    0.053880
    153          1           0      -16.618944    3.335511    1.517365
    154          1           0      -17.260463    2.730954   -0.157428
    155          1           0      -11.348771    4.969081   -0.750018
    156          1           0       -8.472506    7.339354    1.357111
    157          1           0       -8.824334    6.233483    2.679382
    158          1           0      -10.095143    7.441540    2.173248
 ---------------------------------------------------------------------

 SCF Done:  E(RwB97XD) =  -4070.57000158     A.U. after   19 cycles

 Excitation energies and oscillator strengths:

 Excited State   1:      Singlet-A      1.6111 eV  769.54 nm  f=0.3674  <S**2>=0.000
     309 -> 316        0.16140
     311 -> 313        0.68841
     309 <- 316        0.10992
 This state for optimization and/or second-order correction.
 Total Energy, E(TD-HF/TD-DFT) =  -4070.51079324
 Copying the excited state density for this state as the 1-particle RhoCI density.

 Excited State   2:      Singlet-A      1.7217 eV  720.12 nm  f=0.3712  <S**2>=0.000
     310 -> 315       -0.19590
     312 -> 314        0.67964
     310 <- 315       -0.11418

 Excited State   3:      Singlet-A      2.2243 eV  557.40 nm  f=0.0624  <S**2>=0.000
     310 -> 314        0.61236
     312 -> 315        0.33756

 Excited State   4:      Singlet-A      2.2280 eV  556.48 nm  f=0.0712  <S**2>=0.000
     309 -> 313        0.61580
     311 -> 316       -0.32408

 Excited State   5:      Singlet-A      3.6481 eV  339.86 nm  f=0.0000  <S**2>=0.000
     312 -> 313        0.70700

 The electronic state is 1-A.
 Alpha  occ. eigenvalues --  -46.95587 -46.94321 -19.30506 -19.29152 -19.25002
 Alpha  occ. eigenvalues --  -19.24290 -19.24063 -19.23303 -19.22699 -19.22033
 Alpha  occ. eigenvalues --  -14.47000 -14.46298 -14.46131 -14.45649 -14.44662
 Alpha  occ. eigenvalues --  -14.44301 -14.43343 -14.43206 -10.42903 -10.42121
 Alpha  occ. eigenvalues --  -10.39972 -10.39445 -10.37536 -10.37465 -10.36000
 Alpha  occ. eigenvalues --  -10.35811 -10.35685 -10.34954 -10.34947 -10.34902
 Alpha  occ. eigenvalues --  -10.34884 -10.34639 -10.34472 -10.34460 -10.34422
 Alpha  occ. eigenvalues --  -10.34306 -10.34253 -10.33133 -10.33039 -10.32996
 Alpha  occ. eigenvalues --  -10.32918 -10.32885 -10.32742 -10.32681 -10.32497
 Alpha  occ. eigenvalues --  -10.32388 -10.32332 -10.32031 -10.32009 -10.31937
 Alpha  occ. eigenvalues --  -10.31905 -10.31901 -10.31821 -10.31784 -10.31763
 Alpha  occ. eigenvalues --  -10.31756 -10.31656 -10.31619 -10.31613 -10.31604
 Alpha  occ. eigenvalues --  -10.31560 -10.31475 -10.31405 -10.31378 -10.31325
 Alpha  occ. eigenvalues --  -10.31211 -10.31160 -10.31053 -10.30763 -10.30739
 Alpha  occ. eigenvalues --  -10.30625 -10.30593 -10.30428 -10.30194 -10.30166
 Alpha  occ. eigenvalues --  -10.30153 -10.29932 -10.29915 -10.29819 -10.29812
 Alpha  occ. eigenvalues --  -10.29745 -10.29634 -10.29021 -10.29019 -10.28070
 Alpha  occ. eigenvalues --  -10.27879  -3.21528  -3.20579  -1.95086  -1.94672
 Alpha  occ. eigenvalues --   -1.94475  -1.94141  -1.93724  -1.93590  -1.18171
 Alpha  occ. eigenvalues --   -1.17029  -1.13793  -1.12873  -1.11227  -1.09578
 Alpha  occ. eigenvalues --   -1.08795  -1.08123  -1.07660  -1.06773  -1.06764
 Alpha  occ. eigenvalues --   -1.06124  -1.05967  -1.05028  -1.04861  -1.02287
 Alpha  occ. eigenvalues --   -0.94328  -0.93817  -0.91622  -0.91198  -0.90820
 Alpha  occ. eigenvalues --   -0.90434  -0.90366  -0.89917  -0.89867  -0.89408
 Alpha  occ. eigenvalues --   -0.88732  -0.88579  -0.88498  -0.87934  -0.86312
 Alpha  occ. eigenvalues --   -0.86227  -0.85537  -0.85488  -0.84651  -0.84592
 Alpha  occ. eigenvalues --   -0.84520  -0.84197  -0.83011  -0.82854  -0.82505
 Alpha  occ. eigenvalues --   -0.82048  -0.81027  -0.79954  -0.79598  -0.79390
 Alpha  occ. eigenvalues --   -0.78916  -0.78357  -0.77859  -0.77654  -0.77153
 Alpha  occ. eigenvalues --   -0.77126  -0.74937  -0.74630  -0.73683  -0.73623
 Alpha  occ. eigenvalues --   -0.71571  -0.71502  -0.71029  -0.70900  -0.70146
 Alpha  occ. eigenvalues --   -0.69499  -0.69339  -0.68853  -0.68077  -0.67370
 Alpha  occ. eigenvalues --   -0.67309  -0.66918  -0.66767  -0.66619  -0.65766
 Alpha  occ. eigenvalues --   -0.65451  -0.64051  -0.63720  -0.63175  -0.61598
 Alpha  occ. eigenvalues --   -0.61309  -0.61284  -0.61051  -0.60965  -0.59899
 Alpha  occ. eigenvalues --   -0.59875  -0.59810  -0.59543  -0.59456  -0.59126
 Alpha  occ. eigenvalues --   -0.58697  -0.58342  -0.58100  -0.57254  -0.57106
 Alpha  occ. eigenvalues --   -0.57039  -0.56597  -0.56465  -0.56415  -0.56117
 Alpha  occ. eigenvalues --   -0.55617  -0.55566  -0.55365  -0.55139  -0.54686
 Alpha  occ. eigenvalues --   -0.54614  -0.54580  -0.54455  -0.54366  -0.54188
 Alpha  occ. eigenvalues --   -0.54181  -0.53674  -0.53619  -0.53305  -0.53212
 Alpha  occ. eigenvalues --   -0.53077  -0.52921  -0.52552  -0.52518  -0.52437
 Alpha  occ. eigenvalues --   -0.52152  -0.51834  -0.51509  -0.51483  -0.51462
 Alpha  occ. eigenvalues --   -0.51277  -0.51029  -0.50779  -0.50735  -0.50653
 Alpha  occ. eigenvalues --   -0.50498  -0.50200  -0.50033  -0.50006  -0.49953
 Alpha  occ. eigenvalues --   -0.49737  -0.49635  -0.49498  -0.49113  -0.49054
 Alpha  occ. eigenvalues --   -0.48793  -0.48758  -0.48712  -0.48603  -0.48445
 Alpha  occ. eigenvalues --   -0.48416  -0.48086  -0.47632  -0.47597  -0.47412
 Alpha  occ. eigenvalues --   -0.47348  -0.47157  -0.47050  -0.46823  -0.46787
 Alpha  occ. eigenvalues --   -0.46471  -0.46271  -0.46096  -0.45868  -0.45825
 Alpha  occ. eigenvalues --   -0.45783  -0.45780  -0.45521  -0.45340  -0.45247
 Alpha  occ. eigenvalues --   -0.45082  -0.44859  -0.44820  -0.44792  -0.44590
 Alpha  occ. eigenvalues --   -0.44423  -0.44390  -0.44166  -0.44085  -0.44002
 Alpha  occ. eigenvalues --   -0.43847  -0.43802  -0.43621  -0.43532  -0.43176
 Alpha  occ. eigenvalues --   -0.42997  -0.42897  -0.42720  -0.42715  -0.42475
 Alpha  occ. eigenvalues --   -0.41762  -0.41514  -0.41184  -0.41128  -0.40934
 Alpha  occ. eigenvalues --   -0.40391  -0.40382  -0.40110  -0.39291  -0.39173
 Alpha  occ. eigenvalues --   -0.39061  -0.38493  -0.38442  -0.38323  -0.38223
 Alpha  occ. eigenvalues --   -0.37733  -0.37170  -0.36356  -0.36255  -0.35750
 Alpha  occ. eigenvalues --   -0.35455  -0.34972  -0.34858  -0.34654  -0.33679
 Alpha  occ. eigenvalues --   -0.33422  -0.33089  -0.32947  -0.32254  -0.32080
 Alpha  occ. eigenvalues --   -0.31876  -0.31483  -0.31090  -0.26334  -0.25778
 Alpha  occ. eigenvalues --   -0.22516  -0.22445
 Alpha virt. eigenvalues --   -0.06855  -0.06181   0.00138   0.00195   0.02282
 Alpha virt. eigenvalues --    0.03215   0.04533   0.04567   0.04702   0.05857
 Alpha virt. eigenvalues --    0.07139   0.07533   0.07838   0.08465   0.08834

 Mulliken charges:
               1
     1  Mg   0.993016
     2  C    0.010944
     3  C   -0.117808
     4  C   -0.080815
     5  C   -0.116885
     6  N   -0.330575
     7  C   -0.017012
     8  C   -0.037093
     9  C   -0.154001
    10  C    0.076234
    11  C    0.047348
    12  C    0.007277
    13  C   -0.125966
    14  H    0.026239
    15  N   -0.509678
    16  C    0.180107
    17  C   -0.131559
    18  C   -0.119516
    19  C    0.182653
    20  C    0.046490
    21  C    0.071459
    22  O   -0.201822
    23  C   -0.024839
    24  N   -0.321201
    25  C    0.020872
    26  C   -0.086059
    27  C   -0.050126
    28  C   -0.008311
    29  C    0.024204
    30  C   -0.010787
    31  C   -0.046780
    32  N   -0.398895
    33  C    0.159822
    34  C   -0.186918
    35  C    0.034851
    36  C    0.091588
    37  C    0.104735
    38  C    0.050728
    39  O   -0.214200
    40  C   -0.074740
    41  C    0.264500
    42  O   -0.268090
    43  O   -0.355889
    44  C    0.151849
    45  H   -0.008515
    46  H    0.016555
    47  H   -0.010437
    48  H    0.043036
    49  H    0.031821
    50  H    0.045801
    51  H    0.038536
    52  H    0.045828
    53  H    0.033223
    54  H    0.041204
    55  H    0.048946
    56  H    0.062422
    57  H    0.060482
    58  H    0.029632
    59  H    0.066477
    60  H    0.061391
    61  H    0.069319
    62  H    0.048038
    63  H    0.035073
    64  H    0.029259
    65  H    0.038287
    66  H    0.025970
    67  H    0.050272
    68  H    0.032329
    69  H    0.032354
    70  H    0.028475
    71  H    0.041207
    72  H    0.043840
    73  H    0.059558
    74  H    0.064032
    75  H    0.019736
    76  H    0.072529
    77  H    0.061376
    78  H    0.057380
    79  H    0.029215
    80  Mg   0.954241
    81  C   -0.033032
    82  C   -0.083053
    83  C   -0.079721
    84  C   -0.083120
    85  N   -0.368367
    86  C   -0.053452
    87  C   -0.004828
    88  C   -0.142334
    89  C    0.044526
    90  C    0.036999
    91  C    0.030290
    92  C   -0.102102
    93  H    0.037540
    94  N   -0.471054
    95  C    0.145100
    96  C   -0.159757
    97  C   -0.079484
    98  C    0.169772
    99  C    0.104845
   100  C    0.036164
   101  O   -0.227276
   102  C    0.001993
   103  N   -0.386222
   104  C    0.091702
   105  C   -0.126897
   106  C   -0.015462
   107  C    0.025567
   108  C    0.031641
   109  C   -0.022211
   110  C   -0.061831
   111  N   -0.378322
   112  C    0.092589
   113  C   -0.180619
   114  C   -0.010868
   115  C    0.118792
   116  C    0.073281
   117  C    0.083762
   118  O   -0.250785
   119  C   -0.041345
   120  C    0.265366
   121  O   -0.260752
   122  O   -0.368651
   123  C    0.138652
   124  H    0.004326
   125  H   -0.041773
   126  H   -0.009118
   127  H    0.025584
   128  H    0.040281
   129  H    0.048664
   130  H    0.050321
   131  H    0.040775
   132  H    0.031380
   133  H    0.017862
   134  H    0.047251
   135  H    0.071915
   136  H    0.074016
   137  H    0.022155
   138  H    0.060927
   139  H    0.076760
   140  H    0.049006
   141  H    0.056459
   142  H    0.052270
   143  H    0.031415
   144  H    0.041555
   145  H    0.036522
   146  H    0.042304
   147  H    0.044447
   148  H    0.024567
   149  H    0.051142
   150  H    0.034900
   151  H    0.047358
   152  H    0.051471
   153  H    0.071703
   154  H    0.038655
   155  H    0.074167
   156  H    0.059564
   157  H    0.067272
   158  H    0.072617
 Sum of Mulliken charges =  -0.00000

 Dipole moment (field-independent basis, Debye):
    X=              2.2818    Y=              0.4977    Z=             -5.8364  Tot=              6.2863
 Quadrupole moment (field-independent basis, Debye-Ang):
   XX=           -417.7608   YY=           -530.0232   ZZ=           -480.4525
   XY=            116.1606   XZ=              5.9239   YZ=            -23.1231

 Normal termination of Gaussian 16 at Fri Sep 17 11:53:46 2021.
