 Gaussian 16, Revision A.03,
 Gaussian 16:  ES64L-G16RevA.03 25-Dec-2016

 --------------------------------
 #p wB97XD/Def2SVP td=(nstates=5)
 --------------------------------

 --------------------------------
 TDDFT excited states in gaussian
 --------------------------------
 Symbolic Z-matrix:
 Charge =  0 Multiplicity = 1

                         Standard orientation:
 ---------------------------------------------------------------------
 Center     Atomic      Atomic             Coordinates (Angstroms)
 Number     Number       Type             X           Y           Z
 ---------------------------------------------------------------------
      1         12           0       26.502814   -0.558245    0.102488
      2          6           0       24.648513    2.138658    1.406782
      3          6           0       28.336789    1.642692   -1.720451
      4          6           0       28.172541   -3.192331   -1.206538
      5          6           0       24.292445   -2.742810    1.651838
      6          7           0       26.435438    1.592264   -0.205886
      7          6           0       25.671113    2.511266    0.518276
      8          6           0       26.131286    3.901835    0.198695
      9          6           0       26.923891    3.697088   -1.114175
     10          6           0       27.263863    2.187949   -1.009745
     11          6           0       26.178561    3.975109   -2.457669
     12          6           0       26.971385    4.622692    1.319210
     13          6           0       26.537704    6.023463    1.613433
     14          1           0       27.654451    7.075533    1.747639
     15          7           0       28.070614   -0.715409   -1.160072
     16          6           0       28.783603    0.332888   -1.765270
     17          6           0       29.855858   -0.184124   -2.518211
     18          6           0       29.852428   -1.652262   -2.388270
     19          6           0       28.703685   -1.905039   -1.566054
     20          6           0       30.756206    0.607306   -3.421171
     21          6           0       30.755098   -2.792067   -3.032412
     22          8           0       30.575585   -3.954878   -2.757920
     23          6           0       31.933800   -2.444462   -3.930410
     24          7           0       26.191293   -2.671990    0.124786
     25          6           0       27.025300   -3.529032   -0.518961
     26          6           0       26.525900   -5.039545   -0.320689
     27          6           0       25.455045   -4.908274    0.848991
     28          6           0       25.281620   -3.330426    0.892825
     29          6           0       25.930411   -5.738408   -1.574125
     30          6           0       25.924971   -5.503427    2.223986
     31          6           0       24.942515   -6.458512    2.759043
     32          7           0       24.788186   -0.373390    1.246370
     33          6           0       24.052506   -1.359038    1.902610
     34          6           0       23.019048   -0.750447    2.695225
     35          6           0       23.199134    0.604808    2.507537
     36          6           0       24.258262    0.797749    1.677723
     37          6           0       22.057876   -1.576424    3.589353
     38          6           0       22.679509    1.919497    2.836336
     39          8           0       21.668983    2.190850    3.446646
     40          6           0       23.613894    2.998494    2.093942
     41          6           0       22.782453    3.801686    1.178817
     42          8           0       22.090517    3.325809    0.240806
     43          8           0       22.869972    5.109946    1.555136
     44          6           0       21.809829    5.983331    0.985652
     45          1           0       28.854775    2.403852   -2.307567
     46          1           0       28.644253   -4.096645   -1.596185
     47          1           0       23.566058   -3.440317    2.072899
     48          1           0       25.328071    4.578477   -0.095528
     49          1           0       27.825110    4.307100   -1.178104
     50          1           0       25.448248    4.783223   -2.399304
     51          1           0       25.704529    3.039428   -2.755268
     52          1           0       26.814662    4.165151   -3.321792
     53          1           0       28.003878    4.567659    0.974727
     54          1           0       26.981800    4.047274    2.245352
     55          1           0       25.982743    5.877637    2.540311
     56          1           0       25.933036    6.399314    0.788180
     57          1           0       31.772442    0.761884   -3.057913
     58          1           0       30.372238    1.623147   -3.505513
     59          1           0       30.891303    0.265115   -4.446858
     60          1           0       32.452964   -3.385533   -4.107768
     61          1           0       32.529678   -1.631106   -3.515274
     62          1           0       31.577958   -1.917632   -4.816291
     63          1           0       27.374278   -5.682190   -0.084832
     64          1           0       24.529110   -5.381583    0.518925
     65          1           0       25.827198   -5.124805   -2.469682
     66          1           0       24.934759   -6.148304   -1.402712
     67          1           0       26.590456   -6.574436   -1.806950
     68          1           0       25.990701   -4.690800    2.948421
     69          1           0       26.868274   -6.047776    2.184730
     70          1           0       25.285470   -7.469175    2.536026
     71          1           0       23.893623   -6.350657    2.485101
     72          1           0       24.857498   -6.321531    3.837111
     73          1           0       22.478227   -2.572009    3.733520
     74          1           0       21.032871   -1.537936    3.217761
     75          1           0       22.106105   -1.079388    4.557518
     76          1           0       24.117751    3.651830    2.806700
     77          1           0       21.858844    6.976701    1.431342
     78          1           0       20.873868    5.563390    1.354704
     79          1           0       21.913559    5.935660   -0.098715
     80         12           0      -26.322646   -0.734646    0.009110
     81          6           0      -25.177816    2.444055   -1.253839
     82          6           0      -26.850100    0.879926    3.077053
     83          6           0      -27.480674   -3.589136    1.145222
     84          6           0      -25.433603   -2.211761   -3.032084
     85          7           0      -25.995488    1.471529    0.785421
     86          6           0      -25.739472    2.589692    0.056438
     87          6           0      -26.025151    3.859267    0.841940
     88          6           0      -26.232131    3.336404    2.371287
     89          6           0      -26.342463    1.811353    2.082527
     90          6           0      -25.130554    3.775973    3.368032
     91          6           0      -27.253740    4.653102    0.282498
     92          6           0      -26.932031    6.118790   -0.108573
     93          1           0      -27.727113    7.229944    0.791248
     94          7           0      -27.045999   -1.259416    1.798138
     95          6           0      -27.184737   -0.498793    3.008246
     96          6           0      -27.774212   -1.273057    4.126081
     97          6           0      -27.995541   -2.546917    3.507365
     98          6           0      -27.510768   -2.497959    2.117766
     99          6           0      -28.012319   -0.734392    5.538215
    100          6           0      -28.515956   -3.790524    4.121236
    101          8           0      -28.905163   -4.780045    3.510398
    102          6           0      -28.720622   -3.808988    5.648810
    103          7           0      -26.586412   -2.543651   -0.884181
    104          6           0      -27.065457   -3.604378   -0.195048
    105          6           0      -26.897154   -4.905810   -0.928721
    106          6           0      -26.287221   -4.501063   -2.293336
    107          6           0      -26.128972   -2.974251   -2.114780
    108          6           0      -26.142881   -5.972500   -0.162968
    109          6           0      -27.324871   -4.846834   -3.515951
    110          6           0      -26.719308   -5.756678   -4.717511
    111          7           0      -25.229842   -0.113309   -1.705795
    112          6           0      -25.032014   -0.847081   -2.900235
    113          6           0      -24.426636    0.058020   -3.883826
    114          6           0      -24.611200    1.341123   -3.304806
    115          6           0      -24.977318    1.171422   -1.968717
    116          6           0      -23.809246   -0.246428   -5.245434
    117          6           0      -24.246453    2.768855   -3.526868
    118          8           0      -23.673135    3.418332   -4.444981
    119          6           0      -24.733938    3.518898   -2.227375
    120          6           0      -23.594278    4.336997   -1.695649
    121          8           0      -22.466118    3.943493   -1.601850
    122          8           0      -24.021040    5.613627   -1.455788
    123          6           0      -22.895426    6.561271   -1.257001
    124          1           0      -26.868007    1.394039    4.040074
    125          1           0      -27.849639   -4.566734    1.463361
    126          1           0      -25.183034   -2.643107   -4.003235
    127          1           0      -25.105706    4.443903    0.810520
    128          1           0      -27.198916    3.625640    2.784194
    129          1           0      -24.567418    2.914891    3.729110
    130          1           0      -25.570556    4.311185    4.210493
    131          1           0      -24.422472    4.517534    2.998080
    132          1           0      -28.066039    4.703386    1.008043
    133          1           0      -27.654477    4.189958   -0.619566
    134          1           0      -27.315597    6.393545   -1.091511
    135          1           0      -25.871584    6.361744   -0.168059
    136          1           0      -28.018508    0.349059    5.661478
    137          1           0      -27.360291   -1.140402    6.311530
    138          1           0      -29.014994   -1.074469    5.799193
    139          1           0      -27.769925   -3.660563    6.160836
    140          1           0      -29.214585   -4.719293    5.990259
    141          1           0      -29.384591   -2.983374    5.904897
    142          1           0      -27.883878   -5.357702   -1.038714
    143          1           0      -25.306938   -4.954039   -2.438570
    144          1           0      -26.778831   -6.782706    0.194784
    145          1           0      -25.672468   -5.633853    0.760070
    146          1           0      -25.353208   -6.353259   -0.811018
    147          1           0      -27.743709   -3.967068   -4.003421
    148          1           0      -28.201648   -5.397046   -3.175458
    149          1           0      -25.857855   -6.267913   -4.287362
    150          1           0      -26.431823   -5.152698   -5.579112
    151          1           0      -27.393727   -6.572452   -4.976534
    152          1           0      -23.945104    0.572593   -5.951457
    153          1           0      -24.391175   -1.054130   -5.690893
    154          1           0      -22.806113   -0.592060   -4.995294
    155          1           0      -25.477865    4.238722   -2.567795
    156          1           0      -22.264002    6.153148   -0.468032
    157          1           0      -23.380799    7.444812   -0.842720
    158          1           0      -22.228199    6.778556   -2.091041
 ---------------------------------------------------------------------

 SCF Done:  E(RwB97XD) =  -4070.61979883     A.U. after   20 cycles

 Excitation energies and oscillator strengths:

 Excited State   1:      Singlet-A      1.6156 eV  767.44 nm  f=0.3702  <S**2>=0.000
     310 -> 315        0.19318
     312 -> 314        0.68205
     310 <- 315        0.12122
 This state for optimization and/or second-order correction.
 Total Energy, E(TD-HF/TD-DFT) =  -4070.56042838
 Copying the excited state density for this state as the 1-particle RhoCI density.

 Excited State   2:      Singlet-A      1.6894 eV  733.89 nm  f=0.3946  <S**2>=0.000
     309 -> 316       -0.18339
     311 -> 313        0.68255
     309 <- 316       -0.11555

 Excited State   3:      Singlet-A      2.1192 eV  585.07 nm  f=0.1292  <S**2>=0.000
     310 -> 314        0.64520
     312 -> 315       -0.27991

 Excited State   4:      Singlet-A      2.1431 eV  578.53 nm  f=0.1548  <S**2>=0.000
     309 -> 313        0.65152
     311 -> 316        0.25247

 Excited State   5:      Singlet-A      3.1997 eV  387.48 nm  f=0.0021  <S**2>=0.000
     306 -> 313        0.29715
     307 -> 313        0.62278

 The electronic state is 1-A.
 Alpha  occ. eigenvalues --  -46.94848 -46.93535 -19.30864 -19.30852 -19.24927
 Alpha  occ. eigenvalues --  -19.24650 -19.24465 -19.24060 -19.24002 -19.23731
 Alpha  occ. eigenvalues --  -14.47236 -14.46667 -14.46487 -14.46085 -14.45357
 Alpha  occ. eigenvalues --  -14.43961 -14.43816 -14.43139 -10.43269 -10.42640
 Alpha  occ. eigenvalues --  -10.40350 -10.39168 -10.39108 -10.39029 -10.35900
 Alpha  occ. eigenvalues --  -10.35899 -10.35674 -10.35660 -10.35613 -10.35284
 Alpha  occ. eigenvalues --  -10.35063 -10.34902 -10.34891 -10.34761 -10.34726
 Alpha  occ. eigenvalues --  -10.34682 -10.34643 -10.34413 -10.33999 -10.33963
 Alpha  occ. eigenvalues --  -10.33279 -10.33143 -10.33110 -10.33071 -10.32944
 Alpha  occ. eigenvalues --  -10.32904 -10.32698 -10.32606 -10.32517 -10.32493
 Alpha  occ. eigenvalues --  -10.32358 -10.32217 -10.32174 -10.32143 -10.32028
 Alpha  occ. eigenvalues --  -10.32016 -10.31853 -10.31839 -10.31821 -10.31809
 Alpha  occ. eigenvalues --  -10.31690 -10.31664 -10.31469 -10.31269 -10.31188
 Alpha  occ. eigenvalues --  -10.31177 -10.31147 -10.31020 -10.30704 -10.30620
 Alpha  occ. eigenvalues --  -10.30447 -10.30413 -10.30343 -10.30176 -10.29964
 Alpha  occ. eigenvalues --  -10.29945 -10.29939 -10.29924 -10.29845 -10.29715
 Alpha  occ. eigenvalues --  -10.29599 -10.29335 -10.29195 -10.29176 -10.28432
 Alpha  occ. eigenvalues --  -10.28331  -3.20924  -3.19670  -1.94514  -1.94050
 Alpha  occ. eigenvalues --   -1.93913  -1.93271  -1.92788  -1.92671  -1.19105
 Alpha  occ. eigenvalues --   -1.17923  -1.13950  -1.12537  -1.12200  -1.10859
 Alpha  occ. eigenvalues --   -1.09275  -1.08505  -1.06943  -1.05967  -1.05340
 Alpha  occ. eigenvalues --   -1.05260  -1.04617  -1.04562  -1.04053  -1.03501
 Alpha  occ. eigenvalues --   -0.94534  -0.93527  -0.91064  -0.90597  -0.90546
 Alpha  occ. eigenvalues --   -0.90348  -0.89988  -0.89930  -0.89344  -0.88954
 Alpha  occ. eigenvalues --   -0.88932  -0.88374  -0.87758  -0.87534  -0.86207
 Alpha  occ. eigenvalues --   -0.85930  -0.85695  -0.85045  -0.84804  -0.84044
 Alpha  occ. eigenvalues --   -0.83685  -0.83324  -0.83134  -0.82625  -0.82603
 Alpha  occ. eigenvalues --   -0.81698  -0.81072  -0.80223  -0.79234  -0.79001
 Alpha  occ. eigenvalues --   -0.78690  -0.78681  -0.77949  -0.77641  -0.77154
 Alpha  occ. eigenvalues --   -0.76820  -0.74857  -0.74535  -0.73387  -0.72908
 Alpha  occ. eigenvalues --   -0.71145  -0.70645  -0.70595  -0.70018  -0.69518
 Alpha  occ. eigenvalues --   -0.69513  -0.69090  -0.68518  -0.67814  -0.67590
 Alpha  occ. eigenvalues --   -0.67453  -0.67093  -0.66577  -0.66396  -0.66043
 Alpha  occ. eigenvalues --   -0.66002  -0.64328  -0.63926  -0.62826  -0.62332
 Alpha  occ. eigenvalues --   -0.62089  -0.61246  -0.61206  -0.60722  -0.60315
 Alpha  occ. eigenvalues --   -0.60143  -0.59910  -0.59683  -0.59583  -0.59116
 Alpha  occ. eigenvalues --   -0.58178  -0.58137  -0.57636  -0.57412  -0.57242
 Alpha  occ. eigenvalues --   -0.56931  -0.56881  -0.56448  -0.55712  -0.55705
 Alpha  occ. eigenvalues --   -0.55528  -0.55380  -0.55333  -0.54613  -0.54564
 Alpha  occ. eigenvalues --   -0.54505  -0.54495  -0.54125  -0.53819  -0.53740
 Alpha  occ. eigenvalues --   -0.53599  -0.53507  -0.53321  -0.53272  -0.52963
 Alpha  occ. eigenvalues --   -0.52803  -0.52759  -0.52438  -0.52396  -0.52049
 Alpha  occ. eigenvalues --   -0.51962  -0.51877  -0.51737  -0.51693  -0.51393
 Alpha  occ. eigenvalues --   -0.51352  -0.51342  -0.51146  -0.51102  -0.50714
 Alpha  occ. eigenvalues --   -0.50640  -0.50195  -0.50034  -0.49928  -0.49884
 Alpha  occ. eigenvalues --   -0.49575  -0.49523  -0.49401  -0.49161  -0.48962
 Alpha  occ. eigenvalues --   -0.48758  -0.48750  -0.48565  -0.48470  -0.48379
 Alpha  occ. eigenvalues --   -0.48115  -0.48057  -0.47858  -0.47771  -0.47670
 Alpha  occ. eigenvalues --   -0.47472  -0.47312  -0.46983  -0.46889  -0.46727
 Alpha  occ. eigenvalues --   -0.46686  -0.46663  -0.46580  -0.46397  -0.46324
 Alpha  occ. eigenvalues --   -0.46280  -0.46015  -0.45771  -0.45706  -0.45346
 Alpha  occ. eigenvalues --   -0.45257  -0.45252  -0.44858  -0.44780  -0.44753
 Alpha  occ. eigenvalues --   -0.44567  -0.44526  -0.44295  -0.44172  -0.43996
 Alpha  occ. eigenvalues --   -0.43868  -0.43783  -0.43491  -0.43244  -0.43132
 Alpha  occ. eigenvalues --   -0.42875  -0.42692  -0.42588  -0.42366  -0.42342
 Alpha  occ. eigenvalues --   -0.42052  -0.41960  -0.41289  -0.41039  -0.40728
 Alpha  occ. eigenvalues --   -0.40500  -0.40269  -0.40155  -0.39893  -0.39751
 Alpha  occ. eigenvalues --   -0.39430  -0.39318  -0.38760  -0.38506  -0.38399
 Alpha  occ. eigenvalues --   -0.37914  -0.37494  -0.36624  -0.36377  -0.36229
 Alpha  occ. eigenvalues --   -0.36096  -0.35371  -0.35236  -0.33844  -0.33739
 Alpha  occ. eigenvalues --   -0.33477  -0.32951  -0.32826  -0.32581  -0.32463
 Alpha  occ. eigenvalues --   -0.32155  -0.31744  -0.31487  -0.25878  -0.25803
 Alpha  occ. eigenvalues --   -0.23335  -0.23097
 Alpha virt. eigenvalues --   -0.07365  -0.07330   0.00086   0.00645   0.02188
 Alpha virt. eigenvalues --    0.02788   0.04165   0.04877   0.06479   0.06580
 Alpha virt. eigenvalues --    0.06702   0.06805   0.07737   0.07918   0.08052

 Mulliken charges:
               1
     1  Mg   0.978610
     2  C   -0.032809
     3  C   -0.099707
     4  C   -0.063541
     5  C   -0.089524
     6  N   -0.322128
     7  C    0.015245
     8  C   -0.082441
     9  C   -0.128392
    10  C    0.030488
    11  C    0.020656
    12  C    0.044915
    13  C   -0.121178
    14  H    0.030801
    15  N   -0.523072
    16  C    0.241978
    17  C   -0.149302
    18  C   -0.081272
    19  C    0.154468
    20  C    0.041942
    21  C    0.076155
    22  O   -0.213774
    23  C   -0.007611
    24  N   -0.359228
    25  C    0.071642
    26  C   -0.108332
    27  C   -0.079706
    28  C    0.063528
    29  C    0.008304
    30  C    0.027459
    31  C   -0.074072
    32  N   -0.443812
    33  C    0.130334
    34  C   -0.214778
    35  C    0.007919
    36  C    0.121450
    37  C    0.094275
    38  C    0.108403
    39  O   -0.190832
    40  C   -0.042028
    41  C    0.275669
    42  O   -0.281925
    43  O   -0.372067
    44  C    0.141507
    45  H   -0.011127
    46  H    0.021691
    47  H   -0.003610
    48  H    0.026702
    49  H    0.025652
    50  H    0.045056
    51  H    0.043262
    52  H    0.033155
    53  H    0.030097
    54  H    0.030087
    55  H    0.065262
    56  H    0.054105
    57  H    0.051080
    58  H    0.023060
    59  H    0.045345
    60  H    0.070843
    61  H    0.046626
    62  H    0.048692
    63  H    0.037837
    64  H    0.037789
    65  H    0.044178
    66  H    0.029751
    67  H    0.037016
    68  H    0.035358
    69  H    0.037539
    70  H    0.038904
    71  H    0.028209
    72  H    0.026662
    73  H    0.030841
    74  H    0.066471
    75  H    0.049372
    76  H    0.057591
    77  H    0.060436
    78  H    0.064182
    79  H    0.067672
    80  Mg   0.990466
    81  C   -0.017367
    82  C   -0.078487
    83  C   -0.086407
    84  C   -0.079844
    85  N   -0.298131
    86  C   -0.019869
    87  C   -0.052969
    88  C   -0.107245
    89  C    0.010903
    90  C    0.015727
    91  C    0.042944
    92  C   -0.139072
    93  H   -0.009646
    94  N   -0.512375
    95  C    0.177245
    96  C   -0.130232
    97  C   -0.070955
    98  C    0.182181
    99  C    0.070219
   100  C    0.029606
   101  O   -0.236671
   102  C   -0.016456
   103  N   -0.420600
   104  C    0.093814
   105  C   -0.078854
   106  C   -0.074218
   107  C    0.102025
   108  C    0.012640
   109  C   -0.031799
   110  C   -0.079638
   111  N   -0.424449
   112  C    0.112521
   113  C   -0.186449
   114  C   -0.110842
   115  C    0.145438
   116  C    0.092650
   117  C    0.193664
   118  O   -0.247701
   119  C   -0.086768
   120  C    0.237228
   121  O   -0.214969
   122  O   -0.372196
   123  C    0.133772
   124  H   -0.004489
   125  H    0.020939
   126  H   -0.003311
   127  H    0.041576
   128  H    0.042926
   129  H    0.048275
   130  H    0.034628
   131  H    0.041321
   132  H    0.049081
   133  H    0.046166
   134  H    0.054718
   135  H    0.060369
   136  H    0.047059
   137  H    0.062965
   138  H    0.044827
   139  H    0.052802
   140  H    0.053682
   141  H    0.038460
   142  H    0.046239
   143  H    0.048440
   144  H    0.040254
   145  H    0.042100
   146  H    0.029156
   147  H    0.043040
   148  H    0.034657
   149  H    0.027529
   150  H    0.051960
   151  H    0.040920
   152  H    0.063921
   153  H    0.026438
   154  H    0.068713
   155  H    0.067073
   156  H    0.050153
   157  H    0.052097
   158  H    0.076484
 Sum of Mulliken charges =  -0.00000

 Dipole moment (field-independent basis, Debye):
    X=              1.7442    Y=              1.1605    Z=              2.6023  Tot=              3.3408
 Quadrupole moment (field-independent basis, Debye-Ang):
   XX=           -224.2767   YY=           -473.3510   ZZ=           -492.5542
   XY=             48.1131   XZ=           -151.7412   YZ=             13.7225

 Normal termination of Gaussian 16 at Sat Sep 18 18:41:46 2021.
