 Gaussian 16, Revision A.03,
 Gaussian 16:  ES64L-G16RevA.03 25-Dec-2016

 --------------------------------
 #p wB97XD/Def2SVP td=(nstates=5)
 --------------------------------

 --------------------------------
 TDDFT excited states in gaussian
 --------------------------------
 Symbolic Z-matrix:
 Charge =  0 Multiplicity = 1

                         Standard orientation:
 ---------------------------------------------------------------------
 Center     Atomic      Atomic             Coordinates (Angstroms)
 Number     Number       Type             X           Y           Z
 ---------------------------------------------------------------------
      1         12           0      -26.915787    0.627811    0.318720
      2          6           0      -24.708266   -1.780069    1.554825
      3          6           0      -28.409974   -1.949872   -1.529897
      4          6           0      -28.734612    2.872190   -1.370546
      5          6           0      -24.729316    3.075192    1.354562
      6          7           0      -26.672758   -1.692554    0.103623
      7          6           0      -25.641289   -2.352092    0.694816
      8          6           0      -25.663498   -3.882197    0.300998
      9          6           0      -26.728237   -3.855941   -0.908448
     10          6           0      -27.286556   -2.425080   -0.830104
     11          6           0      -25.917421   -3.984868   -2.246714
     12          6           0      -26.230267   -4.675434    1.535337
     13          6           0      -26.477222   -6.197971    1.354483
     14          1           0      -27.654999   -7.020032    1.786237
     15          7           0      -28.477452    0.442054   -1.060450
     16          6           0      -29.003634   -0.694603   -1.696715
     17          6           0      -30.021131   -0.269145   -2.563090
     18          6           0      -30.258232    1.088411   -2.393774
     19          6           0      -29.141546    1.525499   -1.572227
     20          6           0      -30.806162   -1.269076   -3.347221
     21          6           0      -31.319429    2.032676   -3.049067
     22          8           0      -31.439708    3.228397   -2.804680
     23          6           0      -32.463007    1.494184   -3.913124
     24          7           0      -26.664885    2.654378   -0.045979
     25          6           0      -27.638244    3.369524   -0.652921
     26          6           0      -27.461336    4.894465   -0.516436
     27          6           0      -26.103141    4.959960    0.235749
     28          6           0      -25.846652    3.522565    0.651570
     29          6           0      -27.622512    5.690225   -1.854123
     30          6           0      -25.985810    5.977157    1.403796
     31          6           0      -26.661029    5.616338    2.658497
     32          7           0      -25.138494    0.704871    1.341593
     33          6           0      -24.383469    1.721730    1.687320
     34          6           0      -23.250634    1.305809    2.520583
     35          6           0      -23.383994   -0.118790    2.475624
     36          6           0      -24.502612   -0.434903    1.729697
     37          6           0      -22.484679    2.083486    3.485781
     38          6           0      -22.778178   -1.343168    2.969084
     39          8           0      -21.864448   -1.515320    3.743630
     40          6           0      -23.599619   -2.456941    2.308502
     41          6           0      -22.718029   -3.399803    1.482835
     42          8           0      -22.298822   -3.148123    0.383077
     43          8           0      -22.431417   -4.520482    2.225112
     44          6           0      -21.586481   -5.488104    1.487975
     45          1           0      -28.947079   -2.776800   -1.997286
     46          1           0      -29.428893    3.635583   -1.728566
     47          1           0      -24.297465    4.024003    1.677636
     48          1           0      -24.701362   -4.231374   -0.074661
     49          1           0      -27.495438   -4.629415   -0.855561
     50          1           0      -25.812964   -3.078522   -2.842281
     51          1           0      -26.472020   -4.549912   -2.996280
     52          1           0      -24.917193   -4.398570   -2.119889
     53          1           0      -27.151702   -4.180159    1.840344
     54          1           0      -25.547556   -4.496110    2.366349
     55          1           0      -25.559011   -6.653717    1.726162
     56          1           0      -26.525973   -6.259161    0.267996
     57          1           0      -30.486993   -2.306556   -3.244343
     58          1           0      -30.888048   -0.899695   -4.370368
     59          1           0      -31.798467   -1.222494   -2.897757
     60          1           0      -32.134705    1.069851   -4.862007
     61          1           0      -33.286567    2.192198   -4.064392
     62          1           0      -32.949768    0.717937   -3.322399
     63          1           0      -28.318219    5.073607    0.132396
     64          1           0      -25.380794    5.191258   -0.547080
     65          1           0      -28.305743    5.179694   -2.532031
     66          1           0      -26.651531    5.767966   -2.343962
     67          1           0      -28.043916    6.684673   -1.705726
     68          1           0      -26.450966    6.859117    0.964605
     69          1           0      -24.938893    6.238498    1.559170
     70          1           0      -26.015997    4.958942    3.241260
     71          1           0      -27.641128    5.180512    2.465665
     72          1           0      -26.801007    6.480710    3.308306
     73          1           0      -23.150510    2.896773    3.775424
     74          1           0      -21.589171    2.616159    3.165353
     75          1           0      -22.232573    1.403635    4.298941
     76          1           0      -24.098903   -3.013796    3.102111
     77          1           0      -20.918382   -5.971773    2.200333
     78          1           0      -20.850235   -5.061259    0.806583
     79          1           0      -22.193719   -6.272103    1.036697
     80         12           0       26.681308    0.645576   -0.100917
     81          6           0       25.263483   -2.266289   -1.491251
     82          6           0       27.468935   -1.267885    2.667283
     83          6           0       27.984026    3.409395    1.421850
     84          6           0       25.556920    2.453124   -2.696643
     85          7           0       26.424038   -1.557391    0.507035
     86          6           0       25.940832   -2.606455   -0.265739
     87          6           0       26.252630   -3.935642    0.392143
     88          6           0       26.624133   -3.538721    1.867130
     89          6           0       26.863759   -2.060122    1.659621
     90          6           0       25.555177   -3.912406    2.967560
     91          6           0       27.431380   -4.672721   -0.260868
     92          6           0       27.299707   -6.198187   -0.323987
     93          1           0       27.378855   -7.004441    1.002196
     94          7           0       27.674074    1.010706    1.729584
     95          6           0       27.829379    0.074669    2.694058
     96          6           0       28.404643    0.696373    3.842297
     97          6           0       28.728812    2.058493    3.515830
     98          6           0       28.085672    2.214041    2.223061
     99          6           0       28.649102   -0.055529    5.121152
    100          6           0       29.405149    3.167727    4.321675
    101          8           0       29.747818    4.248714    3.793854
    102          6           0       29.634689    3.066767    5.825399
    103          7           0       26.835519    2.602774   -0.609452
    104          6           0       27.352054    3.614689    0.194179
    105          6           0       27.157326    4.927789   -0.491878
    106          6           0       26.438513    4.695072   -1.869344
    107          6           0       26.287458    3.167724   -1.782287
    108          6           0       26.541082    6.045035    0.402836
    109          6           0       27.233928    5.132208   -3.118495
    110          6           0       26.853336    6.535053   -3.629993
    111          7           0       25.610067    0.263055   -1.718653
    112          6           0       25.241757    1.077050   -2.788923
    113          6           0       24.536355    0.313837   -3.884230
    114          6           0       24.525412   -0.981429   -3.341730
    115          6           0       25.216201   -0.981635   -2.087437
    116          6           0       24.007304    0.875520   -5.191291
    117          6           0       24.074502   -2.331543   -3.643793
    118          8           0       23.438652   -2.776040   -4.600436
    119          6           0       24.665973   -3.229380   -2.475694
    120          6           0       23.467930   -4.038883   -1.941667
    121          8           0       22.337111   -3.630102   -1.776357
    122          8           0       23.848612   -5.375109   -1.833902
    123          6           0       22.774981   -6.236607   -1.338340
    124          1           0       27.773592   -1.917379    3.490336
    125          1           0       28.374447    4.352242    1.809939
    126          1           0       25.122357    3.128141   -3.436419
    127          1           0       25.411976   -4.627460    0.438890
    128          1           0       27.528547   -4.010556    2.251290
    129          1           0       24.709625   -4.506288    2.619313
    130          1           0       25.059502   -3.081062    3.468262
    131          1           0       26.000891   -4.538801    3.740281
    132          1           0       28.369281   -4.448679    0.246792
    133          1           0       27.539406   -4.378036   -1.304895
    134          1           0       27.999957   -6.637852   -1.034095
    135          1           0       26.353493   -6.494466   -0.776279
    136          1           0       27.685987   -0.541113    5.279079
    137          1           0       28.847789    0.525524    6.021593
    138          1           0       29.413460   -0.829698    5.057919
    139          1           0       28.719774    2.770715    6.338875
    140          1           0       29.951728    4.079913    6.072200
    141          1           0       30.387813    2.313988    6.058236
    142          1           0       28.148704    5.367577   -0.604927
    143          1           0       25.429720    5.103730   -1.940750
    144          1           0       26.308890    5.602277    1.371663
    145          1           0       25.611757    6.386281   -0.052457
    146          1           0       27.333885    6.790384    0.474519
    147          1           0       27.152758    4.328859   -3.850378
    148          1           0       28.287978    5.271967   -2.877612
    149          1           0       26.425673    7.120783   -2.816046
    150          1           0       26.073288    6.582996   -4.390041
    151          1           0       27.769394    7.037364   -3.942250
    152          1           0       24.870841    1.093125   -5.820069
    153          1           0       23.444959    1.805630   -5.111459
    154          1           0       23.399764    0.082250   -5.626570
    155          1           0       25.457143   -3.920487   -2.765807
    156          1           0       22.736012   -6.341387   -0.253669
    157          1           0       22.961988   -7.190453   -1.831406
    158          1           0       21.739322   -5.971560   -1.551028
 ---------------------------------------------------------------------

 SCF Done:  E(RwB97XD) =  -4070.65393350     A.U. after   19 cycles

 Excitation energies and oscillator strengths:

 Excited State   1:      Singlet-A      1.6477 eV  752.47 nm  f=0.3741  <S**2>=0.000
     309 -> 315       -0.19178
     312 -> 313        0.68144
     309 <- 315       -0.11858
 This state for optimization and/or second-order correction.
 Total Energy, E(TD-HF/TD-DFT) =  -4070.59338162
 Copying the excited state density for this state as the 1-particle RhoCI density.

 Excited State   2:      Singlet-A      1.6939 eV  731.93 nm  f=0.3885  <S**2>=0.000
     310 -> 316       -0.19054
     311 -> 314        0.68142
     310 <- 316       -0.11527

 Excited State   3:      Singlet-A      2.1798 eV  568.78 nm  f=0.0969  <S**2>=0.000
     309 -> 313        0.63418
     312 -> 315        0.30015

 Excited State   4:      Singlet-A      2.2137 eV  560.07 nm  f=0.1130  <S**2>=0.000
     310 -> 314        0.64263
     311 -> 316        0.27813

 Excited State   5:      Singlet-A      3.4329 eV  361.16 nm  f=0.1152  <S**2>=0.000
     305 -> 313        0.16751
     307 -> 313        0.56578
     309 -> 313        0.11128
     312 -> 315       -0.34323

 The electronic state is 1-A.
 Alpha  occ. eigenvalues --  -46.95041 -46.93974 -19.31009 -19.30964 -19.25331
 Alpha  occ. eigenvalues --  -19.25319 -19.24488 -19.24253 -19.24117 -19.23843
 Alpha  occ. eigenvalues --  -14.47269 -14.46849 -14.45862 -14.45611 -14.44475
 Alpha  occ. eigenvalues --  -14.44085 -14.43774 -14.43683 -10.43625 -10.43520
 Alpha  occ. eigenvalues --  -10.40190 -10.39844 -10.39079 -10.38480 -10.35551
 Alpha  occ. eigenvalues --  -10.35437 -10.35206 -10.35119 -10.34887 -10.34816
 Alpha  occ. eigenvalues --  -10.34778 -10.34675 -10.34559 -10.34452 -10.34299
 Alpha  occ. eigenvalues --  -10.34266 -10.33933 -10.33731 -10.33640 -10.33562
 Alpha  occ. eigenvalues --  -10.33177 -10.33066 -10.32905 -10.32871 -10.32821
 Alpha  occ. eigenvalues --  -10.32746 -10.32682 -10.32664 -10.32638 -10.32571
 Alpha  occ. eigenvalues --  -10.32564 -10.32420 -10.31993 -10.31881 -10.31719
 Alpha  occ. eigenvalues --  -10.31680 -10.31672 -10.31642 -10.31559 -10.31517
 Alpha  occ. eigenvalues --  -10.31365 -10.31288 -10.31210 -10.31148 -10.31144
 Alpha  occ. eigenvalues --  -10.31006 -10.31003 -10.30899 -10.30462 -10.30300
 Alpha  occ. eigenvalues --  -10.30245 -10.30242 -10.30231 -10.30089 -10.30018
 Alpha  occ. eigenvalues --  -10.29968 -10.29959 -10.29864 -10.29703 -10.29700
 Alpha  occ. eigenvalues --  -10.29510 -10.29356 -10.29316 -10.29097 -10.28923
 Alpha  occ. eigenvalues --  -10.28296  -3.21048  -3.20168  -1.94622  -1.94184
 Alpha  occ. eigenvalues --   -1.94003  -1.93763  -1.93274  -1.93185  -1.18984
 Alpha  occ. eigenvalues --   -1.18443  -1.12644  -1.12500  -1.11430  -1.11150
 Alpha  occ. eigenvalues --   -1.10958  -1.10360  -1.06954  -1.06709  -1.05793
 Alpha  occ. eigenvalues --   -1.05729  -1.05350  -1.05060  -1.04496  -1.03431
 Alpha  occ. eigenvalues --   -0.95789  -0.94524  -0.91279  -0.91275  -0.90901
 Alpha  occ. eigenvalues --   -0.90506  -0.90196  -0.90086  -0.89453  -0.89383
 Alpha  occ. eigenvalues --   -0.89128  -0.88973  -0.88104  -0.88069  -0.86309
 Alpha  occ. eigenvalues --   -0.85973  -0.85507  -0.85420  -0.84294  -0.84200
 Alpha  occ. eigenvalues --   -0.83653  -0.83460  -0.82901  -0.82850  -0.82361
 Alpha  occ. eigenvalues --   -0.82029  -0.80495  -0.80417  -0.79511  -0.79369
 Alpha  occ. eigenvalues --   -0.79181  -0.78505  -0.78072  -0.78042  -0.76987
 Alpha  occ. eigenvalues --   -0.76799  -0.74658  -0.74444  -0.73752  -0.73617
 Alpha  occ. eigenvalues --   -0.71947  -0.71335  -0.71123  -0.70721  -0.70308
 Alpha  occ. eigenvalues --   -0.70146  -0.69311  -0.69020  -0.67706  -0.67429
 Alpha  occ. eigenvalues --   -0.67330  -0.66773  -0.66472  -0.66402  -0.66146
 Alpha  occ. eigenvalues --   -0.65964  -0.64538  -0.64473  -0.62347  -0.62135
 Alpha  occ. eigenvalues --   -0.62095  -0.61442  -0.61323  -0.60924  -0.60555
 Alpha  occ. eigenvalues --   -0.60461  -0.60235  -0.59687  -0.59481  -0.59336
 Alpha  occ. eigenvalues --   -0.58468  -0.58020  -0.57591  -0.57459  -0.57444
 Alpha  occ. eigenvalues --   -0.57219  -0.57068  -0.56550  -0.56521  -0.55928
 Alpha  occ. eigenvalues --   -0.55739  -0.55412  -0.55217  -0.55071  -0.55061
 Alpha  occ. eigenvalues --   -0.54806  -0.54587  -0.54500  -0.54495  -0.54102
 Alpha  occ. eigenvalues --   -0.54021  -0.53763  -0.53682  -0.53150  -0.53055
 Alpha  occ. eigenvalues --   -0.52909  -0.52495  -0.52378  -0.52263  -0.52181
 Alpha  occ. eigenvalues --   -0.51983  -0.51858  -0.51710  -0.51599  -0.51361
 Alpha  occ. eigenvalues --   -0.51253  -0.51156  -0.50997  -0.50892  -0.50833
 Alpha  occ. eigenvalues --   -0.50731  -0.50449  -0.50387  -0.50176  -0.49991
 Alpha  occ. eigenvalues --   -0.49836  -0.49566  -0.49425  -0.49311  -0.49042
 Alpha  occ. eigenvalues --   -0.48759  -0.48603  -0.48578  -0.48438  -0.48198
 Alpha  occ. eigenvalues --   -0.48059  -0.47893  -0.47818  -0.47630  -0.47437
 Alpha  occ. eigenvalues --   -0.47265  -0.46981  -0.46900  -0.46822  -0.46629
 Alpha  occ. eigenvalues --   -0.46572  -0.46446  -0.46340  -0.46280  -0.46246
 Alpha  occ. eigenvalues --   -0.46113  -0.45976  -0.45754  -0.45608  -0.45504
 Alpha  occ. eigenvalues --   -0.45356  -0.45255  -0.45168  -0.45124  -0.44945
 Alpha  occ. eigenvalues --   -0.44823  -0.44620  -0.44512  -0.44416  -0.44301
 Alpha  occ. eigenvalues --   -0.44286  -0.43842  -0.43799  -0.43717  -0.43612
 Alpha  occ. eigenvalues --   -0.43509  -0.43098  -0.42960  -0.42619  -0.42385
 Alpha  occ. eigenvalues --   -0.42147  -0.42145  -0.41586  -0.41496  -0.40719
 Alpha  occ. eigenvalues --   -0.40587  -0.40386  -0.40225  -0.39846  -0.39809
 Alpha  occ. eigenvalues --   -0.39663  -0.39311  -0.39280  -0.38835  -0.38807
 Alpha  occ. eigenvalues --   -0.38704  -0.38262  -0.37137  -0.36940  -0.36894
 Alpha  occ. eigenvalues --   -0.36247  -0.35397  -0.35082  -0.33610  -0.33491
 Alpha  occ. eigenvalues --   -0.33142  -0.33093  -0.32925  -0.32766  -0.32668
 Alpha  occ. eigenvalues --   -0.32250  -0.32192  -0.31321  -0.25859  -0.25720
 Alpha  occ. eigenvalues --   -0.22881  -0.22874
 Alpha virt. eigenvalues --   -0.06903  -0.06716   0.00151   0.00606   0.02058
 Alpha virt. eigenvalues --    0.02495   0.03863   0.04361   0.05400   0.06794
 Alpha virt. eigenvalues --    0.07127   0.07362   0.07436   0.08077   0.08341

 Mulliken charges:
               1
     1  Mg   0.973299
     2  C   -0.006736
     3  C   -0.074242
     4  C   -0.111381
     5  C   -0.060553
     6  N   -0.281949
     7  C   -0.051702
     8  C   -0.080792
     9  C   -0.121409
    10  C    0.038180
    11  C    0.009332
    12  C   -0.013339
    13  C   -0.096427
    14  H    0.058550
    15  N   -0.474692
    16  C    0.176450
    17  C   -0.164404
    18  C   -0.081368
    19  C    0.151254
    20  C    0.071026
    21  C    0.085475
    22  O   -0.233808
    23  C   -0.021562
    24  N   -0.406370
    25  C    0.075764
    26  C   -0.112208
    27  C   -0.035711
    28  C   -0.010018
    29  C    0.035642
    30  C   -0.020872
    31  C   -0.015365
    32  N   -0.411309
    33  C    0.152119
    34  C   -0.157213
    35  C   -0.070546
    36  C    0.151418
    37  C    0.070553
    38  C    0.116274
    39  O   -0.187631
    40  C   -0.074667
    41  C    0.263654
    42  O   -0.227582
    43  O   -0.360621
    44  C    0.124755
    45  H   -0.012657
    46  H    0.022439
    47  H   -0.019457
    48  H    0.047389
    49  H    0.048732
    50  H    0.042544
    51  H    0.025852
    52  H    0.050553
    53  H    0.035463
    54  H    0.032145
    55  H    0.051120
    56  H    0.036232
    57  H    0.044507
    58  H    0.048716
    59  H    0.050240
    60  H    0.058385
    61  H    0.054772
    62  H    0.041273
    63  H    0.041042
    64  H    0.042863
    65  H    0.049046
    66  H    0.031784
    67  H    0.040077
    68  H    0.022774
    69  H    0.034930
    70  H    0.032026
    71  H    0.032788
    72  H    0.035417
    73  H    0.029545
    74  H    0.041865
    75  H    0.063972
    76  H    0.079195
    77  H    0.049959
    78  H    0.069134
    79  H    0.056070
    80  Mg   1.001583
    81  C   -0.064925
    82  C   -0.110704
    83  C   -0.083581
    84  C   -0.100666
    85  N   -0.307646
    86  C    0.022442
    87  C   -0.031967
    88  C   -0.097631
    89  C    0.019038
    90  C    0.007929
    91  C    0.023249
    92  C   -0.123401
    93  H    0.016998
    94  N   -0.428116
    95  C    0.223977
    96  C   -0.180459
    97  C   -0.042851
    98  C    0.127655
    99  C    0.061886
   100  C    0.049186
   101  O   -0.257583
   102  C   -0.023749
   103  N   -0.456733
   104  C    0.109102
   105  C   -0.100396
   106  C   -0.055365
   107  C    0.059281
   108  C    0.015928
   109  C    0.000254
   110  C   -0.055627
   111  N   -0.483393
   112  C    0.140167
   113  C   -0.167094
   114  C   -0.071781
   115  C    0.182859
   116  C    0.080909
   117  C    0.161259
   118  O   -0.208550
   119  C   -0.105837
   120  C    0.266273
   121  O   -0.223747
   122  O   -0.369648
   123  C    0.126358
   124  H   -0.009060
   125  H    0.016358
   126  H   -0.010452
   127  H    0.030641
   128  H    0.039913
   129  H    0.034317
   130  H    0.041877
   131  H    0.034277
   132  H    0.040660
   133  H    0.036909
   134  H    0.048518
   135  H    0.050363
   136  H    0.046145
   137  H    0.026876
   138  H    0.058688
   139  H    0.061399
   140  H    0.063737
   141  H    0.063637
   142  H    0.042756
   143  H    0.042942
   144  H    0.043684
   145  H    0.034128
   146  H    0.043572
   147  H    0.037019
   148  H    0.028014
   149  H    0.024579
   150  H    0.041186
   151  H    0.040897
   152  H    0.050528
   153  H    0.047770
   154  H    0.066179
   155  H    0.072892
   156  H    0.043211
   157  H    0.055686
   158  H    0.065271
 Sum of Mulliken charges =  -0.00000

 Dipole moment (field-independent basis, Debye):
    X=             -1.2341    Y=             -2.3001    Z=              1.6605  Tot=              3.0936
 Quadrupole moment (field-independent basis, Debye-Ang):
   XX=           -240.9719   YY=           -459.5553   ZZ=           -508.7539
   XY=             14.8711   XZ=            125.0608   YZ=            -14.1675

 Normal termination of Gaussian 16 at Sat Sep 18 18:38:40 2021.
