 Gaussian 16, Revision A.03,
 Gaussian 16:  ES64L-G16RevA.03 25-Dec-2016

 --------------------------------
 #p wB97XD/Def2SVP td=(nstates=5)
 --------------------------------

 --------------------------------
 TDDFT excited states in gaussian
 --------------------------------
 Symbolic Z-matrix:
 Charge =  0 Multiplicity = 1

                         Standard orientation:
 ---------------------------------------------------------------------
 Center     Atomic      Atomic             Coordinates (Angstroms)
 Number     Number       Type             X           Y           Z
 ---------------------------------------------------------------------
      1         12           0       14.172106   -0.295949    0.119728
      2          6           0       11.242995   -1.624687   -1.296240
      3          6           0       14.792694    1.313304   -2.854717
      4          6           0       16.443396    1.479592    1.742763
      5          6           0       13.275707   -1.800227    3.210271
      6          7           0       13.010287    0.022029   -1.731966
      7          6           0       11.811892   -0.630946   -2.120010
      8          6           0       11.549005   -0.532086   -3.566088
      9          6           0       12.773714    0.346624   -4.070825
     10          6           0       13.612855    0.555323   -2.820077
     11          6           0       13.483638   -0.273132   -5.298803
     12          6           0       10.293887    0.202926   -3.925759
     13          6           0        9.928940    1.414815   -3.055529
     14          1           0        9.244131    2.695254   -3.674157
     15          7           0       15.502034    1.191979   -0.458873
     16          6           0       15.663278    1.598523   -1.732601
     17          6           0       16.798072    2.485793   -1.786974
     18          6           0       17.351684    2.502242   -0.483022
     19          6           0       16.457973    1.681372    0.349745
     20          6           0       17.259892    3.255975   -2.994786
     21          6           0       18.619446    3.245022   -0.062233
     22          8           0       19.252364    3.907492   -0.860991
     23          6           0       19.184713    3.372286    1.321389
     24          7           0       14.609268    0.020474    2.206307
     25          6           0       15.660813    0.789028    2.629315
     26          6           0       16.004370    0.513275    4.130122
     27          6           0       14.763869   -0.303838    4.602477
     28          6           0       14.187721   -0.739551    3.273037
     29          6           0       17.310399   -0.279123    4.379335
     30          6           0       13.589354    0.536862    5.293958
     31          6           0       13.022027   -0.012885    6.552355
     32          7           0       12.717903   -1.513622    0.822016
     33          6           0       12.614524   -2.156259    1.993147
     34          6           0       11.667226   -3.326717    1.860740
     35          6           0       11.160022   -3.148044    0.534367
     36          6           0       11.719904   -1.951879    0.002960
     37          6           0       11.281241   -4.405580    2.862408
     38          6           0       10.158467   -3.636715   -0.368847
     39          8           0        9.352202   -4.545221   -0.245971
     40          6           0       10.202633   -2.667503   -1.618393
     41          6           0        8.885697   -1.919700   -1.642616
     42          8           0        8.500379   -1.103865   -0.871946
     43          8           0        8.224529   -2.264489   -2.802230
     44          6           0        7.073556   -1.406629   -3.101666
     45          1           0       15.086272    1.656389   -3.848791
     46          1           0       17.297294    1.920387    2.259909
     47          1           0       13.149411   -2.330469    4.156487
     48          1           0       11.499190   -1.546439   -3.961936
     49          1           0       12.552135    1.388536   -4.301730
     50          1           0       13.543600    0.598589   -5.950664
     51          1           0       12.835829   -1.065928   -5.673032
     52          1           0       14.499689   -0.603865   -5.082574
     53          1           0        9.436582   -0.446751   -4.103957
     54          1           0       10.299277    0.656690   -4.917048
     55          1           0       10.862055    1.695737   -2.566008
     56          1           0        9.304180    0.959661   -2.286816
     57          1           0       17.471119    4.294915   -2.739464
     58          1           0       16.531930    3.153080   -3.799420
     59          1           0       18.188048    2.761470   -3.282304
     60          1           0       18.573908    3.933917    2.027472
     61          1           0       20.033539    4.031223    1.138025
     62          1           0       19.647219    2.453182    1.682747
     63          1           0       16.100672    1.477256    4.629524
     64          1           0       15.021985   -1.170149    5.212108
     65          1           0       17.049310   -1.260329    4.775371
     66          1           0       18.056096    0.322291    4.899017
     67          1           0       17.786402   -0.469781    3.418143
     68          1           0       12.780297    0.730906    4.590151
     69          1           0       14.053446    1.499963    5.507144
     70          1           0       13.070105    0.689451    7.384271
     71          1           0       13.477693   -0.954031    6.860974
     72          1           0       11.958802   -0.230678    6.454950
     73          1           0       10.201283   -4.332530    2.990789
     74          1           0       11.930885   -4.298568    3.731967
     75          1           0       11.444214   -5.351375    2.345835
     76          1           0       10.381024   -3.202355   -2.550976
     77          1           0        7.189939   -0.390343   -2.725462
     78          1           0        6.248040   -1.907328   -2.595680
     79          1           0        6.877374   -1.538091   -4.165431
     80         12           0      -13.544426    0.910651   -0.184520
     81          6           0      -13.809733   -2.577105   -0.155798
     82          6           0      -10.319379    0.684253   -0.748049
     83          6           0      -13.224482    4.251990    0.548209
     84          6           0      -16.889195    1.136302    0.923234
     85          7           0      -12.298651   -0.757114   -0.513056
     86          6           0      -12.569194   -2.107729   -0.532233
     87          6           0      -11.377520   -2.916114   -1.028858
     88          6           0      -10.235959   -1.850388   -0.981957
     89          6           0      -10.984986   -0.570579   -0.846215
     90          6           0       -9.085087   -2.027363   -0.015163
     91          6           0      -11.593228   -3.628877   -2.402059
     92          6           0      -10.408628   -4.466695   -2.895572
     93          1           0      -10.725002   -5.901044   -3.293122
     94          7           0      -11.890098    2.330463   -0.047583
     95          6           0      -10.644515    2.033743   -0.473257
     96          6           0       -9.847231    3.228856   -0.471500
     97          6           0      -10.662217    4.266147    0.013625
     98          6           0      -11.989961    3.621744    0.205196
     99          6           0       -8.385601    3.268758   -0.864711
    100          6           0      -10.356076    5.716435    0.197757
    101          8           0      -11.089285    6.565461    0.771706
    102          6           0       -9.071600    6.305285   -0.372637
    103          7           0      -14.841539    2.428453    0.632992
    104          6           0      -14.443099    3.695088    0.894766
    105          6           0      -15.732682    4.601311    1.280850
    106          6           0      -16.921850    3.642660    0.921888
    107          6           0      -16.219809    2.334827    0.743334
    108          6           0      -15.635372    5.013493    2.801694
    109          6           0      -17.542158    4.019479   -0.473010
    110          6           0      -16.628269    4.165518   -1.679757
    111          7           0      -15.140262   -0.450861    0.256088
    112          6           0      -16.409060   -0.168628    0.682202
    113          6           0      -17.071305   -1.381906    0.818819
    114          6           0      -16.139628   -2.421896    0.536132
    115          6           0      -14.967030   -1.799804    0.196682
    116          6           0      -18.456877   -1.644261    1.293889
    117          6           0      -15.880287   -3.877523    0.459461
    118          8           0      -16.554291   -4.869656    0.711931
    119          6           0      -14.360059   -4.022202   -0.099554
    120          6           0      -13.606998   -5.031775    0.691293
    121          8           0      -13.741978   -5.223049    1.936336
    122          8           0      -12.928971   -5.772719   -0.174776
    123          6           0      -12.517148   -7.062469    0.345435
    124          1           0       -9.268797    0.675566   -1.046208
    125          1           0      -13.148278    5.322918    0.750923
    126          1           0      -17.952408    1.251179    1.139814
    127          1           0      -11.301022   -3.736670   -0.315207
    128          1           0       -9.719179   -1.739017   -1.935800
    129          1           0       -8.919743   -3.031708    0.374727
    130          1           0       -9.202365   -1.324356    0.809972
    131          1           0       -8.211096   -1.567735   -0.477089
    132          1           0      -11.870811   -2.892665   -3.156843
    133          1           0      -12.460864   -4.283702   -2.328255
    134          1           0       -9.770216   -4.776519   -2.068393
    135          1           0       -9.844214   -3.940288   -3.665835
    136          1           0       -7.930347    2.293372   -1.035960
    137          1           0       -7.696329    3.614348   -0.094661
    138          1           0       -8.191619    3.868471   -1.754523
    139          1           0       -8.237243    5.902473    0.200879
    140          1           0       -8.956009    7.357957   -0.115523
    141          1           0       -8.993410    6.200826   -1.455404
    142          1           0      -15.715461    5.525258    0.702791
    143          1           0      -17.558052    3.643673    1.806933
    144          1           0      -14.650831    4.841565    3.237045
    145          1           0      -16.321284    4.473917    3.454954
    146          1           0      -15.787984    6.077735    2.975296
    147          1           0      -17.999417    4.970894   -0.201112
    148          1           0      -18.342123    3.360261   -0.808682
    149          1           0      -15.585964    4.184582   -1.360700
    150          1           0      -16.856680    4.980537   -2.365682
    151          1           0      -16.881388    3.284094   -2.268981
    152          1           0      -19.229205   -1.101230    0.748586
    153          1           0      -18.474906   -1.278771    2.320221
    154          1           0      -18.699917   -2.706197    1.310392
    155          1           0      -14.495088   -4.416357   -1.106453
    156          1           0      -12.688796   -7.838328   -0.401724
    157          1           0      -13.041153   -7.415026    1.233496
    158          1           0      -11.446391   -6.978774    0.534222
 ---------------------------------------------------------------------

 SCF Done:  E(RwB97XD) =  -4070.61311989     A.U. after   20 cycles

 Excitation energies and oscillator strengths:

 Excited State   1:      Singlet-A      1.6067 eV  771.66 nm  f=0.3861  <S**2>=0.000
     309 -> 315        0.17851
     312 -> 314        0.68536
     309 <- 315        0.11722
 This state for optimization and/or second-order correction.
 Total Energy, E(TD-HF/TD-DFT) =  -4070.55407408
 Copying the excited state density for this state as the 1-particle RhoCI density.

 Excited State   2:      Singlet-A      1.6682 eV  743.21 nm  f=0.3820  <S**2>=0.000
     310 -> 316        0.17119
     311 -> 313        0.68665
     310 <- 316        0.11156

 Excited State   3:      Singlet-A      2.0912 eV  592.88 nm  f=0.1650  <S**2>=0.000
     310 -> 313        0.66094
     311 -> 316       -0.23072

 Excited State   4:      Singlet-A      2.2112 eV  560.70 nm  f=0.0981  <S**2>=0.000
     309 -> 314        0.62744
     312 -> 315       -0.31213

 Excited State   5:      Singlet-A      3.0729 eV  403.47 nm  f=0.0090  <S**2>=0.000
     308 -> 313        0.67867

 The electronic state is 1-A.
 Alpha  occ. eigenvalues --  -46.95689 -46.95027 -19.31813 -19.29980 -19.25464
 Alpha  occ. eigenvalues --  -19.24285 -19.24191 -19.23982 -19.23427 -19.23331
 Alpha  occ. eigenvalues --  -14.47484 -14.47087 -14.46578 -14.46391 -14.44331
 Alpha  occ. eigenvalues --  -14.44271 -14.44204 -14.42558 -10.43209 -10.43032
 Alpha  occ. eigenvalues --  -10.39772 -10.39111 -10.38794 -10.38644 -10.36171
 Alpha  occ. eigenvalues --  -10.35696 -10.35358 -10.35338 -10.35140 -10.35061
 Alpha  occ. eigenvalues --  -10.34973 -10.34933 -10.34848 -10.34741 -10.34714
 Alpha  occ. eigenvalues --  -10.34689 -10.34601 -10.34090 -10.34026 -10.33972
 Alpha  occ. eigenvalues --  -10.33417 -10.33180 -10.32954 -10.32663 -10.32640
 Alpha  occ. eigenvalues --  -10.32556 -10.32553 -10.32416 -10.32357 -10.32323
 Alpha  occ. eigenvalues --  -10.32320 -10.32315 -10.32284 -10.32185 -10.32107
 Alpha  occ. eigenvalues --  -10.31979 -10.31971 -10.31858 -10.31787 -10.31777
 Alpha  occ. eigenvalues --  -10.31772 -10.31760 -10.31614 -10.31157 -10.30990
 Alpha  occ. eigenvalues --  -10.30946 -10.30628 -10.30581 -10.30494 -10.30468
 Alpha  occ. eigenvalues --  -10.30464 -10.30415 -10.30392 -10.30381 -10.30334
 Alpha  occ. eigenvalues --  -10.30187 -10.30076 -10.30010 -10.29519 -10.29505
 Alpha  occ. eigenvalues --  -10.29439 -10.29275 -10.29230 -10.29222 -10.28673
 Alpha  occ. eigenvalues --  -10.28228  -3.21535  -3.21098  -1.95129  -1.94651
 Alpha  occ. eigenvalues --   -1.94626  -1.94514  -1.94228  -1.94087  -1.20246
 Alpha  occ. eigenvalues --   -1.19540  -1.12690  -1.12296  -1.11292  -1.10957
 Alpha  occ. eigenvalues --   -1.10613  -1.08058  -1.07474  -1.06683  -1.06351
 Alpha  occ. eigenvalues --   -1.06125  -1.05421  -1.05291  -1.04743  -1.04432
 Alpha  occ. eigenvalues --   -0.95259  -0.93754  -0.91850  -0.91451  -0.91395
 Alpha  occ. eigenvalues --   -0.91164  -0.90383  -0.90317  -0.89937  -0.89543
 Alpha  occ. eigenvalues --   -0.89027  -0.88373  -0.87845  -0.87557  -0.86739
 Alpha  occ. eigenvalues --   -0.86679  -0.86140  -0.85635  -0.84740  -0.84735
 Alpha  occ. eigenvalues --   -0.83779  -0.83693  -0.83265  -0.82916  -0.82601
 Alpha  occ. eigenvalues --   -0.82562  -0.80844  -0.79971  -0.79537  -0.79467
 Alpha  occ. eigenvalues --   -0.79219  -0.78877  -0.78089  -0.78023  -0.77183
 Alpha  occ. eigenvalues --   -0.77151  -0.74784  -0.74685  -0.73748  -0.73679
 Alpha  occ. eigenvalues --   -0.71848  -0.71657  -0.71060  -0.70909  -0.70653
 Alpha  occ. eigenvalues --   -0.70322  -0.69654  -0.69181  -0.67875  -0.67423
 Alpha  occ. eigenvalues --   -0.67169  -0.67165  -0.66642  -0.66626  -0.66480
 Alpha  occ. eigenvalues --   -0.66464  -0.64666  -0.64223  -0.63042  -0.62068
 Alpha  occ. eigenvalues --   -0.61705  -0.61516  -0.61191  -0.61120  -0.61018
 Alpha  occ. eigenvalues --   -0.60503  -0.60203  -0.59489  -0.59478  -0.59210
 Alpha  occ. eigenvalues --   -0.58626  -0.58189  -0.58126  -0.57921  -0.57685
 Alpha  occ. eigenvalues --   -0.57465  -0.57351  -0.57252  -0.57167  -0.56657
 Alpha  occ. eigenvalues --   -0.56301  -0.56125  -0.55210  -0.55099  -0.55068
 Alpha  occ. eigenvalues --   -0.54895  -0.54864  -0.54436  -0.54378  -0.54310
 Alpha  occ. eigenvalues --   -0.54101  -0.53620  -0.53611  -0.53483  -0.53451
 Alpha  occ. eigenvalues --   -0.53158  -0.52973  -0.52877  -0.52485  -0.52386
 Alpha  occ. eigenvalues --   -0.52185  -0.51999  -0.51654  -0.51495  -0.51446
 Alpha  occ. eigenvalues --   -0.51308  -0.51037  -0.50947  -0.50785  -0.50777
 Alpha  occ. eigenvalues --   -0.50632  -0.50461  -0.50417  -0.50379  -0.50225
 Alpha  occ. eigenvalues --   -0.49988  -0.49552  -0.49229  -0.49182  -0.49129
 Alpha  occ. eigenvalues --   -0.49103  -0.48913  -0.48827  -0.48654  -0.48412
 Alpha  occ. eigenvalues --   -0.48409  -0.48252  -0.48037  -0.47924  -0.47844
 Alpha  occ. eigenvalues --   -0.47734  -0.47518  -0.47328  -0.47273  -0.47052
 Alpha  occ. eigenvalues --   -0.46684  -0.46589  -0.46385  -0.46322  -0.46170
 Alpha  occ. eigenvalues --   -0.46123  -0.45938  -0.45762  -0.45636  -0.45608
 Alpha  occ. eigenvalues --   -0.45323  -0.45245  -0.45114  -0.44796  -0.44792
 Alpha  occ. eigenvalues --   -0.44615  -0.44534  -0.44484  -0.44287  -0.44211
 Alpha  occ. eigenvalues --   -0.44164  -0.43961  -0.43869  -0.43778  -0.43345
 Alpha  occ. eigenvalues --   -0.43147  -0.43112  -0.42762  -0.42733  -0.42398
 Alpha  occ. eigenvalues --   -0.42351  -0.41846  -0.41480  -0.41115  -0.41107
 Alpha  occ. eigenvalues --   -0.40583  -0.40519  -0.39907  -0.39818  -0.39428
 Alpha  occ. eigenvalues --   -0.39337  -0.39167  -0.38836  -0.38585  -0.38532
 Alpha  occ. eigenvalues --   -0.38300  -0.37821  -0.37173  -0.36310  -0.36091
 Alpha  occ. eigenvalues --   -0.35917  -0.35388  -0.35010  -0.34130  -0.33670
 Alpha  occ. eigenvalues --   -0.33221  -0.33149  -0.32932  -0.32545  -0.32159
 Alpha  occ. eigenvalues --   -0.32044  -0.31916  -0.30599  -0.26318  -0.25957
 Alpha  occ. eigenvalues --   -0.23561  -0.22941
 Alpha virt. eigenvalues --   -0.07689  -0.07210   0.00036   0.00676   0.02016
 Alpha virt. eigenvalues --    0.02207   0.04407   0.04565   0.04566   0.04972
 Alpha virt. eigenvalues --    0.06655   0.07180   0.07457   0.07667   0.08047

 Mulliken charges:
               1
     1  Mg   0.971344
     2  C   -0.073650
     3  C   -0.088821
     4  C   -0.070206
     5  C   -0.087563
     6  N   -0.366514
     7  C    0.021246
     8  C   -0.041357
     9  C   -0.131916
    10  C    0.059995
    11  C    0.036733
    12  C   -0.025934
    13  C   -0.106264
    14  H    0.041733
    15  N   -0.438732
    16  C    0.155338
    17  C   -0.199081
    18  C   -0.050403
    19  C    0.165416
    20  C    0.110725
    21  C    0.017577
    22  O   -0.237240
    23  C   -0.009547
    24  N   -0.357036
    25  C    0.045806
    26  C   -0.080070
    27  C   -0.111576
    28  C    0.037544
    29  C    0.042883
    30  C    0.014709
    31  C   -0.045880
    32  N   -0.434619
    33  C    0.147869
    34  C   -0.205247
    35  C   -0.044402
    36  C    0.163148
    37  C    0.102138
    38  C    0.124269
    39  O   -0.206791
    40  C   -0.072779
    41  C    0.257808
    42  O   -0.210219
    43  O   -0.374893
    44  C    0.129044
    45  H   -0.001741
    46  H   -0.030127
    47  H    0.001702
    48  H    0.040515
    49  H    0.052471
    50  H    0.037917
    51  H    0.045482
    52  H    0.046279
    53  H    0.017851
    54  H    0.023370
    55  H    0.051954
    56  H    0.057166
    57  H    0.065842
    58  H    0.021412
    59  H    0.056398
    60  H    0.066136
    61  H    0.044823
    62  H    0.054530
    63  H    0.034022
    64  H    0.029643
    65  H    0.040654
    66  H    0.046239
    67  H    0.027760
    68  H    0.057112
    69  H    0.024583
    70  H    0.038784
    71  H    0.025008
    72  H    0.035777
    73  H    0.069245
    74  H    0.037839
    75  H    0.057436
    76  H    0.064925
    77  H    0.073099
    78  H    0.055525
    79  H    0.055783
    80  Mg   0.940796
    81  C    0.025580
    82  C   -0.075993
    83  C   -0.054464
    84  C   -0.071366
    85  N   -0.396459
    86  C   -0.020267
    87  C   -0.029393
    88  C   -0.089353
    89  C    0.104709
    90  C    0.044299
    91  C    0.022465
    92  C   -0.128913
    93  H    0.030690
    94  N   -0.379719
    95  C    0.094839
    96  C   -0.112104
    97  C   -0.048720
    98  C    0.101616
    99  C    0.053052
   100  C    0.041123
   101  O   -0.259379
   102  C   -0.008790
   103  N   -0.351614
   104  C    0.069209
   105  C   -0.145283
   106  C   -0.029822
   107  C    0.038949
   108  C    0.014288
   109  C   -0.014290
   110  C   -0.051428
   111  N   -0.418252
   112  C    0.151664
   113  C   -0.204301
   114  C   -0.041240
   115  C    0.088542
   116  C    0.077133
   117  C    0.161937
   118  O   -0.201931
   119  C   -0.129340
   120  C    0.263380
   121  O   -0.280577
   122  O   -0.330246
   123  C    0.127181
   124  H   -0.027581
   125  H    0.024803
   126  H   -0.001188
   127  H    0.031592
   128  H    0.031532
   129  H    0.056468
   130  H    0.033634
   131  H    0.025807
   132  H    0.024348
   133  H    0.044877
   134  H    0.046663
   135  H    0.062162
   136  H    0.028669
   137  H    0.048899
   138  H    0.055040
   139  H    0.043810
   140  H    0.044615
   141  H    0.064088
   142  H    0.043738
   143  H    0.030702
   144  H    0.043578
   145  H    0.032432
   146  H    0.040066
   147  H    0.029539
   148  H    0.030914
   149  H    0.055341
   150  H    0.043761
   151  H    0.033808
   152  H    0.035174
   153  H    0.042830
   154  H    0.057921
   155  H    0.082043
   156  H    0.053454
   157  H    0.078546
   158  H    0.049705
 Sum of Mulliken charges =  -0.00000

 Dipole moment (field-independent basis, Debye):
    X=              6.5581    Y=              1.4426    Z=             -3.7271  Tot=              7.6799
 Quadrupole moment (field-independent basis, Debye-Ang):
   XX=           -574.9600   YY=           -545.8225   ZZ=           -475.9690
   XY=            -87.1074   XZ=             89.8489   YZ=              8.2810

 Normal termination of Gaussian 16 at Sat Sep 18 14:35:28 2021.
