 Gaussian 16, Revision A.03,
 Gaussian 16:  ES64L-G16RevA.03 25-Dec-2016

 --------------------------------
 #p wB97XD/Def2SVP td=(nstates=5)
 --------------------------------

 --------------------------------
 TDDFT excited states in gaussian
 --------------------------------
 Symbolic Z-matrix:
 Charge =  0 Multiplicity = 1

                         Standard orientation:
 ---------------------------------------------------------------------
 Center     Atomic      Atomic             Coordinates (Angstroms)
 Number     Number       Type             X           Y           Z
 ---------------------------------------------------------------------
      1         12           0       -9.272037   -0.876942    0.489398
      2          6           0       -9.962236    2.416665   -0.178102
      3          6           0       -7.087173    0.140806    2.928247
      4          6           0       -8.477007   -4.196716    1.101918
      5          6           0      -11.144724   -1.831496   -2.267816
      6          7           0       -8.532811    1.086884    1.284317
      7          6           0       -9.061695    2.279351    0.879682
      8          6           0       -8.494961    3.383623    1.632789
      9          6           0       -7.411575    2.767352    2.503712
     10          6           0       -7.632298    1.215825    2.228371
     11          6           0       -5.923536    3.208356    2.281916
     12          6           0       -9.591814    4.158340    2.439794
     13          6           0       -9.379726    5.699794    2.631913
     14          1           0       -7.926807    6.213918    2.650312
     15          7           0       -8.033213   -1.866556    1.926392
     16          6           0       -7.225704   -1.234298    2.856229
     17          6           0       -6.512694   -2.259654    3.644736
     18          6           0       -6.920506   -3.560207    3.117434
     19          6           0       -7.860949   -3.257896    2.024412
     20          6           0       -5.518455   -1.960299    4.754778
     21          6           0       -6.569065   -4.925816    3.660029
     22          8           0       -7.072349   -5.932958    3.132002
     23          6           0       -5.624063   -5.174797    4.775393
     24          7           0       -9.672308   -2.753919   -0.485925
     25          6           0       -9.280681   -3.935687   -0.000946
     26          6           0       -9.917332   -5.088844   -0.794437
     27          6           0      -11.008680   -4.365944   -1.757299
     28          6           0      -10.638682   -2.877924   -1.423130
     29          6           0       -8.836863   -5.927409   -1.544346
     30          6           0      -12.496396   -4.653775   -1.415737
     31          6           0      -13.266529   -5.491103   -2.447805
     32          7           0      -10.304879    0.064955   -1.010715
     33          6           0      -11.020213   -0.447118   -2.095662
     34          6           0      -11.619723    0.657060   -2.877404
     35          6           0      -11.189283    1.781581   -2.134440
     36          6           0      -10.395613    1.372628   -1.029503
     37          6           0      -12.473517    0.576593   -4.045336
     38          6           0      -11.342391    3.247005   -2.023811
     39          8           0      -11.990973    4.033086   -2.661900
     40          6           0      -10.512758    3.706758   -0.772405
     41          6           0       -9.577030    4.760458   -1.196551
     42          8           0       -8.592068    4.478516   -1.897898
     43          8           0       -9.807756    5.986008   -0.650694
     44          6           0       -8.818092    7.039992   -0.850292
     45          1           0       -6.400093    0.497967    3.698200
     46          1           0       -8.185700   -5.233096    1.286301
     47          1           0      -11.825221   -2.185060   -3.045100
     48          1           0       -8.034327    4.070551    0.921990
     49          1           0       -7.667218    2.834216    3.561839
     50          1           0       -5.650532    3.963069    1.543652
     51          1           0       -5.342501    2.315973    2.050505
     52          1           0       -5.428116    3.539334    3.195000
     53          1           0       -9.762745    3.660918    3.394571
     54          1           0      -10.566684    3.938841    2.004826
     55          1           0       -9.859777    6.030103    3.553512
     56          1           0       -9.770498    6.288437    1.802441
     57          1           0       -5.467859   -0.903844    5.016039
     58          1           0       -4.504831   -2.229894    4.456822
     59          1           0       -5.871892   -2.380974    5.695999
     60          1           0       -5.662893   -6.245103    4.975714
     61          1           0       -5.860270   -4.613712    5.680492
     62          1           0       -4.636417   -4.801743    4.503770
     63          1           0      -10.510589   -5.667588   -0.086361
     64          1           0      -10.815218   -4.544022   -2.815051
     65          1           0       -8.934418   -7.001713   -1.387398
     66          1           0       -7.834742   -5.653712   -1.213151
     67          1           0       -8.948086   -5.626054   -2.586210
     68          1           0      -13.087602   -3.750324   -1.270970
     69          1           0      -12.601004   -5.173395   -0.463040
     70          1           0      -12.571536   -6.143654   -2.976383
     71          1           0      -13.710349   -4.806825   -3.170230
     72          1           0      -14.078920   -5.976959   -1.908946
     73          1           0      -13.044213    1.489338   -4.215085
     74          1           0      -13.177804   -0.254261   -4.008218
     75          1           0      -11.828871    0.579817   -4.924389
     76          1           0      -11.309107    4.068602   -0.121136
     77          1           0       -8.717740    7.371084   -1.884290
     78          1           0       -7.860402    6.765323   -0.408253
     79          1           0       -9.136739    7.940080   -0.324781
     80         12           0        9.325154   -0.648452   -0.174381
     81          6           0        8.048439    2.701602   -0.184609
     82          6           0       12.219417    0.587622    1.235190
     83          6           0       10.674555   -3.566899   -0.754891
     84          6           0        6.405014   -1.591463   -1.784954
     85          7           0       10.175293    1.522420    0.212746
     86          6           0        9.386947    2.641125    0.224014
     87          6           0       10.119824    3.783147    0.977722
     88          6           0       11.503342    3.127284    1.391284
     89          6           0       11.352357    1.636401    0.915431
     90          6           0       12.831295    3.759904    0.796704
     91          6           0        9.367216    4.349793    2.211134
     92          6           0        9.318644    5.827150    2.375789
     93          1           0       10.312260    6.816346    1.655088
     94          7           0       11.240132   -1.438403    0.178231
     95          6           0       12.276414   -0.837617    0.892497
     96          6           0       13.429295   -1.757969    0.922686
     97          6           0       12.925091   -3.024206    0.434384
     98          6           0       11.571428   -2.718541   -0.083922
     99          6           0       14.799061   -1.439647    1.440981
    100          6           0       13.580779   -4.424036    0.376162
    101          8           0       12.962610   -5.498393    0.221510
    102          6           0       15.019147   -4.514775    0.693866
    103          7           0        8.657121   -2.251230   -1.160281
    104          6           0        9.477814   -3.347047   -1.313252
    105          6           0        8.691873   -4.561903   -1.879692
    106          6           0        7.204941   -3.991527   -1.855245
    107          6           0        7.414579   -2.515018   -1.567318
    108          6           0        9.124258   -5.142215   -3.287724
    109          6           0        6.242769   -4.611396   -0.854331
    110          6           0        5.057847   -5.390924   -1.462085
    111          7           0        7.493330    0.272829   -0.688694
    112          6           0        6.413085   -0.238788   -1.368000
    113          6           0        5.425038    0.820574   -1.610460
    114          6           0        6.024358    1.959596   -1.102701
    115          6           0        7.273009    1.587159   -0.556754
    116          6           0        4.109969    0.740036   -2.312895
    117          6           0        5.781127    3.343930   -0.909929
    118          8           0        4.759329    4.061135   -1.107591
    119          6           0        7.027133    3.872785   -0.336735
    120          6           0        7.514086    5.044490   -1.145677
    121          8           0        7.970327    4.982639   -2.235931
    122          8           0        7.421877    6.162536   -0.425998
    123          6           0        7.530527    7.424145   -1.076415
    124          1           0       13.173111    0.895083    1.669603
    125          1           0       10.974184   -4.594630   -0.974450
    126          1           0        5.525230   -1.882856   -2.361060
    127          1           0       10.255259    4.581299    0.246912
    128          1           0       11.602393    3.124266    2.476354
    129          1           0       12.701709    4.701298    0.263502
    130          1           0       13.199166    3.062126    0.043044
    131          1           0       13.588137    3.858341    1.575499
    132          1           0        9.788098    4.008617    3.157666
    133          1           0        8.314787    4.068085    2.228621
    134          1           0        9.508293    6.086774    3.417733
    135          1           0        8.309423    6.146689    2.117523
    136          1           0       15.537490   -1.661958    0.670963
    137          1           0       14.965840   -2.103902    2.288954
    138          1           0       14.837323   -0.447098    1.891040
    139          1           0       15.558050   -3.945506   -0.063573
    140          1           0       15.279385   -5.563109    0.549692
    141          1           0       15.224138   -4.281443    1.738327
    142          1           0        8.773816   -5.338180   -1.118246
    143          1           0        6.793744   -4.148772   -2.852337
    144          1           0        9.970619   -4.580060   -3.680756
    145          1           0        8.293954   -5.226215   -3.989943
    146          1           0        9.413058   -6.181447   -3.129772
    147          1           0        5.882602   -3.962356   -0.056003
    148          1           0        6.808353   -5.363095   -0.304735
    149          1           0        4.077102   -5.226325   -1.016275
    150          1           0        5.199313   -6.435509   -1.183419
    151          1           0        4.912851   -5.263336   -2.533988
    152          1           0        3.742872   -0.282999   -2.399849
    153          1           0        4.228969    1.017452   -3.360164
    154          1           0        3.461782    1.476153   -1.837572
    155          1           0        6.773953    4.199619    0.671476
    156          1           0        6.593663    7.568400   -1.616384
    157          1           0        8.293843    7.397642   -1.854211
    158          1           0        7.620646    8.234426   -0.352446
 ---------------------------------------------------------------------

 SCF Done:  E(RwB97XD) =  -4070.64349976     A.U. after   19 cycles

 Excitation energies and oscillator strengths:

 Excited State   1:      Singlet-A      1.6673 eV  743.61 nm  f=0.7340  <S**2>=0.000
     309 -> 316        0.10881
     310 -> 315       -0.15471
     311 -> 313        0.41330
     312 -> 314        0.54255
 This state for optimization and/or second-order correction.
 Total Energy, E(TD-HF/TD-DFT) =  -4070.58222684
 Copying the excited state density for this state as the 1-particle RhoCI density.

 Excited State   2:      Singlet-A      1.6728 eV  741.17 nm  f=0.0795  <S**2>=0.000
     309 -> 316        0.14477
     310 -> 315        0.11796
     311 -> 313        0.54574
     312 -> 314       -0.41039

 Excited State   3:      Singlet-A      2.1576 eV  574.63 nm  f=0.1156  <S**2>=0.000
     309 -> 313        0.64732
     311 -> 316       -0.26945

 Excited State   4:      Singlet-A      2.1966 eV  564.45 nm  f=0.0868  <S**2>=0.000
     310 -> 314        0.62386
     312 -> 315        0.31787

 Excited State   5:      Singlet-A      3.3578 eV  369.24 nm  f=0.0000  <S**2>=0.000
     312 -> 313        0.70673

 The electronic state is 1-A.
 Alpha  occ. eigenvalues --  -46.95268 -46.95198 -19.31123 -19.30271 -19.24633
 Alpha  occ. eigenvalues --  -19.24209 -19.24197 -19.24052 -19.23531 -19.23407
 Alpha  occ. eigenvalues --  -14.46674 -14.46388 -14.46258 -14.46237 -14.44351
 Alpha  occ. eigenvalues --  -14.44121 -14.44097 -14.43799 -10.43358 -10.42935
 Alpha  occ. eigenvalues --  -10.38934 -10.38882 -10.38835 -10.38815 -10.35995
 Alpha  occ. eigenvalues --  -10.35800 -10.35280 -10.35091 -10.34957 -10.34903
 Alpha  occ. eigenvalues --  -10.34692 -10.34669 -10.34628 -10.34388 -10.34137
 Alpha  occ. eigenvalues --  -10.34101 -10.34044 -10.33928 -10.33672 -10.33489
 Alpha  occ. eigenvalues --  -10.33403 -10.33324 -10.33234 -10.33009 -10.32822
 Alpha  occ. eigenvalues --  -10.32648 -10.32568 -10.32493 -10.32406 -10.32334
 Alpha  occ. eigenvalues --  -10.32326 -10.32274 -10.32198 -10.32016 -10.31954
 Alpha  occ. eigenvalues --  -10.31860 -10.31640 -10.31624 -10.31569 -10.31422
 Alpha  occ. eigenvalues --  -10.31385 -10.31318 -10.31255 -10.31203 -10.31093
 Alpha  occ. eigenvalues --  -10.31009 -10.30882 -10.30804 -10.30761 -10.30494
 Alpha  occ. eigenvalues --  -10.30413 -10.30156 -10.30079 -10.29982 -10.29921
 Alpha  occ. eigenvalues --  -10.29899 -10.29844 -10.29781 -10.29734 -10.29407
 Alpha  occ. eigenvalues --  -10.29362 -10.29332 -10.29287 -10.29269 -10.29173
 Alpha  occ. eigenvalues --  -10.29152  -3.21288  -3.21068  -1.94860  -1.94678
 Alpha  occ. eigenvalues --   -1.94423  -1.94258  -1.94173  -1.94044  -1.20857
 Alpha  occ. eigenvalues --   -1.18551  -1.13152  -1.11956  -1.11134  -1.10468
 Alpha  occ. eigenvalues --   -1.10401  -1.09249  -1.07080  -1.06931  -1.06033
 Alpha  occ. eigenvalues --   -1.05823  -1.05373  -1.04531  -1.03791  -1.02982
 Alpha  occ. eigenvalues --   -0.95663  -0.94418  -0.91047  -0.90964  -0.90444
 Alpha  occ. eigenvalues --   -0.90254  -0.90148  -0.89755  -0.89574  -0.89105
 Alpha  occ. eigenvalues --   -0.88786  -0.88629  -0.88227  -0.88195  -0.86545
 Alpha  occ. eigenvalues --   -0.85846  -0.85424  -0.85420  -0.84533  -0.84170
 Alpha  occ. eigenvalues --   -0.83982  -0.83785  -0.83673  -0.83114  -0.82493
 Alpha  occ. eigenvalues --   -0.82483  -0.80384  -0.80263  -0.79684  -0.79444
 Alpha  occ. eigenvalues --   -0.79214  -0.79110  -0.78291  -0.78111  -0.77136
 Alpha  occ. eigenvalues --   -0.76793  -0.75208  -0.74569  -0.73491  -0.73457
 Alpha  occ. eigenvalues --   -0.71397  -0.71121  -0.70947  -0.70254  -0.69986
 Alpha  occ. eigenvalues --   -0.69468  -0.68904  -0.68229  -0.67863  -0.67733
 Alpha  occ. eigenvalues --   -0.67326  -0.67011  -0.66894  -0.66851  -0.66488
 Alpha  occ. eigenvalues --   -0.66300  -0.65056  -0.64665  -0.62332  -0.61902
 Alpha  occ. eigenvalues --   -0.61805  -0.61543  -0.61323  -0.61182  -0.61163
 Alpha  occ. eigenvalues --   -0.60674  -0.60210  -0.60185  -0.59758  -0.59259
 Alpha  occ. eigenvalues --   -0.58457  -0.58104  -0.58017  -0.57778  -0.57337
 Alpha  occ. eigenvalues --   -0.57157  -0.56916  -0.56617  -0.55866  -0.55716
 Alpha  occ. eigenvalues --   -0.55372  -0.55368  -0.55248  -0.54942  -0.54861
 Alpha  occ. eigenvalues --   -0.54690  -0.54689  -0.54376  -0.54328  -0.54127
 Alpha  occ. eigenvalues --   -0.53665  -0.53537  -0.53512  -0.53425  -0.53390
 Alpha  occ. eigenvalues --   -0.53201  -0.53056  -0.53029  -0.52120  -0.52043
 Alpha  occ. eigenvalues --   -0.51958  -0.51906  -0.51806  -0.51778  -0.51284
 Alpha  occ. eigenvalues --   -0.51259  -0.51026  -0.50902  -0.50715  -0.50557
 Alpha  occ. eigenvalues --   -0.50434  -0.50325  -0.50225  -0.50168  -0.49972
 Alpha  occ. eigenvalues --   -0.49837  -0.49630  -0.49382  -0.49347  -0.49134
 Alpha  occ. eigenvalues --   -0.49027  -0.48877  -0.48715  -0.48595  -0.48181
 Alpha  occ. eigenvalues --   -0.48173  -0.48092  -0.48001  -0.47786  -0.47770
 Alpha  occ. eigenvalues --   -0.47594  -0.47407  -0.47200  -0.47117  -0.46814
 Alpha  occ. eigenvalues --   -0.46765  -0.46519  -0.46441  -0.46435  -0.46231
 Alpha  occ. eigenvalues --   -0.45731  -0.45648  -0.45535  -0.45385  -0.45365
 Alpha  occ. eigenvalues --   -0.45070  -0.44926  -0.44920  -0.44612  -0.44537
 Alpha  occ. eigenvalues --   -0.44493  -0.44160  -0.44020  -0.43859  -0.43736
 Alpha  occ. eigenvalues --   -0.43555  -0.43428  -0.43366  -0.43153  -0.43114
 Alpha  occ. eigenvalues --   -0.42908  -0.42803  -0.42550  -0.42228  -0.42192
 Alpha  occ. eigenvalues --   -0.42009  -0.41824  -0.41581  -0.41400  -0.41064
 Alpha  occ. eigenvalues --   -0.40093  -0.40070  -0.39860  -0.39386  -0.39160
 Alpha  occ. eigenvalues --   -0.39114  -0.38744  -0.38646  -0.38596  -0.38293
 Alpha  occ. eigenvalues --   -0.37902  -0.37777  -0.36689  -0.36139  -0.35998
 Alpha  occ. eigenvalues --   -0.35861  -0.35333  -0.35177  -0.33737  -0.33588
 Alpha  occ. eigenvalues --   -0.33255  -0.32889  -0.32881  -0.32666  -0.32619
 Alpha  occ. eigenvalues --   -0.32203  -0.31680  -0.31609  -0.26063  -0.25771
 Alpha  occ. eigenvalues --   -0.23131  -0.22579
 Alpha virt. eigenvalues --   -0.07301  -0.06630   0.00209   0.00431   0.01831
 Alpha virt. eigenvalues --    0.02611   0.04104   0.04707   0.05369   0.06146
 Alpha virt. eigenvalues --    0.06664   0.07777   0.08003   0.08329   0.08461

 Mulliken charges:
               1
     1  Mg   0.952539
     2  C   -0.030087
     3  C   -0.087536
     4  C   -0.053960
     5  C   -0.079156
     6  N   -0.317097
     7  C   -0.008831
     8  C   -0.054061
     9  C   -0.041642
    10  C   -0.008984
    11  C    0.019841
    12  C    0.020988
    13  C   -0.115263
    14  H    0.016155
    15  N   -0.461259
    16  C    0.197267
    17  C   -0.169725
    18  C   -0.061393
    19  C    0.119866
    20  C    0.061363
    21  C    0.038440
    22  O   -0.263000
    23  C    0.013297
    24  N   -0.333194
    25  C    0.064146
    26  C   -0.091873
    27  C   -0.098970
    28  C    0.041451
    29  C    0.031190
    30  C   -0.015216
    31  C   -0.053801
    32  N   -0.449346
    33  C    0.129928
    34  C   -0.162249
    35  C   -0.055447
    36  C    0.145161
    37  C    0.075947
    38  C    0.096456
    39  O   -0.183794
    40  C   -0.041960
    41  C    0.280658
    42  O   -0.275781
    43  O   -0.352565
    44  C    0.140868
    45  H   -0.023668
    46  H    0.027964
    47  H   -0.002470
    48  H    0.046312
    49  H    0.034323
    50  H    0.049644
    51  H    0.031309
    52  H    0.027007
    53  H    0.018503
    54  H    0.024709
    55  H    0.054928
    56  H    0.067024
    57  H    0.025790
    58  H    0.063931
    59  H    0.051252
    60  H    0.063499
    61  H    0.041705
    62  H    0.052819
    63  H    0.040482
    64  H    0.038310
    65  H    0.048081
    66  H    0.045846
    67  H    0.029682
    68  H    0.031806
    69  H    0.025684
    70  H    0.040515
    71  H    0.032213
    72  H    0.041498
    73  H    0.049807
    74  H    0.047428
    75  H    0.057567
    76  H    0.066825
    77  H    0.067379
    78  H    0.052893
    79  H    0.050032
    80  Mg   0.968056
    81  C   -0.020944
    82  C   -0.037380
    83  C   -0.069045
    84  C   -0.100257
    85  N   -0.318734
    86  C   -0.004849
    87  C   -0.025495
    88  C   -0.108505
    89  C    0.038741
    90  C    0.011098
    91  C    0.007135
    92  C   -0.131865
    93  H    0.014518
    94  N   -0.444887
    95  C    0.109467
    96  C   -0.188508
    97  C   -0.082223
    98  C    0.150649
    99  C    0.090999
   100  C    0.056788
   101  O   -0.260050
   102  C   -0.010183
   103  N   -0.428874
   104  C    0.096534
   105  C   -0.123072
   106  C   -0.081833
   107  C    0.106357
   108  C    0.027957
   109  C    0.012407
   110  C   -0.064984
   111  N   -0.411521
   112  C    0.113807
   113  C   -0.171009
   114  C   -0.051478
   115  C    0.143734
   116  C    0.088566
   117  C    0.114831
   118  O   -0.251394
   119  C   -0.028871
   120  C    0.225697
   121  O   -0.205599
   122  O   -0.332523
   123  C    0.138657
   124  H   -0.013889
   125  H    0.020198
   126  H   -0.001122
   127  H    0.046172
   128  H    0.041770
   129  H    0.041071
   130  H    0.040462
   131  H    0.039933
   132  H    0.033176
   133  H    0.030989
   134  H    0.045571
   135  H    0.057514
   136  H    0.058281
   137  H    0.041292
   138  H    0.035306
   139  H    0.054198
   140  H    0.046962
   141  H    0.066158
   142  H    0.046305
   143  H    0.023557
   144  H    0.051640
   145  H    0.035056
   146  H    0.038305
   147  H    0.040571
   148  H    0.022468
   149  H    0.029717
   150  H    0.032361
   151  H    0.037455
   152  H    0.031261
   153  H    0.058738
   154  H    0.072492
   155  H    0.068874
   156  H    0.047760
   157  H    0.056504
   158  H    0.060981
 Sum of Mulliken charges =  -0.00000

 Dipole moment (field-independent basis, Debye):
    X=              1.9999    Y=              0.4504    Z=              6.1167  Tot=              6.4511
 Quadrupole moment (field-independent basis, Debye-Ang):
   XX=           -481.5923   YY=           -511.2095   ZZ=           -495.1544
   XY=             36.7898   XZ=              6.9415   YZ=             40.9062

 Normal termination of Gaussian 16 at Mon Sep 20 00:40:28 2021.
