 Gaussian 16, Revision A.03,
 Gaussian 16:  ES64L-G16RevA.03 25-Dec-2016

 --------------------------------
 #p wB97XD/Def2SVP td=(nstates=5)
 --------------------------------

 --------------------------------
 TDDFT excited states in gaussian
 --------------------------------
 Symbolic Z-matrix:
 Charge =  0 Multiplicity = 1

                         Standard orientation:
 ---------------------------------------------------------------------
 Center     Atomic      Atomic             Coordinates (Angstroms)
 Number     Number       Type             X           Y           Z
 ---------------------------------------------------------------------
      1         12           0       28.827103    0.605845   -0.312553
      2          6           0       28.146325   -2.775444   -0.061596
      3          6           0       25.942467    1.249127    1.651597
      4          6           0       29.733149    3.897562   -0.019553
      5          6           0       31.870752   -0.056377   -1.804756
      6          7           0       27.188472   -0.648149    0.546931
      7          6           0       27.192291   -2.026116    0.601316
      8          6           0       26.080460   -2.631321    1.537905
      9          6           0       25.143837   -1.350473    1.753139
     10          6           0       26.090461   -0.120232    1.260094
     11          6           0       23.724536   -1.309440    1.068813
     12          6           0       26.571480   -3.196012    2.824347
     13          6           0       26.370710   -4.662406    3.155351
     14          1           0       26.261665   -5.007869    4.649179
     15          7           0       27.898056    2.365853    0.609587
     16          6           0       26.680028    2.365505    1.315129
     17          6           0       26.337244    3.703262    1.680021
     18          6           0       27.540622    4.502098    1.328647
     19          6           0       28.492420    3.599762    0.609588
     20          6           0       25.110545    4.078331    2.518030
     21          6           0       27.637752    5.997324    1.678427
     22          8           0       26.808459    6.676213    2.277183
     23          6           0       28.980626    6.628988    1.573577
     24          7           0       30.709122    1.789250   -0.696457
     25          6           0       30.703579    3.128340   -0.646964
     26          6           0       32.151183    3.575897   -0.844146
     27          6           0       32.895167    2.332837   -1.522897
     28          6           0       31.743180    1.242027   -1.371380
     29          6           0       32.196701    4.790245   -1.837955
     30          6           0       34.275568    1.824293   -0.936030
     31          6           0       35.552340    1.935218   -1.755887
     32          7           0       29.820224   -1.096364   -0.924025
     33          6           0       31.058037   -1.225240   -1.561745
     34          6           0       31.369053   -2.609636   -1.747320
     35          6           0       30.257588   -3.298620   -1.170678
     36          6           0       29.328497   -2.276639   -0.731355
     37          6           0       32.585911   -3.216712   -2.371374
     38          6           0       29.656356   -4.543144   -0.919917
     39          8           0       30.084831   -5.648048   -1.186747
     40          6           0       28.318705   -4.275074   -0.127241
     41          6           0       27.254139   -5.107385   -0.709150
     42          8           0       26.825772   -6.123439   -0.173647
     43          8           0       26.852275   -4.585239   -1.929546
     44          6           0       25.810821   -5.401054   -2.593502
     45          1           0       25.062319    1.572615    2.210422
     46          1           0       29.901477    4.975052    0.043227
     47          1           0       32.854613   -0.247111   -2.238165
     48          1           0       25.528364   -3.397588    0.994840
     49          1           0       25.052030   -1.214717    2.831347
     50          1           0       23.509988   -2.319214    0.719060
     51          1           0       23.637354   -0.600375    0.245465
     52          1           0       23.018136   -0.972912    1.826742
     53          1           0       26.027606   -2.675385    3.613981
     54          1           0       27.648058   -3.050674    2.906848
     55          1           0       27.257338   -5.200369    2.821078
     56          1           0       25.461208   -5.081606    2.725632
     57          1           0       24.449830    3.315844    2.929942
     58          1           0       24.595844    4.778498    1.860504
     59          1           0       25.519758    4.763948    3.259351
     60          1           0       29.288470    7.089342    0.635724
     61          1           0       29.772485    5.978298    1.944913
     62          1           0       28.958969    7.486515    2.247123
     63          1           0       32.639653    3.854107    0.089993
     64          1           0       32.972717    2.484113   -2.598991
     65          1           0       32.804542    5.560484   -1.363254
     66          1           0       31.227485    5.202705   -2.121136
     67          1           0       32.641852    4.540846   -2.801424
     68          1           0       34.085290    0.778836   -0.694312
     69          1           0       34.454098    2.446833   -0.058192
     70          1           0       36.213628    1.168187   -1.352032
     71          1           0       36.013312    2.903749   -1.560861
     72          1           0       35.526493    1.766372   -2.831902
     73          1           0       32.437126   -4.295824   -2.324827
     74          1           0       33.448451   -2.857296   -1.810993
     75          1           0       32.742206   -2.969632   -3.421588
     76          1           0       28.530243   -4.667834    0.867863
     77          1           0       26.274577   -6.151621   -3.233476
     78          1           0       25.153328   -4.691476   -3.095753
     79          1           0       25.164695   -5.899488   -1.871438
     80         12           0      -29.434065   -0.116338   -0.669900
     81          6           0      -26.207780    0.551429    0.697896
     82          6           0      -29.232454   -3.069984    0.829207
     83          6           0      -32.777830   -0.456275   -1.023705
     84          6           0      -29.628060    3.393606   -1.255433
     85          7           0      -27.904995   -1.145607    0.467728
     86          6           0      -26.608992   -0.739753    0.853312
     87          6           0      -25.835651   -1.834886    1.653299
     88          6           0      -26.852449   -3.010751    1.615027
     89          6           0      -28.053009   -2.421109    0.845002
     90          6           0      -26.139876   -4.216125    0.979395
     91          6           0      -25.379666   -1.482370    3.134735
     92          6           0      -23.879030   -1.396828    3.388305
     93          1           0      -23.294022   -2.294394    4.497813
     94          7           0      -30.793938   -1.551886   -0.274749
     95          6           0      -30.491629   -2.744247    0.382628
     96          6           0      -31.608705   -3.599643    0.391925
     97          6           0      -32.642661   -2.961244   -0.267762
     98          6           0      -32.148908   -1.628138   -0.547773
     99          6           0      -31.732945   -5.053272    0.982188
    100          6           0      -33.979311   -3.614245   -0.530910
    101          8           0      -34.223194   -4.761834   -0.303498
    102          6           0      -35.058897   -2.696254   -1.289509
    103          7           0      -31.007522    1.270973   -1.010075
    104          6           0      -32.302512    0.853062   -1.152951
    105          6           0      -33.192959    2.153896   -1.302082
    106          6           0      -32.239415    3.343292   -1.504353
    107          6           0      -30.853618    2.646373   -1.224234
    108          6           0      -34.320892    2.039053   -2.287761
    109          6           0      -32.501742    4.392783   -0.431411
    110          6           0      -32.080438    5.806953   -0.730755
    111          7           0      -28.100271    1.608834   -0.586410
    112          6           0      -28.323107    2.933005   -0.879883
    113          6           0      -27.129119    3.679612   -0.715340
    114          6           0      -26.176794    2.799220   -0.149473
    115          6           0      -26.891205    1.578243    0.009298
    116          6           0      -26.939198    5.129444   -0.917015
    117          6           0      -24.829065    2.584139    0.394380
    118          8           0      -23.876543    3.374592    0.431903
    119          6           0      -24.764946    1.109970    0.950585
    120          6           0      -23.884395    0.330941    0.121483
    121          8           0      -24.239932   -0.056377   -1.016740
    122          8           0      -22.719716    0.199010    0.786279
    123          6           0      -21.690537   -0.729134    0.242810
    124          1           0      -29.186132   -4.065034    1.277403
    125          1           0      -33.844185   -0.623156   -1.190209
    126          1           0      -29.591503    4.449243   -1.531289
    127          1           0      -24.936762   -2.121980    1.107790
    128          1           0      -27.225071   -3.296282    2.598290
    129          1           0      -26.901721   -4.975824    0.807014
    130          1           0      -25.343878   -4.666335    1.572371
    131          1           0      -25.682783   -3.969796    0.020359
    132          1           0      -25.681572   -2.355619    3.713037
    133          1           0      -25.899973   -0.590589    3.484344
    134          1           0      -23.646927   -0.353153    3.603123
    135          1           0      -23.346590   -1.692524    2.483642
    136          1           0      -32.596304   -5.025770    1.647298
    137          1           0      -30.848092   -5.340139    1.550169
    138          1           0      -31.784346   -5.860670    0.251776
    139          1           0      -35.903782   -3.351617   -1.498979
    140          1           0      -34.512820   -2.356724   -2.169955
    141          1           0      -35.242165   -1.913268   -0.553741
    142          1           0      -33.666157    2.241407   -0.323424
    143          1           0      -32.268466    3.838208   -2.475033
    144          1           0      -34.517703    3.029058   -2.698265
    145          1           0      -35.171071    1.655637   -1.723239
    146          1           0      -34.170310    1.285495   -3.059911
    147          1           0      -32.071629    4.132500    0.536162
    148          1           0      -33.553882    4.439362   -0.150538
    149          1           0      -31.806068    5.956349   -1.774867
    150          1           0      -31.217044    6.035060   -0.105428
    151          1           0      -32.820422    6.516520   -0.360695
    152          1           0      -27.621581    5.524549   -1.670242
    153          1           0      -25.904911    5.244192   -1.242245
    154          1           0      -27.173616    5.587415    0.044201
    155          1           0      -24.551863    1.032777    2.016775
    156          1           0      -20.783959   -0.201653    0.542990
    157          1           0      -21.771064   -0.902465   -0.829900
    158          1           0      -21.621318   -1.641091    0.836765
 ---------------------------------------------------------------------

 SCF Done:  E(RwB97XD) =  -4070.59531832     A.U. after   20 cycles

 Excitation energies and oscillator strengths:

 Excited State   1:      Singlet-A      1.6654 eV  744.49 nm  f=0.3737  <S**2>=0.000
     309 -> 315        0.17855
     311 -> 313        0.68392
     309 <- 315        0.11343
 This state for optimization and/or second-order correction.
 Total Energy, E(TD-HF/TD-DFT) =  -4070.53411743
 Copying the excited state density for this state as the 1-particle RhoCI density.

 Excited State   2:      Singlet-A      1.6724 eV  741.36 nm  f=0.3934  <S**2>=0.000
     310 -> 316       -0.17568
     312 -> 314        0.68498
     310 <- 316       -0.11216

 Excited State   3:      Singlet-A      2.1184 eV  585.28 nm  f=0.1555  <S**2>=0.000
     309 -> 313        0.64907
     311 -> 315       -0.25656

 Excited State   4:      Singlet-A      2.2042 eV  562.48 nm  f=0.1141  <S**2>=0.000
     310 -> 314        0.63537
     312 -> 316        0.29114

 Excited State   5:      Singlet-A      3.0629 eV  404.79 nm  f=0.0077  <S**2>=0.000
     307 -> 313        0.68068

 The electronic state is 1-A.
 Alpha  occ. eigenvalues --  -46.96835 -46.94880 -19.31712 -19.30349 -19.24779
 Alpha  occ. eigenvalues --  -19.24711 -19.24597 -19.24207 -19.23780 -19.23303
 Alpha  occ. eigenvalues --  -14.48167 -14.47190 -14.46790 -14.46568 -14.44716
 Alpha  occ. eigenvalues --  -14.44431 -14.44180 -14.43052 -10.43338 -10.42983
 Alpha  occ. eigenvalues --  -10.39491 -10.39413 -10.39315 -10.38159 -10.37287
 Alpha  occ. eigenvalues --  -10.36589 -10.36239 -10.35766 -10.35719 -10.35696
 Alpha  occ. eigenvalues --  -10.35521 -10.35243 -10.35112 -10.34798 -10.34616
 Alpha  occ. eigenvalues --  -10.34565 -10.34528 -10.34111 -10.34097 -10.33709
 Alpha  occ. eigenvalues --  -10.33540 -10.33039 -10.33017 -10.32786 -10.32757
 Alpha  occ. eigenvalues --  -10.32743 -10.32646 -10.32587 -10.32424 -10.32423
 Alpha  occ. eigenvalues --  -10.32352 -10.32336 -10.32317 -10.32232 -10.32209
 Alpha  occ. eigenvalues --  -10.31981 -10.31979 -10.31927 -10.31813 -10.31654
 Alpha  occ. eigenvalues --  -10.31551 -10.31345 -10.31336 -10.31292 -10.31144
 Alpha  occ. eigenvalues --  -10.31071 -10.30998 -10.30975 -10.30970 -10.30879
 Alpha  occ. eigenvalues --  -10.30854 -10.30335 -10.30283 -10.30253 -10.30177
 Alpha  occ. eigenvalues --  -10.30076 -10.30065 -10.29893 -10.29717 -10.29703
 Alpha  occ. eigenvalues --  -10.29664 -10.29345 -10.29274 -10.28982 -10.28907
 Alpha  occ. eigenvalues --  -10.28864  -3.22530  -3.20920  -1.96140  -1.95621
 Alpha  occ. eigenvalues --   -1.95492  -1.94485  -1.94024  -1.93912  -1.18814
 Alpha  occ. eigenvalues --   -1.17700  -1.14239  -1.12345  -1.11964  -1.10884
 Alpha  occ. eigenvalues --   -1.09688  -1.09564  -1.06811  -1.06161  -1.06072
 Alpha  occ. eigenvalues --   -1.05249  -1.04855  -1.04651  -1.03823  -1.03769
 Alpha  occ. eigenvalues --   -0.94553  -0.94171  -0.91523  -0.91484  -0.91267
 Alpha  occ. eigenvalues --   -0.91220  -0.90690  -0.90057  -0.89664  -0.89295
 Alpha  occ. eigenvalues --   -0.89094  -0.88640  -0.88429  -0.87850  -0.86727
 Alpha  occ. eigenvalues --   -0.86456  -0.86134  -0.85736  -0.85194  -0.84836
 Alpha  occ. eigenvalues --   -0.84191  -0.83843  -0.83113  -0.82842  -0.82740
 Alpha  occ. eigenvalues --   -0.82270  -0.79798  -0.79658  -0.79342  -0.79151
 Alpha  occ. eigenvalues --   -0.78953  -0.78621  -0.78174  -0.78160  -0.77473
 Alpha  occ. eigenvalues --   -0.77107  -0.75510  -0.74736  -0.74300  -0.73717
 Alpha  occ. eigenvalues --   -0.71352  -0.71252  -0.70984  -0.70525  -0.70003
 Alpha  occ. eigenvalues --   -0.69723  -0.69246  -0.69111  -0.67662  -0.67554
 Alpha  occ. eigenvalues --   -0.67504  -0.67468  -0.67298  -0.67012  -0.66795
 Alpha  occ. eigenvalues --   -0.66570  -0.64994  -0.64222  -0.62315  -0.62193
 Alpha  occ. eigenvalues --   -0.61742  -0.61618  -0.61467  -0.61395  -0.61083
 Alpha  occ. eigenvalues --   -0.60467  -0.60202  -0.59809  -0.59153  -0.58916
 Alpha  occ. eigenvalues --   -0.58566  -0.58386  -0.57999  -0.57942  -0.57419
 Alpha  occ. eigenvalues --   -0.56973  -0.56705  -0.56630  -0.56209  -0.55782
 Alpha  occ. eigenvalues --   -0.55778  -0.55507  -0.55188  -0.55108  -0.54830
 Alpha  occ. eigenvalues --   -0.54814  -0.54705  -0.54436  -0.54410  -0.54365
 Alpha  occ. eigenvalues --   -0.54056  -0.53854  -0.53637  -0.53400  -0.53275
 Alpha  occ. eigenvalues --   -0.53152  -0.52849  -0.52459  -0.52363  -0.52278
 Alpha  occ. eigenvalues --   -0.52166  -0.52087  -0.51939  -0.51759  -0.51721
 Alpha  occ. eigenvalues --   -0.51458  -0.51189  -0.51178  -0.50891  -0.50853
 Alpha  occ. eigenvalues --   -0.50566  -0.50392  -0.50233  -0.50170  -0.49978
 Alpha  occ. eigenvalues --   -0.49845  -0.49799  -0.49466  -0.49422  -0.49155
 Alpha  occ. eigenvalues --   -0.48974  -0.48899  -0.48622  -0.48527  -0.48373
 Alpha  occ. eigenvalues --   -0.48246  -0.48099  -0.48037  -0.47935  -0.47806
 Alpha  occ. eigenvalues --   -0.47661  -0.47583  -0.47249  -0.47219  -0.47106
 Alpha  occ. eigenvalues --   -0.47060  -0.46890  -0.46689  -0.46662  -0.46508
 Alpha  occ. eigenvalues --   -0.46249  -0.46079  -0.46075  -0.45750  -0.45670
 Alpha  occ. eigenvalues --   -0.45578  -0.45445  -0.45256  -0.44996  -0.44984
 Alpha  occ. eigenvalues --   -0.44755  -0.44722  -0.44522  -0.44350  -0.44233
 Alpha  occ. eigenvalues --   -0.44167  -0.43839  -0.43599  -0.43586  -0.43559
 Alpha  occ. eigenvalues --   -0.43442  -0.43251  -0.42515  -0.42348  -0.42113
 Alpha  occ. eigenvalues --   -0.42006  -0.41899  -0.41637  -0.41384  -0.41097
 Alpha  occ. eigenvalues --   -0.40396  -0.40270  -0.40130  -0.39950  -0.39583
 Alpha  occ. eigenvalues --   -0.39420  -0.39255  -0.39211  -0.38800  -0.38779
 Alpha  occ. eigenvalues --   -0.37941  -0.37848  -0.36530  -0.36340  -0.36241
 Alpha  occ. eigenvalues --   -0.36150  -0.35484  -0.35203  -0.34029  -0.34011
 Alpha  occ. eigenvalues --   -0.33219  -0.32991  -0.32741  -0.32670  -0.32485
 Alpha  occ. eigenvalues --   -0.32308  -0.31852  -0.31069  -0.26555  -0.26217
 Alpha  occ. eigenvalues --   -0.23986  -0.23073
 Alpha virt. eigenvalues --   -0.08101  -0.07100  -0.00430   0.00220   0.02051
 Alpha virt. eigenvalues --    0.02648   0.04316   0.04782   0.05440   0.05462
 Alpha virt. eigenvalues --    0.06752   0.07046   0.07218   0.07417   0.08093

 Mulliken charges:
               1
     1  Mg   0.930367
     2  C    0.060666
     3  C   -0.053525
     4  C   -0.067742
     5  C   -0.064606
     6  N   -0.367861
     7  C   -0.017580
     8  C   -0.066862
     9  C   -0.122682
    10  C    0.087868
    11  C    0.030132
    12  C    0.037097
    13  C   -0.149344
    14  H    0.025269
    15  N   -0.454819
    16  C    0.135261
    17  C   -0.149604
    18  C   -0.136709
    19  C    0.177486
    20  C    0.084143
    21  C    0.092262
    22  O   -0.239794
    23  C   -0.062558
    24  N   -0.335544
    25  C    0.120479
    26  C   -0.138818
    27  C   -0.048746
    28  C    0.022566
    29  C    0.006335
    30  C   -0.011662
    31  C   -0.052423
    32  N   -0.425390
    33  C    0.118289
    34  C   -0.169423
    35  C   -0.018292
    36  C    0.076979
    37  C    0.078411
    38  C    0.069278
    39  O   -0.202371
    40  C   -0.060221
    41  C    0.246506
    42  O   -0.245775
    43  O   -0.384151
    44  C    0.134985
    45  H   -0.012757
    46  H   -0.019732
    47  H   -0.002606
    48  H    0.034888
    49  H    0.040600
    50  H    0.043284
    51  H    0.048398
    52  H    0.043013
    53  H    0.039671
    54  H    0.043325
    55  H    0.068900
    56  H    0.058991
    57  H    0.056942
    58  H    0.057854
    59  H    0.063780
    60  H    0.068464
    61  H    0.055817
    62  H    0.048636
    63  H    0.055225
    64  H    0.030157
    65  H    0.036220
    66  H    0.039803
    67  H    0.031091
    68  H    0.041430
    69  H    0.028830
    70  H    0.036991
    71  H    0.037560
    72  H    0.038389
    73  H    0.063003
    74  H    0.045531
    75  H    0.046941
    76  H    0.066553
    77  H    0.069712
    78  H    0.052478
    79  H    0.054741
    80  Mg   0.984604
    81  C   -0.043480
    82  C   -0.132084
    83  C   -0.102581
    84  C   -0.063364
    85  N   -0.377823
    86  C    0.011641
    87  C   -0.047487
    88  C   -0.123577
    89  C    0.121299
    90  C    0.014121
    91  C    0.012325
    92  C   -0.135802
    93  H    0.033936
    94  N   -0.504863
    95  C    0.212662
    96  C   -0.172210
    97  C   -0.054816
    98  C    0.150088
    99  C    0.105950
   100  C    0.008185
   101  O   -0.195275
   102  C   -0.027805
   103  N   -0.393489
   104  C    0.110748
   105  C   -0.081181
   106  C   -0.082566
   107  C    0.107941
   108  C    0.029344
   109  C   -0.045308
   110  C   -0.025580
   111  N   -0.385830
   112  C    0.093498
   113  C   -0.223096
   114  C    0.000661
   115  C    0.116328
   116  C    0.079576
   117  C    0.129053
   118  O   -0.222394
   119  C   -0.072483
   120  C    0.292546
   121  O   -0.279978
   122  O   -0.349502
   123  C    0.124653
   124  H   -0.016757
   125  H   -0.040264
   126  H   -0.012853
   127  H    0.028335
   128  H    0.045441
   129  H    0.027678
   130  H    0.042802
   131  H    0.043028
   132  H    0.041049
   133  H    0.048466
   134  H    0.069500
   135  H    0.033044
   136  H    0.061780
   137  H    0.011489
   138  H    0.062647
   139  H    0.058160
   140  H    0.066191
   141  H    0.068508
   142  H    0.046806
   143  H    0.038422
   144  H    0.041331
   145  H    0.031656
   146  H    0.038552
   147  H    0.030410
   148  H    0.021525
   149  H    0.036073
   150  H    0.030058
   151  H    0.032962
   152  H    0.030638
   153  H    0.066810
   154  H    0.060810
   155  H    0.055784
   156  H    0.061748
   157  H    0.085143
   158  H    0.056443
 Sum of Mulliken charges =  -0.00000

 Dipole moment (field-independent basis, Debye):
    X=             -1.0578    Y=              2.9995    Z=             -0.8368  Tot=              3.2887
 Quadrupole moment (field-independent basis, Debye-Ang):
   XX=           -373.6575   YY=           -569.0585   ZZ=           -504.9189
   XY=            124.7106   XZ=            -56.7564   YZ=            -16.9667

 Normal termination of Gaussian 16 at Mon Sep 20 06:55:10 2021.
