 Gaussian 16, Revision A.03,
 Gaussian 16:  ES64L-G16RevA.03 25-Dec-2016

 --------------------------------
 #p wB97XD/Def2SVP td=(nstates=5)
 --------------------------------

 --------------------------------
 TDDFT excited states in gaussian
 --------------------------------
 Symbolic Z-matrix:
 Charge =  0 Multiplicity = 1

                         Standard orientation:
 ---------------------------------------------------------------------
 Center     Atomic      Atomic             Coordinates (Angstroms)
 Number     Number       Type             X           Y           Z
 ---------------------------------------------------------------------
      1         12           0       24.442328   -0.776910    0.161521
      2          6           0       24.187718    2.248438   -1.391571
      3          6           0       23.714865    0.830436    3.227651
      4          6           0       24.910730   -3.682263    1.759255
      5          6           0       25.073954   -2.238431   -2.882125
      6          7           0       24.314172    1.316109    0.898016
      7          6           0       24.122247    2.390917    0.020511
      8          6           0       23.837721    3.717767    0.779766
      9          6           0       23.776560    3.160115    2.226653
     10          6           0       24.013451    1.662952    2.144699
     11          6           0       24.643801    3.790481    3.398211
     12          6           0       22.518144    4.508977    0.370804
     13          6           0       22.324457    5.793292    1.220806
     14          1           0       22.578296    7.081038    0.435871
     15          7           0       24.274922   -1.358461    2.256504
     16          6           0       23.741283   -0.589245    3.268070
     17          6           0       23.809641   -1.413679    4.468919
     18          6           0       24.168311   -2.727576    4.026455
     19          6           0       24.452323   -2.659418    2.627544
     20          6           0       23.448002   -0.860710    5.793328
     21          6           0       24.361825   -3.937646    5.005674
     22          8           0       24.874992   -5.024072    4.669121
     23          6           0       23.988829   -3.796415    6.458401
     24          7           0       24.924585   -2.577248   -0.429924
     25          6           0       25.087180   -3.699616    0.430095
     26          6           0       25.740599   -4.850797   -0.300464
     27          6           0       25.325175   -4.521312   -1.732963
     28          6           0       25.032752   -3.027756   -1.710701
     29          6           0       27.294078   -4.893198   -0.110317
     30          6           0       24.034392   -5.252538   -2.164789
     31          6           0       24.151311   -6.647502   -2.717864
     32          7           0       24.661141   -0.207173   -1.807754
     33          6           0       24.761200   -0.895568   -2.956318
     34          6           0       24.801785    0.020679   -4.057538
     35          6           0       24.562335    1.266314   -3.517279
     36          6           0       24.437740    1.075875   -2.132304
     37          6           0       24.963268   -0.428051   -5.468036
     38          6           0       24.399406    2.616637   -3.851390
     39          8           0       24.395108    3.190190   -4.923489
     40          6           0       24.138915    3.340063   -2.447702
     41          6           0       25.168829    4.400882   -2.282879
     42          8           0       26.355513    4.247317   -2.124831
     43          8           0       24.606753    5.608794   -2.178486
     44          6           0       25.549682    6.771332   -1.953425
     45          1           0       23.333446    1.365078    4.099914
     46          1           0       25.060293   -4.638020    2.265506
     47          1           0       25.140403   -2.643825   -3.893553
     48          1           0       24.703839    4.370323    0.669249
     49          1           0       22.753856    3.229519    2.598480
     50          1           0       24.172255    3.830725    4.380471
     51          1           0       25.099930    4.721027    3.059911
     52          1           0       25.444297    3.066676    3.550638
     53          1           0       21.734572    3.759547    0.475514
     54          1           0       22.591155    4.768802   -0.685176
     55          1           0       22.896817    5.716962    2.145296
     56          1           0       21.270658    5.823691    1.496162
     57          1           0       24.357808   -0.803432    6.391191
     58          1           0       22.625488   -1.476909    6.156501
     59          1           0       23.014539    0.134355    5.692022
     60          1           0       24.131800   -4.747272    6.971762
     61          1           0       22.908136   -3.649527    6.435716
     62          1           0       24.461614   -2.987851    7.015279
     63          1           0       25.346577   -5.808548    0.040603
     64          1           0       26.105955   -4.719740   -2.466917
     65          1           0       27.782009   -4.110895   -0.690416
     66          1           0       27.682538   -5.873402   -0.387997
     67          1           0       27.456436   -4.746295    0.956897
     68          1           0       23.435896   -4.676193   -2.869146
     69          1           0       23.339903   -5.287918   -1.325306
     70          1           0       23.564448   -7.290950   -2.062995
     71          1           0       25.189437   -6.906415   -2.509060
     72          1           0       23.917363   -6.736220   -3.778884
     73          1           0       23.992285   -0.497708   -5.956839
     74          1           0       25.588007   -1.299285   -5.667282
     75          1           0       25.479043    0.392807   -5.966604
     76          1           0       23.145053    3.787472   -2.474034
     77          1           0       26.191493    6.501346   -1.114514
     78          1           0       25.038097    7.691151   -1.668822
     79          1           0       26.129365    6.909318   -2.866393
     80         12           0      -24.815411   -0.595703   -0.091032
     81          6           0      -22.299528    1.759832   -0.179085
     82          6           0      -26.476192    1.568501    2.229728
     83          6           0      -27.104333   -2.879840    0.352494
     84          6           0      -22.950572   -2.731215   -2.072740
     85          7           0      -24.278801    1.385753    1.071017
     86          6           0      -23.325497    2.208259    0.666548
     87          6           0      -23.593291    3.657723    1.161457
     88          6           0      -24.584314    3.357509    2.339885
     89          6           0      -25.192458    2.015942    1.900594
     90          6           0      -23.853575    3.257531    3.725980
     91          6           0      -24.232618    4.405510   -0.029712
     92          6           0      -24.463529    5.911949    0.151257
     93          1           0      -24.309175    6.548102    1.518111
     94          7           0      -26.590649   -0.689535    0.986766
     95          6           0      -27.102299    0.335726    1.854519
     96          6           0      -28.448050   -0.085104    2.219637
     97          6           0      -28.678504   -1.342143    1.578159
     98          6           0      -27.416133   -1.727740    0.949061
     99          6           0      -29.441910    0.753816    3.106561
    100          6           0      -30.021560   -2.142893    1.527651
    101          8           0      -30.005078   -3.241958    1.044944
    102          6           0      -31.273933   -1.564162    2.101571
    103          7           0      -25.044035   -2.521574   -0.849706
    104          6           0      -26.096779   -3.306876   -0.528329
    105          6           0      -26.008091   -4.709984   -1.127423
    106          6           0      -24.744577   -4.598966   -2.011872
    107          6           0      -24.198392   -3.167682   -1.614209
    108          6           0      -25.931682   -5.889848   -0.090102
    109          6           0      -24.900945   -4.885192   -3.483600
    110          6           0      -26.056780   -4.265225   -4.305340
    111          7           0      -22.999843   -0.588840   -0.971785
    112          6           0      -22.359401   -1.504226   -1.757020
    113          6           0      -21.139394   -0.882883   -2.227517
    114          6           0      -21.044993    0.439499   -1.672253
    115          6           0      -22.229380    0.544000   -0.892631
    116          6           0      -20.155527   -1.551597   -3.136066
    117          6           0      -20.257048    1.618111   -1.535433
    118          8           0      -19.138130    1.950955   -1.983278
    119          6           0      -20.976500    2.400603   -0.306539
    120          6           0      -20.889600    3.892357   -0.633207
    121          8           0      -21.249229    4.394754   -1.628461
    122          8           0      -20.281036    4.517563    0.417692
    123          6           0      -20.402844    5.957574    0.515481
    124          1           0      -26.943680    2.201753    2.986029
    125          1           0      -27.812916   -3.696709    0.504563
    126          1           0      -22.305677   -3.362685   -2.686180
    127          1           0      -22.699672    4.124227    1.575830
    128          1           0      -25.305040    4.173107    2.276368
    129          1           0      -24.041894    4.164310    4.299454
    130          1           0      -22.790006    3.117707    3.531709
    131          1           0      -24.226145    2.450584    4.357018
    132          1           0      -25.228351    3.987709   -0.175958
    133          1           0      -23.733932    4.178521   -0.971493
    134          1           0      -25.327024    6.282957   -0.401311
    135          1           0      -23.704037    6.373779   -0.479883
    136          1           0      -29.865269    0.167875    3.922907
    137          1           0      -30.192464    1.139716    2.416929
    138          1           0      -28.932381    1.642248    3.481563
    139          1           0      -32.039571   -2.045537    1.492742
    140          1           0      -31.379073   -0.499858    1.894215
    141          1           0      -31.414922   -1.506963    3.180866
    142          1           0      -26.911984   -4.815722   -1.726920
    143          1           0      -23.925075   -5.227729   -1.663845
    144          1           0      -25.279673   -6.634908   -0.545253
    145          1           0      -26.966642   -6.230460   -0.053039
    146          1           0      -25.654556   -5.514264    0.894855
    147          1           0      -25.227947   -5.923407   -3.437205
    148          1           0      -24.018285   -4.781112   -4.115505
    149          1           0      -26.780044   -4.936767   -4.766065
    150          1           0      -25.684871   -3.768731   -5.201567
    151          1           0      -26.629110   -3.592967   -3.665948
    152          1           0      -19.332931   -0.845332   -3.244755
    153          1           0      -20.592356   -1.682741   -4.126967
    154          1           0      -19.863002   -2.560224   -2.845663
    155          1           0      -20.419507    2.095545    0.579591
    156          1           0      -19.320942    6.068772    0.589163
    157          1           0      -21.046667    6.290552    1.329834
    158          1           0      -20.736554    6.445202   -0.400836
 ---------------------------------------------------------------------

 SCF Done:  E(RwB97XD) =  -4070.62901219     A.U. after   19 cycles

 Excitation energies and oscillator strengths:

 Excited State   1:      Singlet-A      1.5970 eV  776.37 nm  f=0.3893  <S**2>=0.000
     309 -> 316       -0.16564
     312 -> 313        0.68829
     309 <- 316       -0.11238
 This state for optimization and/or second-order correction.
 Total Energy, E(TD-HF/TD-DFT) =  -4070.57032419
 Copying the excited state density for this state as the 1-particle RhoCI density.

 Excited State   2:      Singlet-A      1.6762 eV  739.68 nm  f=0.3735  <S**2>=0.000
     310 -> 315        0.20178
     311 -> 314        0.67875
     310 <- 315        0.12040

 Excited State   3:      Singlet-A      2.1628 eV  573.25 nm  f=0.0887  <S**2>=0.000
     310 -> 314        0.63325
     311 -> 315       -0.30170

 Excited State   4:      Singlet-A      2.1950 eV  564.86 nm  f=0.1058  <S**2>=0.000
     309 -> 313        0.63719
     312 -> 316        0.28946

 Excited State   5:      Singlet-A      3.2157 eV  385.56 nm  f=0.0019  <S**2>=0.000
     308 -> 313        0.67727

 The electronic state is 1-A.
 Alpha  occ. eigenvalues --  -46.94626 -46.93851 -19.30146 -19.29653 -19.25211
 Alpha  occ. eigenvalues --  -19.24486 -19.24148 -19.24082 -19.23695 -19.23546
 Alpha  occ. eigenvalues --  -14.47332 -14.46361 -14.46340 -14.46303 -14.43918
 Alpha  occ. eigenvalues --  -14.43914 -14.43476 -14.43431 -10.42794 -10.42374
 Alpha  occ. eigenvalues --  -10.39212 -10.39162 -10.39160 -10.38998 -10.36134
 Alpha  occ. eigenvalues --  -10.36063 -10.35399 -10.35228 -10.34760 -10.34646
 Alpha  occ. eigenvalues --  -10.34599 -10.34520 -10.34458 -10.34325 -10.34022
 Alpha  occ. eigenvalues --  -10.33696 -10.33536 -10.33459 -10.33392 -10.33250
 Alpha  occ. eigenvalues --  -10.33030 -10.33019 -10.32974 -10.32813 -10.32761
 Alpha  occ. eigenvalues --  -10.32669 -10.32647 -10.32591 -10.32267 -10.32171
 Alpha  occ. eigenvalues --  -10.32144 -10.31865 -10.31863 -10.31819 -10.31788
 Alpha  occ. eigenvalues --  -10.31786 -10.31745 -10.31719 -10.31636 -10.31557
 Alpha  occ. eigenvalues --  -10.31512 -10.31389 -10.31346 -10.31153 -10.30722
 Alpha  occ. eigenvalues --  -10.30721 -10.30663 -10.30600 -10.30535 -10.30405
 Alpha  occ. eigenvalues --  -10.30402 -10.30374 -10.30144 -10.30129 -10.30083
 Alpha  occ. eigenvalues --  -10.30067 -10.29867 -10.29723 -10.29674 -10.29585
 Alpha  occ. eigenvalues --  -10.29508 -10.29488 -10.29096 -10.29085 -10.28944
 Alpha  occ. eigenvalues --  -10.28889  -3.20690  -3.20036  -1.94282  -1.93833
 Alpha  occ. eigenvalues --   -1.93650  -1.93635  -1.93180  -1.93011  -1.19806
 Alpha  occ. eigenvalues --   -1.19097  -1.13713  -1.12729  -1.12038  -1.10452
 Alpha  occ. eigenvalues --   -1.10308  -1.09351  -1.07514  -1.07238  -1.06102
 Alpha  occ. eigenvalues --   -1.05928  -1.05127  -1.05091  -1.04107  -1.03972
 Alpha  occ. eigenvalues --   -0.95354  -0.95058  -0.91226  -0.90938  -0.90666
 Alpha  occ. eigenvalues --   -0.90610  -0.90545  -0.90408  -0.89869  -0.89263
 Alpha  occ. eigenvalues --   -0.89112  -0.88479  -0.88414  -0.87611  -0.86279
 Alpha  occ. eigenvalues --   -0.86002  -0.85839  -0.85626  -0.84416  -0.84334
 Alpha  occ. eigenvalues --   -0.83669  -0.83495  -0.83393  -0.83163  -0.82574
 Alpha  occ. eigenvalues --   -0.82263  -0.80338  -0.79955  -0.79474  -0.79281
 Alpha  occ. eigenvalues --   -0.79139  -0.78751  -0.78144  -0.77841  -0.77455
 Alpha  occ. eigenvalues --   -0.77131  -0.75226  -0.74695  -0.73999  -0.73780
 Alpha  occ. eigenvalues --   -0.72189  -0.71425  -0.70924  -0.70881  -0.70215
 Alpha  occ. eigenvalues --   -0.70100  -0.68199  -0.68047  -0.67766  -0.67172
 Alpha  occ. eigenvalues --   -0.66877  -0.66873  -0.66636  -0.66297  -0.66150
 Alpha  occ. eigenvalues --   -0.66142  -0.64367  -0.64101  -0.62494  -0.62206
 Alpha  occ. eigenvalues --   -0.62018  -0.61644  -0.61161  -0.61124  -0.60867
 Alpha  occ. eigenvalues --   -0.60839  -0.60316  -0.60171  -0.59993  -0.59895
 Alpha  occ. eigenvalues --   -0.58526  -0.58138  -0.58120  -0.57993  -0.57651
 Alpha  occ. eigenvalues --   -0.57297  -0.57015  -0.56683  -0.56211  -0.56206
 Alpha  occ. eigenvalues --   -0.55641  -0.55480  -0.55381  -0.55321  -0.54912
 Alpha  occ. eigenvalues --   -0.54826  -0.54645  -0.54329  -0.54223  -0.54218
 Alpha  occ. eigenvalues --   -0.54018  -0.53728  -0.53725  -0.53586  -0.53267
 Alpha  occ. eigenvalues --   -0.52730  -0.52661  -0.52284  -0.52171  -0.52079
 Alpha  occ. eigenvalues --   -0.51924  -0.51920  -0.51827  -0.51675  -0.51635
 Alpha  occ. eigenvalues --   -0.51508  -0.51267  -0.51226  -0.51170  -0.50876
 Alpha  occ. eigenvalues --   -0.50768  -0.50679  -0.50194  -0.50163  -0.50092
 Alpha  occ. eigenvalues --   -0.49978  -0.49913  -0.49681  -0.49577  -0.49433
 Alpha  occ. eigenvalues --   -0.49079  -0.48836  -0.48833  -0.48562  -0.48482
 Alpha  occ. eigenvalues --   -0.48444  -0.48402  -0.47947  -0.47935  -0.47846
 Alpha  occ. eigenvalues --   -0.47770  -0.47553  -0.47440  -0.47215  -0.47183
 Alpha  occ. eigenvalues --   -0.46959  -0.46648  -0.46632  -0.46171  -0.45811
 Alpha  occ. eigenvalues --   -0.45676  -0.45665  -0.45480  -0.45306  -0.45267
 Alpha  occ. eigenvalues --   -0.45219  -0.44926  -0.44868  -0.44801  -0.44644
 Alpha  occ. eigenvalues --   -0.44283  -0.44068  -0.43966  -0.43903  -0.43805
 Alpha  occ. eigenvalues --   -0.43717  -0.43589  -0.43532  -0.43525  -0.43352
 Alpha  occ. eigenvalues --   -0.43096  -0.42868  -0.42821  -0.42545  -0.42285
 Alpha  occ. eigenvalues --   -0.42132  -0.41956  -0.41729  -0.41511  -0.41338
 Alpha  occ. eigenvalues --   -0.40311  -0.40307  -0.40026  -0.39873  -0.39579
 Alpha  occ. eigenvalues --   -0.39386  -0.39184  -0.39028  -0.38659  -0.38564
 Alpha  occ. eigenvalues --   -0.38399  -0.37772  -0.37195  -0.36249  -0.35990
 Alpha  occ. eigenvalues --   -0.35960  -0.35588  -0.35460  -0.33684  -0.33675
 Alpha  occ. eigenvalues --   -0.33284  -0.33037  -0.32803  -0.32521  -0.32425
 Alpha  occ. eigenvalues --   -0.32038  -0.31525  -0.31239  -0.26534  -0.25747
 Alpha  occ. eigenvalues --   -0.22920  -0.22919
 Alpha virt. eigenvalues --   -0.07418  -0.06806   0.00009   0.00378   0.02221
 Alpha virt. eigenvalues --    0.02453   0.04479   0.04700   0.06088   0.06383
 Alpha virt. eigenvalues --    0.07307   0.07983   0.08005   0.08206   0.08396

 Mulliken charges:
               1
     1  Mg   0.971151
     2  C   -0.006093
     3  C   -0.072392
     4  C   -0.076293
     5  C   -0.099614
     6  N   -0.340846
     7  C   -0.009400
     8  C   -0.022354
     9  C   -0.153796
    10  C    0.065394
    11  C    0.013357
    12  C   -0.006063
    13  C   -0.111462
    14  H    0.047895
    15  N   -0.435196
    16  C    0.162806
    17  C   -0.218534
    18  C   -0.077960
    19  C    0.134373
    20  C    0.083792
    21  C    0.066561
    22  O   -0.256643
    23  C   -0.006683
    24  N   -0.468547
    25  C    0.098654
    26  C   -0.069432
    27  C   -0.080569
    28  C    0.140155
    29  C    0.040732
    30  C   -0.043694
    31  C   -0.003956
    32  N   -0.428179
    33  C    0.106676
    34  C   -0.178860
    35  C    0.017670
    36  C    0.137137
    37  C    0.064704
    38  C    0.098778
    39  O   -0.191633
    40  C   -0.123823
    41  C    0.249395
    42  O   -0.247108
    43  O   -0.362879
    44  C    0.139197
    45  H   -0.004128
    46  H    0.019901
    47  H   -0.001759
    48  H    0.044510
    49  H    0.034746
    50  H    0.042244
    51  H    0.043392
    52  H    0.037629
    53  H    0.035441
    54  H    0.054672
    55  H    0.050937
    56  H    0.053015
    57  H    0.065718
    58  H    0.049320
    59  H    0.025699
    60  H    0.051242
    61  H    0.045764
    62  H    0.060795
    63  H    0.028064
    64  H    0.023058
    65  H    0.041811
    66  H    0.042110
    67  H    0.041566
    68  H    0.022355
    69  H    0.020637
    70  H    0.035335
    71  H    0.017885
    72  H    0.051260
    73  H    0.062408
    74  H    0.045002
    75  H    0.051480
    76  H    0.073925
    77  H    0.057957
    78  H    0.059963
    79  H    0.069629
    80  Mg   0.965872
    81  C   -0.025686
    82  C   -0.077111
    83  C   -0.087993
    84  C   -0.117714
    85  N   -0.288425
    86  C   -0.035884
    87  C   -0.084307
    88  C   -0.089573
    89  C    0.019637
    90  C    0.040466
    91  C    0.000440
    92  C   -0.089348
    93  H    0.044111
    94  N   -0.478839
    95  C    0.175970
    96  C   -0.189423
    97  C   -0.081160
    98  C    0.188774
    99  C    0.062569
   100  C    0.064961
   101  O   -0.213695
   102  C   -0.007447
   103  N   -0.341945
   104  C    0.014409
   105  C   -0.099374
   106  C   -0.054272
   107  C    0.091298
   108  C    0.035507
   109  C   -0.010006
   110  C   -0.072540
   111  N   -0.486567
   112  C    0.144541
   113  C   -0.184393
   114  C   -0.031099
   115  C    0.180554
   116  C    0.067904
   117  C    0.153454
   118  O   -0.233765
   119  C   -0.147850
   120  C    0.243134
   121  O   -0.185897
   122  O   -0.368654
   123  C    0.110506
   124  H    0.003783
   125  H    0.009645
   126  H   -0.005496
   127  H    0.019545
   128  H    0.022940
   129  H    0.039830
   130  H    0.043864
   131  H    0.040354
   132  H    0.025777
   133  H    0.065900
   134  H    0.042750
   135  H    0.038109
   136  H    0.059012
   137  H    0.057761
   138  H    0.030203
   139  H    0.058192
   140  H    0.020626
   141  H    0.069298
   142  H    0.047967
   143  H    0.031229
   144  H    0.046321
   145  H    0.047916
   146  H    0.054219
   147  H    0.029222
   148  H    0.040702
   149  H    0.032786
   150  H    0.032896
   151  H    0.039561
   152  H    0.062260
   153  H    0.042955
   154  H    0.047395
   155  H    0.085707
   156  H    0.070085
   157  H    0.062615
   158  H    0.062932
 Sum of Mulliken charges =  -0.00000

 Dipole moment (field-independent basis, Debye):
    X=             -6.2910    Y=              1.2753    Z=              5.0319  Tot=              8.1562
 Quadrupole moment (field-independent basis, Debye-Ang):
   XX=           -476.6975   YY=           -479.9253   ZZ=           -500.6385
   XY=             -0.8776   XZ=              4.5012   YZ=             62.2177

 Normal termination of Gaussian 16 at Mon Sep 20 02:06:06 2021.
