 Gaussian 16, Revision A.03,
 Gaussian 16:  ES64L-G16RevA.03 25-Dec-2016

 --------------------------------
 #p wB97XD/Def2SVP td=(nstates=5)
 --------------------------------

 --------------------------------
 TDDFT excited states in gaussian
 --------------------------------
 Symbolic Z-matrix:
 Charge =  0 Multiplicity = 1

                         Standard orientation:
 ---------------------------------------------------------------------
 Center     Atomic      Atomic             Coordinates (Angstroms)
 Number     Number       Type             X           Y           Z
 ---------------------------------------------------------------------
      1         12           0       11.295844   -0.369199   -0.105798
      2          6           0        9.692404    2.668906    0.075221
      3          6           0       14.358276    1.101465    0.325549
      4          6           0       12.882955   -3.492087   -0.097914
      5          6           0        8.284005   -2.007236    0.308781
      6          7           0       11.851842    1.669005    0.381928
      7          6           0       11.082026    2.826283    0.236393
      8          6           0       11.901861    4.084752    0.532033
      9          6           0       13.328593    3.491465    0.411765
     10          6           0       13.210349    1.954238    0.457346
     11          6           0       14.122796    4.060545   -0.784259
     12          6           0       11.583980    4.676036    1.919727
     13          6           0       11.462601    6.236264    2.012972
     14          1           0       11.867678    6.846872    3.297494
     15          7           0       13.298814   -1.056363    0.030640
     16          6           0       14.417487   -0.300210    0.112032
     17          6           0       15.617601   -1.053320   -0.097642
     18          6           0       15.220897   -2.374778   -0.360681
     19          6           0       13.711149   -2.359426   -0.172653
     20          6           0       17.017745   -0.442364   -0.183395
     21          6           0       16.151855   -3.595897   -0.695993
     22          8           0       17.397385   -3.426211   -0.656434
     23          6           0       15.611861   -5.014951   -1.165375
     24          7           0       10.693687   -2.449489    0.380606
     25          6           0       11.495381   -3.520785    0.165381
     26          6           0       10.745822   -4.828244    0.181409
     27          6           0        9.276815   -4.387612    0.359290
     28          6           0        9.398621   -2.862458    0.309763
     29          6           0       11.019550   -5.753875   -1.050145
     30          6           0        8.579645   -5.017018    1.657932
     31          6           0        7.584664   -6.146245    1.366060
     32          7           0        9.361898    0.170548    0.087117
     33          6           0        8.180393   -0.591430    0.221276
     34          6           0        7.015743    0.289283    0.061652
     35          6           0        7.587432    1.547022   -0.071041
     36          6           0        8.976981    1.407320    0.079029
     37          6           0        5.563665   -0.030199    0.067882
     38          6           0        7.267169    2.971780   -0.238325
     39          8           0        6.216653    3.551276   -0.559651
     40          6           0        8.635441    3.763254   -0.194778
     41          6           0        8.890253    4.503625   -1.500851
     42          8           0        8.750703    4.074767   -2.650629
     43          8           0        9.235847    5.757526   -1.092458
     44          6           0        9.374164    6.763476   -2.132203
     45          1           0       15.341007    1.559069    0.456357
     46          1           0       13.251863   -4.516703   -0.179355
     47          1           0        7.298789   -2.462328    0.428579
     48          1           0       11.677268    4.849828   -0.211890
     49          1           0       13.818738    3.837025    1.321903
     50          1           0       13.827419    5.015019   -1.219904
     51          1           0       13.981525    3.344270   -1.593498
     52          1           0       15.183704    4.169103   -0.560114
     53          1           0       12.263815    4.324790    2.695493
     54          1           0       10.668891    4.173299    2.233654
     55          1           0       10.430803    6.522832    1.809752
     56          1           0       12.132607    6.678026    1.274059
     57          1           0       17.407302   -0.742021   -1.156041
     58          1           0       17.573630   -0.668542    0.726597
     59          1           0       16.839388    0.630990   -0.247588
     60          1           0       15.379196   -5.564320   -0.253900
     61          1           0       16.439105   -5.495143   -1.687525
     62          1           0       14.858111   -4.816445   -1.927798
     63          1           0       11.070109   -5.388901    1.058203
     64          1           0        8.618160   -4.539477   -0.495500
     65          1           0       10.095411   -6.162556   -1.457934
     66          1           0       11.672603   -6.592105   -0.807946
     67          1           0       11.586868   -5.195935   -1.793953
     68          1           0        7.982553   -4.287536    2.204989
     69          1           0        9.339328   -5.332128    2.373172
     70          1           0        7.677211   -6.922375    2.125974
     71          1           0        7.795283   -6.577975    0.387855
     72          1           0        6.543862   -5.823813    1.343025
     73          1           0        5.469476   -1.115338    0.109634
     74          1           0        5.054178    0.539166   -0.709769
     75          1           0        5.192082    0.295737    1.039964
     76          1           0        8.689486    4.454080    0.647034
     77          1           0        9.926252    6.421009   -3.008349
     78          1           0        9.815386    7.717535   -1.843828
     79          1           0        8.387054    7.067528   -2.481376
     80         12           0      -10.824883   -0.808122   -0.399704
     81          6           0      -11.746237    2.579872   -0.248690
     82          6           0       -7.646412    0.089092    0.556580
     83          6           0      -10.264977   -4.019397    0.165775
     84          6           0      -14.205402   -1.621759   -1.126289
     85          7           0       -9.906187    1.062735    0.332140
     86          6           0      -10.468152    2.365321    0.308293
     87          6           0       -9.456191    3.427443    0.441920
     88          6           0       -8.112808    2.593085    0.603075
     89          6           0       -8.561102    1.147724    0.454602
     90          6           0       -6.991715    3.082745   -0.345294
     91          6           0       -9.601346    4.280626    1.665004
     92          6           0      -10.060695    3.574974    2.949611
     93          1           0       -9.515718    4.008471    4.366039
     94          7           0       -9.162078   -1.876067    0.242159
     95          6           0       -7.952444   -1.323034    0.453350
     96          6           0       -7.002898   -2.381667    0.689189
     97          6           0       -7.710224   -3.596117    0.510726
     98          6           0       -9.110746   -3.219277    0.260567
     99          6           0       -5.560449   -2.203360    1.080103
    100          6           0       -7.106112   -4.998241    0.582164
    101          8           0       -5.925081   -5.160807    0.819236
    102          6           0       -7.831408   -6.308692    0.499742
    103          7           0      -12.098934   -2.536844   -0.217063
    104          6           0      -11.603589   -3.798251   -0.019976
    105          6           0      -12.674511   -4.891148   -0.344314
    106          6           0      -13.980466   -4.046250   -0.445636
    107          6           0      -13.407188   -2.657699   -0.625864
    108          6           0      -12.435998   -5.690696   -1.647981
    109          6           0      -14.860358   -3.948288    0.888756
    110          6           0      -16.323942   -4.159705    0.744295
    111          7           0      -12.558614    0.176784   -0.738494
    112          6           0      -13.737655   -0.271772   -1.190022
    113          6           0      -14.537962    0.869979   -1.773793
    114          6           0      -13.722484    1.999968   -1.447349
    115          6           0      -12.607102    1.538570   -0.692559
    116          6           0      -15.884584    0.873569   -2.482922
    117          6           0      -13.724775    3.434437   -1.448532
    118          8           0      -14.558628    4.227835   -1.855661
    119          6           0      -12.406360    3.862937   -0.686393
    120          6           0      -12.839932    4.543298    0.595497
    121          8           0      -13.366992    4.049086    1.536747
    122          8           0      -12.412892    5.853178    0.544739
    123          6           0      -12.507389    6.554002    1.829355
    124          1           0       -6.603836    0.394910    0.664220
    125          1           0      -10.059098   -5.091041    0.174311
    126          1           0      -15.184633   -1.950586   -1.480423
    127          1           0       -9.519318    4.056189   -0.446214
    128          1           0       -7.700547    2.539731    1.610642
    129          1           0       -6.160416    3.156267    0.356099
    130          1           0       -7.316852    4.039904   -0.753169
    131          1           0       -6.726881    2.349646   -1.107480
    132          1           0      -10.142005    5.211720    1.493076
    133          1           0       -8.677810    4.748206    2.007107
    134          1           0       -9.845058    2.519744    2.778610
    135          1           0      -11.144030    3.680440    2.889016
    136          1           0       -5.293822   -2.864425    1.905393
    137          1           0       -5.362170   -1.152910    1.292686
    138          1           0       -5.008117   -2.501762    0.188721
    139          1           0       -8.515122   -6.518551    1.321667
    140          1           0       -7.012304   -7.008925    0.664265
    141          1           0       -8.174141   -6.547420   -0.507624
    142          1           0      -12.683674   -5.600561    0.483083
    143          1           0      -14.606953   -4.316905   -1.295947
    144          1           0      -13.213972   -5.425339   -2.363606
    145          1           0      -12.235722   -6.742959   -1.446819
    146          1           0      -11.501608   -5.351755   -2.093911
    147          1           0      -14.683175   -3.005641    1.406049
    148          1           0      -14.451368   -4.733468    1.524848
    149          1           0      -16.704733   -4.956431    1.382965
    150          1           0      -16.636967   -4.352909   -0.282019
    151          1           0      -16.891408   -3.282480    1.053858
    152          1           0      -16.537466    1.521322   -1.897867
    153          1           0      -16.173656   -0.164590   -2.651102
    154          1           0      -15.717170    1.406734   -3.418680
    155          1           0      -11.769791    4.508306   -1.291272
    156          1           0      -12.392763    5.890544    2.686442
    157          1           0      -13.510246    6.980740    1.810105
    158          1           0      -11.833481    7.406572    1.749748
 ---------------------------------------------------------------------

 SCF Done:  E(RwB97XD) =  -4070.61938167     A.U. after   19 cycles

 Excitation energies and oscillator strengths:

 Excited State   1:      Singlet-A      1.6059 eV  772.04 nm  f=0.4401  <S**2>=0.000
     309 -> 316        0.17774
     312 -> 313        0.68277
     309 <- 316        0.11680
 This state for optimization and/or second-order correction.
 Total Energy, E(TD-HF/TD-DFT) =  -4070.56036488
 Copying the excited state density for this state as the 1-particle RhoCI density.

 Excited State   2:      Singlet-A      1.6650 eV  744.65 nm  f=0.3112  <S**2>=0.000
     310 -> 315        0.17801
     311 -> 314        0.68111
     310 <- 315        0.11293

 Excited State   3:      Singlet-A      2.1966 eV  564.44 nm  f=0.0838  <S**2>=0.000
     310 -> 314        0.62283
     311 -> 315       -0.31689

 Excited State   4:      Singlet-A      2.2111 eV  560.75 nm  f=0.1033  <S**2>=0.000
     309 -> 313        0.62717
     312 -> 316       -0.31174

 Excited State   5:      Singlet-A      3.6272 eV  341.81 nm  f=0.0000  <S**2>=0.000
     311 -> 313        0.70684

 The electronic state is 1-A.
 Alpha  occ. eigenvalues --  -46.95519 -46.94865 -19.31590 -19.29766 -19.25261
 Alpha  occ. eigenvalues --  -19.25220 -19.24785 -19.24112 -19.23477 -19.23204
 Alpha  occ. eigenvalues --  -14.47021 -14.46916 -14.46751 -14.46418 -14.44864
 Alpha  occ. eigenvalues --  -14.44111 -14.44044 -14.43662 -10.43817 -10.43007
 Alpha  occ. eigenvalues --  -10.40755 -10.38936 -10.38759 -10.38518 -10.36320
 Alpha  occ. eigenvalues --  -10.35801 -10.35734 -10.35227 -10.35165 -10.35124
 Alpha  occ. eigenvalues --  -10.35109 -10.34908 -10.34753 -10.34590 -10.34532
 Alpha  occ. eigenvalues --  -10.34517 -10.34444 -10.34417 -10.33923 -10.33630
 Alpha  occ. eigenvalues --  -10.33252 -10.32794 -10.32774 -10.32702 -10.32548
 Alpha  occ. eigenvalues --  -10.32508 -10.32478 -10.32395 -10.32383 -10.32203
 Alpha  occ. eigenvalues --  -10.32179 -10.32132 -10.32082 -10.32051 -10.32036
 Alpha  occ. eigenvalues --  -10.32003 -10.31980 -10.31816 -10.31780 -10.31771
 Alpha  occ. eigenvalues --  -10.31770 -10.31704 -10.31444 -10.31398 -10.31383
 Alpha  occ. eigenvalues --  -10.31000 -10.30985 -10.30794 -10.30793 -10.30610
 Alpha  occ. eigenvalues --  -10.30514 -10.30475 -10.30430 -10.30374 -10.30258
 Alpha  occ. eigenvalues --  -10.30253 -10.30230 -10.29938 -10.29860 -10.29780
 Alpha  occ. eigenvalues --  -10.29501 -10.29359 -10.29331 -10.29113 -10.29113
 Alpha  occ. eigenvalues --  -10.28563  -3.21496  -3.20935  -1.95051  -1.94605
 Alpha  occ. eigenvalues --   -1.94493  -1.94488  -1.94065  -1.93924  -1.19332
 Alpha  occ. eigenvalues --   -1.19030  -1.12565  -1.12121  -1.11083  -1.10900
 Alpha  occ. eigenvalues --   -1.10552  -1.09959  -1.06663  -1.06522  -1.06019
 Alpha  occ. eigenvalues --   -1.05964  -1.05581  -1.05257  -1.04576  -1.04166
 Alpha  occ. eigenvalues --   -0.95085  -0.93357  -0.91649  -0.91252  -0.90805
 Alpha  occ. eigenvalues --   -0.90690  -0.90566  -0.90235  -0.89369  -0.89179
 Alpha  occ. eigenvalues --   -0.88949  -0.88383  -0.88215  -0.87687  -0.86574
 Alpha  occ. eigenvalues --   -0.86232  -0.85993  -0.85749  -0.84548  -0.84397
 Alpha  occ. eigenvalues --   -0.83568  -0.83536  -0.83083  -0.82755  -0.82399
 Alpha  occ. eigenvalues --   -0.82131  -0.79850  -0.79822  -0.79423  -0.79375
 Alpha  occ. eigenvalues --   -0.78693  -0.78690  -0.77905  -0.77807  -0.77235
 Alpha  occ. eigenvalues --   -0.77017  -0.74686  -0.74619  -0.73711  -0.73571
 Alpha  occ. eigenvalues --   -0.71476  -0.71100  -0.70898  -0.70738  -0.70518
 Alpha  occ. eigenvalues --   -0.69832  -0.69276  -0.69026  -0.68027  -0.67731
 Alpha  occ. eigenvalues --   -0.67072  -0.66999  -0.66974  -0.66563  -0.66439
 Alpha  occ. eigenvalues --   -0.66292  -0.64664  -0.64023  -0.61911  -0.61901
 Alpha  occ. eigenvalues --   -0.61605  -0.61357  -0.60936  -0.60932  -0.60855
 Alpha  occ. eigenvalues --   -0.60590  -0.60022  -0.59697  -0.59327  -0.59219
 Alpha  occ. eigenvalues --   -0.58465  -0.57981  -0.57940  -0.57736  -0.57280
 Alpha  occ. eigenvalues --   -0.57242  -0.56980  -0.56961  -0.56487  -0.55958
 Alpha  occ. eigenvalues --   -0.55700  -0.55321  -0.55100  -0.54921  -0.54758
 Alpha  occ. eigenvalues --   -0.54737  -0.54525  -0.54250  -0.54123  -0.53964
 Alpha  occ. eigenvalues --   -0.53881  -0.53526  -0.53467  -0.53288  -0.53266
 Alpha  occ. eigenvalues --   -0.53163  -0.53038  -0.53020  -0.52795  -0.52774
 Alpha  occ. eigenvalues --   -0.52034  -0.51841  -0.51480  -0.51369  -0.51264
 Alpha  occ. eigenvalues --   -0.51242  -0.51133  -0.51017  -0.50752  -0.50624
 Alpha  occ. eigenvalues --   -0.50498  -0.50414  -0.50238  -0.50203  -0.50087
 Alpha  occ. eigenvalues --   -0.49749  -0.49681  -0.49388  -0.49374  -0.49110
 Alpha  occ. eigenvalues --   -0.49053  -0.48977  -0.48813  -0.48755  -0.48664
 Alpha  occ. eigenvalues --   -0.48511  -0.48287  -0.48241  -0.47965  -0.47877
 Alpha  occ. eigenvalues --   -0.47750  -0.47445  -0.47359  -0.47146  -0.47091
 Alpha  occ. eigenvalues --   -0.46714  -0.46541  -0.46351  -0.46226  -0.46068
 Alpha  occ. eigenvalues --   -0.45951  -0.45753  -0.45698  -0.45652  -0.45458
 Alpha  occ. eigenvalues --   -0.45447  -0.45191  -0.45077  -0.44923  -0.44619
 Alpha  occ. eigenvalues --   -0.44504  -0.44461  -0.44361  -0.44315  -0.44091
 Alpha  occ. eigenvalues --   -0.44031  -0.44020  -0.43884  -0.43737  -0.43493
 Alpha  occ. eigenvalues --   -0.43066  -0.42989  -0.42695  -0.42607  -0.42484
 Alpha  occ. eigenvalues --   -0.42208  -0.41704  -0.41593  -0.41252  -0.40969
 Alpha  occ. eigenvalues --   -0.40687  -0.40317  -0.40286  -0.40067  -0.39735
 Alpha  occ. eigenvalues --   -0.39425  -0.39236  -0.39000  -0.38915  -0.38400
 Alpha  occ. eigenvalues --   -0.38376  -0.37628  -0.36972  -0.36845  -0.36783
 Alpha  occ. eigenvalues --   -0.36137  -0.35271  -0.35226  -0.33739  -0.33504
 Alpha  occ. eigenvalues --   -0.33301  -0.33047  -0.32687  -0.32417  -0.32412
 Alpha  occ. eigenvalues --   -0.32007  -0.31938  -0.31755  -0.26154  -0.26127
 Alpha  occ. eigenvalues --   -0.22894  -0.22779
 Alpha virt. eigenvalues --   -0.07049  -0.06910  -0.00114   0.00201   0.02243
 Alpha virt. eigenvalues --    0.02366   0.04065   0.04567   0.04719   0.04819
 Alpha virt. eigenvalues --    0.07143   0.07421   0.07667   0.07851   0.08232

 Mulliken charges:
               1
     1  Mg   0.973289
     2  C   -0.080661
     3  C   -0.110103
     4  C   -0.086236
     5  C   -0.082867
     6  N   -0.403890
     7  C   -0.008484
     8  C   -0.052850
     9  C   -0.091998
    10  C    0.125796
    11  C    0.014010
    12  C    0.023142
    13  C   -0.127664
    14  H    0.043569
    15  N   -0.430232
    16  C    0.153149
    17  C   -0.190621
    18  C   -0.078459
    19  C    0.194602
    20  C    0.116278
    21  C    0.044354
    22  O   -0.256244
    23  C   -0.009230
    24  N   -0.325159
    25  C    0.022966
    26  C   -0.076393
    27  C   -0.052217
    28  C    0.038431
    29  C    0.010512
    30  C   -0.007725
    31  C   -0.058125
    32  N   -0.440875
    33  C    0.101190
    34  C   -0.206376
    35  C   -0.044142
    36  C    0.153406
    37  C    0.107336
    38  C    0.155514
    39  O   -0.230132
    40  C   -0.059871
    41  C    0.289141
    42  O   -0.247505
    43  O   -0.356452
    44  C    0.133535
    45  H    0.007758
    46  H   -0.019629
    47  H   -0.010727
    48  H    0.024970
    49  H    0.032679
    50  H    0.036750
    51  H    0.034832
    52  H    0.038401
    53  H    0.030692
    54  H    0.030154
    55  H    0.066351
    56  H    0.049583
    57  H    0.065609
    58  H    0.072135
    59  H    0.012114
    60  H    0.080728
    61  H    0.058263
    62  H    0.060686
    63  H    0.046791
    64  H    0.034163
    65  H    0.047016
    66  H    0.033550
    67  H    0.037611
    68  H    0.033102
    69  H    0.028730
    70  H    0.039209
    71  H    0.028558
    72  H    0.041647
    73  H    0.021691
    74  H    0.075099
    75  H    0.050481
    76  H    0.064358
    77  H    0.055278
    78  H    0.052178
    79  H    0.053479
    80  Mg   0.971282
    81  C   -0.073314
    82  C   -0.088560
    83  C   -0.070384
    84  C   -0.087791
    85  N   -0.366463
    86  C    0.021306
    87  C   -0.041448
    88  C   -0.131952
    89  C    0.059919
    90  C    0.036699
    91  C   -0.026070
    92  C   -0.106329
    93  H    0.042102
    94  N   -0.438552
    95  C    0.154994
    96  C   -0.199002
    97  C   -0.050644
    98  C    0.165497
    99  C    0.110829
   100  C    0.017550
   101  O   -0.237657
   102  C   -0.009271
   103  N   -0.356968
   104  C    0.045774
   105  C   -0.080021
   106  C   -0.111558
   107  C    0.037559
   108  C    0.042928
   109  C    0.014777
   110  C   -0.045811
   111  N   -0.434768
   112  C    0.148022
   113  C   -0.205324
   114  C   -0.044261
   115  C    0.162965
   116  C    0.102093
   117  C    0.124285
   118  O   -0.206652
   119  C   -0.072746
   120  C    0.257670
   121  O   -0.210181
   122  O   -0.374842
   123  C    0.128981
   124  H   -0.001166
   125  H   -0.030581
   126  H    0.001391
   127  H    0.040704
   128  H    0.052629
   129  H    0.038566
   130  H    0.045758
   131  H    0.046353
   132  H    0.018076
   133  H    0.023849
   134  H    0.051634
   135  H    0.057125
   136  H    0.065386
   137  H    0.021971
   138  H    0.056367
   139  H    0.065979
   140  H    0.044259
   141  H    0.054404
   142  H    0.033747
   143  H    0.029425
   144  H    0.040525
   145  H    0.045889
   146  H    0.027776
   147  H    0.057269
   148  H    0.024378
   149  H    0.038512
   150  H    0.024861
   151  H    0.035840
   152  H    0.069291
   153  H    0.037618
   154  H    0.057387
   155  H    0.065110
   156  H    0.073134
   157  H    0.055792
   158  H    0.056079
 Sum of Mulliken charges =  -0.00000

 Dipole moment (field-independent basis, Debye):
    X=              1.8179    Y=             -3.5949    Z=             -0.8168  Tot=              4.1104
 Quadrupole moment (field-independent basis, Debye-Ang):
   XX=           -529.7199   YY=           -456.6698   ZZ=           -516.3898
   XY=             72.0542   XZ=             10.2391   YZ=             14.4659

 Normal termination of Gaussian 16 at Mon Sep 20 15:35:05 2021.
