 Gaussian 16, Revision A.03,
 Gaussian 16:  ES64L-G16RevA.03 25-Dec-2016

 --------------------------------
 #p wB97XD/Def2SVP td=(nstates=5)
 --------------------------------

 --------------------------------
 TDDFT excited states in gaussian
 --------------------------------
 Symbolic Z-matrix:
 Charge =  0 Multiplicity = 1

                         Standard orientation:
 ---------------------------------------------------------------------
 Center     Atomic      Atomic             Coordinates (Angstroms)
 Number     Number       Type             X           Y           Z
 ---------------------------------------------------------------------
      1         12           0       -9.796796   -0.884356    0.353454
      2          6           0       -9.636839    2.701675   -0.193150
      3          6           0       -7.830910   -0.324521    3.034269
      4          6           0       -9.901521   -4.048073    0.780901
      5          6           0      -11.572782   -1.191261   -2.694259
      6          7           0       -8.842108    1.094269    1.341967
      7          6           0       -9.004044    2.382120    0.992579
      8          6           0       -8.389051    3.305581    2.061493
      9          6           0       -7.459916    2.211855    2.767893
     10          6           0       -8.103556    0.936270    2.418363
     11          6           0       -5.952538    2.353646    2.638757
     12          6           0       -9.524013    3.901624    2.912087
     13          6           0       -9.141158    5.263137    3.563500
     14          1           0       -7.842188    6.096792    3.148035
     15          7           0       -9.006022   -2.080306    1.771573
     16          6           0       -8.134873   -1.699506    2.774185
     17          6           0       -7.722406   -2.902367    3.491003
     18          6           0       -8.385050   -3.999823    2.887925
     19          6           0       -9.133309   -3.378953    1.758356
     20          6           0       -6.786546   -2.912581    4.616619
     21          6           0       -8.394858   -5.563653    3.300715
     22          8           0       -9.150181   -6.343741    2.788510
     23          6           0       -7.667856   -6.067430    4.560447
     24          7           0      -10.399697   -2.416022   -0.957614
     25          6           0      -10.471764   -3.642824   -0.447463
     26          6           0      -11.181561   -4.639629   -1.323728
     27          6           0      -12.019710   -3.657922   -2.178620
     28          6           0      -11.153898   -2.359856   -2.028438
     29          6           0      -10.209282   -5.530447   -2.228846
     30          6           0      -13.540940   -3.490164   -1.761504
     31          6           0      -14.297135   -4.673882   -1.091055
     32          7           0      -10.382264    0.404589   -1.198558
     33          6           0      -11.125483    0.195610   -2.313326
     34          6           0      -11.472138    1.391025   -2.937762
     35          6           0      -10.871031    2.349717   -2.173139
     36          6           0      -10.228820    1.750660   -1.107515
     37          6           0      -12.380593    1.538592   -4.155258
     38          6           0      -10.726525    3.810788   -2.088739
     39          8           0      -10.978420    4.720031   -2.865184
     40          6           0       -9.965306    4.060897   -0.714292
     41          6           0       -8.829055    4.920643   -0.995984
     42          8           0       -7.751692    4.587327   -1.499674
     43          8           0       -9.256003    6.192796   -0.853975
     44          6           0       -8.353603    7.153834   -1.462386
     45          1           0       -7.053825   -0.159556    3.783624
     46          1           0       -9.882219   -5.128208    0.936716
     47          1           0      -12.203402   -1.328317   -3.574954
     48          1           0       -7.727977    4.049634    1.616943
     49          1           0       -7.616391    2.343705    3.837645
     50          1           0       -5.479924    2.592383    3.591032
     51          1           0       -5.708172    3.134439    1.918762
     52          1           0       -5.457182    1.475871    2.223685
     53          1           0       -9.678284    3.232142    3.758605
     54          1           0      -10.480382    3.967798    2.393684
     55          1           0       -9.177150    5.213893    4.652266
     56          1           0      -10.059892    5.834681    3.432463
     57          1           0       -6.754612   -1.949065    5.124820
     58          1           0       -5.819833   -3.160443    4.177955
     59          1           0       -7.029392   -3.641118    5.390467
     60          1           0       -8.085764   -5.686347    5.492205
     61          1           0       -6.614562   -5.865387    4.364661
     62          1           0       -7.688262   -7.157218    4.587518
     63          1           0      -11.710586   -5.260140   -0.600796
     64          1           0      -12.037503   -3.920074   -3.236196
     65          1           0      -10.626935   -6.525963   -2.080211
     66          1           0       -9.166509   -5.526199   -1.909564
     67          1           0      -10.230421   -5.318962   -3.297244
     68          1           0      -14.101888   -3.144990   -2.628843
     69          1           0      -13.445972   -2.755208   -0.961978
     70          1           0      -14.143171   -4.660423   -0.012339
     71          1           0      -13.921368   -5.545493   -1.628097
     72          1           0      -15.365382   -4.653864   -1.304015
     73          1           0      -13.063346    0.691154   -4.089235
     74          1           0      -11.852925    1.425366   -5.101828
     75          1           0      -12.898397    2.494621   -4.079984
     76          1           0      -10.678534    4.557946   -0.055555
     77          1           0       -8.696614    8.184426   -1.375728
     78          1           0       -7.986278    6.915171   -2.460627
     79          1           0       -7.417544    7.200191   -0.904772
     80         12           0        9.850044   -0.621825   -0.243890
     81          6           0        7.901717    2.315217   -0.239004
     82          6           0       12.416276    1.284769    1.069114
     83          6           0       11.892895   -3.356422   -0.301575
     84          6           0        7.393368   -2.269360   -1.831228
     85          7           0       10.115541    1.573733    0.386900
     86          6           0        9.150457    2.572603    0.432409
     87          6           0        9.659466    3.764806    1.217475
     88          6           0       11.211001    3.522830    1.290533
     89          6           0       11.238707    2.058464    0.914234
     90          6           0       12.096515    4.477323    0.397191
     91          6           0        9.078473    3.847888    2.636877
     92          6           0        8.793382    5.263750    3.149155
     93          1           0        9.997388    6.195271    3.461738
     94          7           0       11.830221   -1.017057    0.382473
     95          6           0       12.671975   -0.062953    0.842506
     96          6           0       13.960545   -0.646106    1.030708
     97          6           0       13.867219   -2.059999    0.787337
     98          6           0       12.532227   -2.176430    0.227589
     99          6           0       15.147741    0.162763    1.474424
    100          6           0       14.898959   -3.183442    0.890329
    101          8           0       14.572631   -4.387036    0.793263
    102          6           0       16.392504   -2.915467    1.037231
    103          7           0        9.635133   -2.537476   -0.874056
    104          6           0       10.630011   -3.510521   -0.876110
    105          6           0       10.106994   -4.739432   -1.546223
    106          6           0        8.626373   -4.491068   -2.009189
    107          6           0        8.485829   -3.039142   -1.524064
    108          6           0       11.052423   -5.344194   -2.627397
    109          6           0        7.566452   -5.421273   -1.380348
    110          6           0        7.201760   -6.626680   -2.268293
    111          7           0        8.065785   -0.142091   -0.949031
    112          6           0        7.074971   -0.920946   -1.545178
    113          6           0        5.801732   -0.149455   -1.797071
    114          6           0        6.158442    1.119002   -1.311362
    115          6           0        7.483012    1.069750   -0.769578
    116          6           0        4.522794   -0.679561   -2.419241
    117          6           0        5.619268    2.460260   -1.144962
    118          8           0        4.534446    2.941668   -1.474291
    119          6           0        6.724979    3.244034   -0.318217
    120          6           0        6.978381    4.541560   -1.110682
    121          8           0        7.042908    4.648732   -2.317964
    122          8           0        6.955730    5.615045   -0.222341
    123          6           0        7.181183    6.903501   -0.877701
    124          1           0       13.177953    1.896468    1.556705
    125          1           0       12.453522   -4.291372   -0.361299
    126          1           0        6.699324   -2.837985   -2.453104
    127          1           0        9.498658    4.728509    0.734864
    128          1           0       11.646783    3.659607    2.280260
    129          1           0       11.560484    5.284396   -0.103042
    130          1           0       12.632967    4.012604   -0.429722
    131          1           0       12.830952    5.003579    1.006935
    132          1           0        9.733684    3.366126    3.362257
    133          1           0        8.107871    3.353857    2.685505
    134          1           0        8.131729    5.257401    4.015228
    135          1           0        8.181676    5.823762    2.442138
    136          1           0       15.107288    1.008666    0.788030
    137          1           0       16.136712   -0.279224    1.354113
    138          1           0       15.084723    0.547747    2.491967
    139          1           0       16.733099   -2.196179    0.292253
    140          1           0       16.813986   -3.909968    0.891593
    141          1           0       16.621483   -2.492654    2.015435
    142          1           0       10.189155   -5.547221   -0.818382
    143          1           0        8.474998   -4.474057   -3.089263
    144          1           0       11.912499   -4.681063   -2.722788
    145          1           0       10.525868   -5.366078   -3.581151
    146          1           0       11.330228   -6.316198   -2.218432
    147          1           0        6.728898   -4.795282   -1.073347
    148          1           0        7.964129   -5.920359   -0.496412
    149          1           0        8.021835   -6.841097   -2.953850
    150          1           0        6.356731   -6.497298   -2.944779
    151          1           0        7.086609   -7.496549   -1.620953
    152          1           0        4.051513   -1.328373   -1.680765
    153          1           0        4.650389   -1.281885   -3.318482
    154          1           0        3.906644    0.197838   -2.615146
    155          1           0        6.454048    3.503194    0.705100
    156          1           0        8.226577    7.206321   -0.944489
    157          1           0        6.594036    7.601817   -0.281447
    158          1           0        6.868159    7.035434   -1.913405
 ---------------------------------------------------------------------

 SCF Done:  E(RwB97XD) =  -4070.61372190     A.U. after   20 cycles

 Excitation energies and oscillator strengths:

 Excited State   1:      Singlet-A      1.6474 eV  752.60 nm  f=0.3842  <S**2>=0.000
     309 -> 315       -0.19181
     312 -> 313        0.68143
     309 <- 315       -0.11861
 This state for optimization and/or second-order correction.
 Total Energy, E(TD-HF/TD-DFT) =  -4070.55318057
 Copying the excited state density for this state as the 1-particle RhoCI density.

 Excited State   2:      Singlet-A      1.7982 eV  689.50 nm  f=0.3651  <S**2>=0.000
     310 -> 316        0.19136
     311 -> 314        0.67944
     310 <- 316        0.11144

 Excited State   3:      Singlet-A      2.1799 eV  568.75 nm  f=0.0764  <S**2>=0.000
     309 -> 313        0.63177
     312 -> 315        0.29921

 Excited State   4:      Singlet-A      2.1924 eV  565.53 nm  f=0.1681  <S**2>=0.000
     310 -> 314        0.65012
     311 -> 316       -0.25530

 Excited State   5:      Singlet-A      3.6763 eV  337.25 nm  f=0.0000  <S**2>=0.000
     311 -> 313        0.70672

 The electronic state is 1-A.
 Alpha  occ. eigenvalues --  -46.95561 -46.93997 -19.30968 -19.29927 -19.25489
 Alpha  occ. eigenvalues --  -19.25319 -19.24279 -19.24124 -19.23718 -19.23518
 Alpha  occ. eigenvalues --  -14.47296 -14.45942 -14.45889 -14.45541 -14.44495
 Alpha  occ. eigenvalues --  -14.44436 -14.44108 -14.43065 -10.43522 -10.41855
 Alpha  occ. eigenvalues --  -10.40923 -10.39871 -10.39086 -10.38657 -10.35462
 Alpha  occ. eigenvalues --  -10.35290 -10.35204 -10.34909 -10.34838 -10.34802
 Alpha  occ. eigenvalues --  -10.34723 -10.34717 -10.34575 -10.34325 -10.34288
 Alpha  occ. eigenvalues --  -10.34072 -10.33660 -10.33534 -10.33441 -10.33429
 Alpha  occ. eigenvalues --  -10.33198 -10.33108 -10.33065 -10.32926 -10.32893
 Alpha  occ. eigenvalues --  -10.32838 -10.32708 -10.32591 -10.32587 -10.32448
 Alpha  occ. eigenvalues --  -10.32228 -10.31909 -10.31896 -10.31854 -10.31694
 Alpha  occ. eigenvalues --  -10.31527 -10.31500 -10.31378 -10.31328 -10.31325
 Alpha  occ. eigenvalues --  -10.31311 -10.31236 -10.31198 -10.31172 -10.31165
 Alpha  occ. eigenvalues --  -10.31031 -10.30982 -10.30958 -10.30483 -10.30388
 Alpha  occ. eigenvalues --  -10.30329 -10.30279 -10.30227 -10.30042 -10.30031
 Alpha  occ. eigenvalues --  -10.29982 -10.29769 -10.29756 -10.29720 -10.29533
 Alpha  occ. eigenvalues --  -10.29389 -10.29328 -10.29300 -10.29272 -10.28916
 Alpha  occ. eigenvalues --  -10.27549  -3.21515  -3.20191  -1.95105  -1.94656
 Alpha  occ. eigenvalues --   -1.94465  -1.93786  -1.93296  -1.93208  -1.18475
 Alpha  occ. eigenvalues --   -1.18445  -1.14785  -1.11501  -1.11435  -1.11176
 Alpha  occ. eigenvalues --   -1.10361  -1.08623  -1.07675  -1.07091  -1.06733
 Alpha  occ. eigenvalues --   -1.06597  -1.05751  -1.05285  -1.05081  -1.03456
 Alpha  occ. eigenvalues --   -0.94543  -0.94149  -0.91310  -0.91052  -0.90927
 Alpha  occ. eigenvalues --   -0.90459  -0.90222  -0.89845  -0.89407  -0.89370
 Alpha  occ. eigenvalues --   -0.88996  -0.88701  -0.88084  -0.87353  -0.86335
 Alpha  occ. eigenvalues --   -0.86156  -0.85444  -0.84856  -0.84224  -0.84140
 Alpha  occ. eigenvalues --   -0.83787  -0.83679  -0.82918  -0.82534  -0.82048
 Alpha  occ. eigenvalues --   -0.81928  -0.80507  -0.80437  -0.79391  -0.79205
 Alpha  occ. eigenvalues --   -0.78583  -0.78397  -0.78088  -0.77498  -0.77068
 Alpha  occ. eigenvalues --   -0.77008  -0.74677  -0.74580  -0.73640  -0.73496
 Alpha  occ. eigenvalues --   -0.71473  -0.71362  -0.70749  -0.70581  -0.70171
 Alpha  occ. eigenvalues --   -0.69436  -0.69338  -0.68691  -0.67733  -0.67454
 Alpha  occ. eigenvalues --   -0.67249  -0.66910  -0.66496  -0.66491  -0.66163
 Alpha  occ. eigenvalues --   -0.65530  -0.64550  -0.63623  -0.62756  -0.62371
 Alpha  occ. eigenvalues --   -0.62159  -0.61333  -0.61091  -0.60944  -0.60484
 Alpha  occ. eigenvalues --   -0.60246  -0.59705  -0.59698  -0.59501  -0.59335
 Alpha  occ. eigenvalues --   -0.58469  -0.58043  -0.57465  -0.57251  -0.57083
 Alpha  occ. eigenvalues --   -0.57005  -0.56527  -0.56410  -0.55834  -0.55762
 Alpha  occ. eigenvalues --   -0.55654  -0.55434  -0.55384  -0.55097  -0.54832
 Alpha  occ. eigenvalues --   -0.54832  -0.54717  -0.54517  -0.54125  -0.54042
 Alpha  occ. eigenvalues --   -0.53792  -0.53707  -0.53556  -0.53164  -0.53076
 Alpha  occ. eigenvalues --   -0.52955  -0.52518  -0.52393  -0.52270  -0.52207
 Alpha  occ. eigenvalues --   -0.52004  -0.51810  -0.51733  -0.51505  -0.51274
 Alpha  occ. eigenvalues --   -0.51016  -0.50948  -0.50852  -0.50765  -0.50559
 Alpha  occ. eigenvalues --   -0.50409  -0.50378  -0.50194  -0.50147  -0.50012
 Alpha  occ. eigenvalues --   -0.49660  -0.49590  -0.49332  -0.49279  -0.49175
 Alpha  occ. eigenvalues --   -0.48809  -0.48783  -0.48597  -0.48513  -0.48449
 Alpha  occ. eigenvalues --   -0.48212  -0.48039  -0.47835  -0.47547  -0.47453
 Alpha  occ. eigenvalues --   -0.47218  -0.46846  -0.46680  -0.46597  -0.46470
 Alpha  occ. eigenvalues --   -0.46420  -0.46332  -0.46302  -0.46264  -0.46099
 Alpha  occ. eigenvalues --   -0.45847  -0.45729  -0.45603  -0.45521  -0.45383
 Alpha  occ. eigenvalues --   -0.45136  -0.45128  -0.45045  -0.44967  -0.44768
 Alpha  occ. eigenvalues --   -0.44635  -0.44468  -0.44301  -0.44238  -0.44077
 Alpha  occ. eigenvalues --   -0.43867  -0.43846  -0.43742  -0.43534  -0.43185
 Alpha  occ. eigenvalues --   -0.43129  -0.43095  -0.42990  -0.42414  -0.42177
 Alpha  occ. eigenvalues --   -0.42174  -0.41613  -0.41508  -0.41090  -0.40617
 Alpha  occ. eigenvalues --   -0.40453  -0.40246  -0.40035  -0.39875  -0.39863
 Alpha  occ. eigenvalues --   -0.39296  -0.39294  -0.38854  -0.38728  -0.38525
 Alpha  occ. eigenvalues --   -0.37729  -0.37519  -0.37161  -0.36947  -0.36015
 Alpha  occ. eigenvalues --   -0.35494  -0.35103  -0.34552  -0.33855  -0.33626
 Alpha  occ. eigenvalues --   -0.33517  -0.33164  -0.32933  -0.32707  -0.32682
 Alpha  occ. eigenvalues --   -0.32215  -0.32169  -0.31457  -0.25882  -0.25176
 Alpha  occ. eigenvalues --   -0.23083  -0.22896
 Alpha virt. eigenvalues --   -0.06925  -0.06465   0.00127   0.00963   0.02038
 Alpha virt. eigenvalues --    0.02735   0.03844   0.04894   0.05690   0.06757
 Alpha virt. eigenvalues --    0.06905   0.07118   0.07413   0.08072   0.08303

 Mulliken charges:
               1
     1  Mg   0.963228
     2  C   -0.002377
     3  C   -0.069583
     4  C   -0.087268
     5  C   -0.078863
     6  N   -0.252421
     7  C   -0.062389
     8  C   -0.062052
     9  C   -0.088813
    10  C    0.000059
    11  C    0.039402
    12  C    0.010096
    13  C   -0.092292
    14  H    0.049030
    15  N   -0.472745
    16  C    0.161656
    17  C   -0.161886
    18  C   -0.088335
    19  C    0.122025
    20  C    0.059636
    21  C    0.076443
    22  O   -0.197597
    23  C   -0.023989
    24  N   -0.321615
    25  C    0.064997
    26  C   -0.102303
    27  C   -0.113791
    28  C    0.058611
    29  C    0.030307
    30  C   -0.010522
    31  C   -0.052948
    32  N   -0.409893
    33  C    0.090428
    34  C   -0.219074
    35  C   -0.051272
    36  C    0.155017
    37  C    0.095845
    38  C    0.138606
    39  O   -0.197720
    40  C   -0.093139
    41  C    0.252554
    42  O   -0.271355
    43  O   -0.331472
    44  C    0.153053
    45  H   -0.010366
    46  H    0.011661
    47  H    0.003239
    48  H    0.040969
    49  H    0.017444
    50  H    0.039774
    51  H    0.043729
    52  H    0.037136
    53  H    0.031555
    54  H    0.047845
    55  H    0.038242
    56  H    0.037103
    57  H    0.044101
    58  H    0.066010
    59  H    0.040572
    60  H    0.086245
    61  H    0.045160
    62  H    0.050509
    63  H    0.043594
    64  H    0.017431
    65  H    0.041674
    66  H    0.045917
    67  H    0.042485
    68  H    0.037322
    69  H    0.027812
    70  H    0.050406
    71  H    0.034724
    72  H    0.039706
    73  H    0.025231
    74  H    0.053155
    75  H    0.055721
    76  H    0.073150
    77  H    0.049526
    78  H    0.061266
    79  H    0.024674
    80  Mg   1.001307
    81  C   -0.064702
    82  C   -0.110734
    83  C   -0.083728
    84  C   -0.100782
    85  N   -0.307608
    86  C    0.022338
    87  C   -0.031701
    88  C   -0.097730
    89  C    0.018859
    90  C    0.007932
    91  C    0.023268
    92  C   -0.123363
    93  H    0.017077
    94  N   -0.427910
    95  C    0.223950
    96  C   -0.180473
    97  C   -0.042945
    98  C    0.127575
    99  C    0.061898
   100  C    0.049229
   101  O   -0.257669
   102  C   -0.023887
   103  N   -0.456829
   104  C    0.108965
   105  C   -0.100368
   106  C   -0.055370
   107  C    0.059265
   108  C    0.015938
   109  C    0.000318
   110  C   -0.055652
   111  N   -0.483283
   112  C    0.140192
   113  C   -0.167055
   114  C   -0.071740
   115  C    0.182629
   116  C    0.080938
   117  C    0.161258
   118  O   -0.207858
   119  C   -0.106035
   120  C    0.266380
   121  O   -0.223415
   122  O   -0.369822
   123  C    0.126282
   124  H   -0.009105
   125  H    0.016346
   126  H   -0.010274
   127  H    0.030784
   128  H    0.039783
   129  H    0.034415
   130  H    0.041963
   131  H    0.034228
   132  H    0.040503
   133  H    0.036660
   134  H    0.048178
   135  H    0.050501
   136  H    0.046168
   137  H    0.026891
   138  H    0.058545
   139  H    0.061488
   140  H    0.063730
   141  H    0.063581
   142  H    0.042598
   143  H    0.043152
   144  H    0.043750
   145  H    0.034241
   146  H    0.043493
   147  H    0.036808
   148  H    0.027767
   149  H    0.024729
   150  H    0.041382
   151  H    0.040666
   152  H    0.050099
   153  H    0.048133
   154  H    0.066863
   155  H    0.072582
   156  H    0.043147
   157  H    0.055639
   158  H    0.065627
 Sum of Mulliken charges =  -0.00000

 Dipole moment (field-independent basis, Debye):
    X=              4.4685    Y=             -1.9194    Z=              7.7805  Tot=              9.1755
 Quadrupole moment (field-independent basis, Debye-Ang):
   XX=           -449.5552   YY=           -499.6650   ZZ=           -496.4630
   XY=             63.6579   XZ=            -23.6642   YZ=             39.4327

 Normal termination of Gaussian 16 at Sun Sep 19 15:47:51 2021.
