 Gaussian 16, Revision A.03,
 Gaussian 16:  ES64L-G16RevA.03 25-Dec-2016

 --------------------------------
 #p wB97XD/Def2SVP td=(nstates=5)
 --------------------------------

 --------------------------------
 TDDFT excited states in gaussian
 --------------------------------
 Symbolic Z-matrix:
 Charge =  0 Multiplicity = 1

                         Standard orientation:
 ---------------------------------------------------------------------
 Center     Atomic      Atomic             Coordinates (Angstroms)
 Number     Number       Type             X           Y           Z
 ---------------------------------------------------------------------
      1         12           0       29.290289    0.577489    0.023934
      2          6           0       26.419293   -0.460145   -1.673031
      3          6           0       30.458681   -2.711666   -0.308851
      4          6           0       31.829021    1.252788    2.097046
      5          6           0       27.567334    3.348132    1.118588
      6          7           0       28.571256   -1.403237   -1.000340
      7          6           0       27.332314   -1.503645   -1.551131
      8          6           0       27.076233   -2.972135   -2.075313
      9          6           0       28.310048   -3.746460   -1.385937
     10          6           0       29.154511   -2.591880   -0.821094
     11          6           0       27.731860   -4.559367   -0.173550
     12          6           0       27.230364   -2.944416   -3.640407
     13          6           0       27.155189   -4.302277   -4.390324
     14          1           0       28.026007   -4.817553   -5.497356
     15          7           0       30.981997   -0.509932    0.599307
     16          6           0       31.339369   -1.844781    0.346023
     17          6           0       32.559187   -2.092580    0.992212
     18          6           0       33.063483   -0.916632    1.531357
     19          6           0       31.950466    0.011215    1.416169
     20          6           0       33.220905   -3.425223    0.861115
     21          6           0       34.406023   -0.625816    2.279820
     22          8           0       34.748985    0.473009    2.702787
     23          6           0       35.529255   -1.662725    2.366476
     24          7           0       29.568399    2.025909    1.482587
     25          6           0       30.766816    2.167141    2.091758
     26          6           0       30.917302    3.495087    2.859406
     27          6           0       29.500774    4.102902    2.662486
     28          6           0       28.859947    3.204498    1.619889
     29          6           0       31.479644    3.346454    4.312093
     30          6           0       29.417831    5.615250    2.317937
     31          6           0       29.769913    5.995167    0.942406
     32          7           0       27.428126    1.388316   -0.269130
     33          6           0       26.873888    2.476993    0.211700
     34          6           0       25.551242    2.723193   -0.371930
     35          6           0       25.365953    1.533406   -1.146114
     36          6           0       26.495155    0.747226   -1.025848
     37          6           0       24.826830    3.979793   -0.510709
     38          6           0       24.424767    0.882596   -2.040673
     39          8           0       23.377226    1.272868   -2.504144
     40          6           0       25.074663   -0.473375   -2.341670
     41          6           0       24.157691   -1.640195   -1.960082
     42          8           0       24.000129   -2.040325   -0.835975
     43          8           0       23.503546   -2.089925   -3.082080
     44          6           0       22.601032   -3.228425   -2.794210
     45          1           0       30.867450   -3.698716   -0.531076
     46          1           0       32.728092    1.601949    2.609619
     47          1           0       27.311632    4.340704    1.493460
     48          1           0       26.138858   -3.390051   -1.707312
     49          1           0       28.862697   -4.407437   -2.054776
     50          1           0       27.937550   -4.163866    0.820605
     51          1           0       28.264599   -5.500306   -0.033811
     52          1           0       26.657581   -4.733830   -0.229922
     53          1           0       28.173675   -2.445939   -3.861890
     54          1           0       26.473943   -2.256978   -4.019999
     55          1           0       26.108286   -4.375361   -4.686322
     56          1           0       27.373757   -4.988100   -3.572736
     57          1           0       32.663490   -4.176866    0.301527
     58          1           0       33.557423   -3.728837    1.853361
     59          1           0       34.106452   -3.211688    0.261894
     60          1           0       35.280847   -2.529633    2.978836
     61          1           0       36.502288   -1.257304    2.644320
     62          1           0       35.720407   -1.988821    1.343943
     63          1           0       31.668754    3.943509    2.210130
     64          1           0       28.993710    3.896844    3.605106
     65          1           0       32.135808    2.480192    4.389841
     66          1           0       30.649452    3.208133    5.005229
     67          1           0       32.082509    4.200667    4.620968
     68          1           0       30.137695    6.032849    3.021158
     69          1           0       28.445944    6.007356    2.618208
     70          1           0       28.903568    5.858236    0.295455
     71          1           0       30.644803    5.445922    0.595104
     72          1           0       29.987882    7.060197    0.857651
     73          1           0       25.599219    4.748578   -0.478379
     74          1           0       24.142567    4.301441    0.274579
     75          1           0       24.292971    3.924838   -1.458842
     76          1           0       25.292590   -0.505084   -3.409700
     77          1           0       21.729557   -3.147467   -3.443612
     78          1           0       22.107356   -3.216121   -1.822263
     79          1           0       23.083991   -4.177436   -3.024802
     80         12           0      -29.422191   -0.075758   -0.077427
     81          6           0      -25.964559   -0.399163   -0.655036
     82          6           0      -28.959703   -2.130771    2.689672
     83          6           0      -32.573075    0.502865    0.832896
     84          6           0      -29.423878    2.614722   -2.269391
     85          7           0      -27.575752   -0.991521    0.957655
     86          6           0      -26.277299   -1.119785    0.504380
     87          6           0      -25.456511   -2.197363    1.181260
     88          6           0      -26.428308   -2.769588    2.240694
     89          6           0      -27.729237   -1.937299    1.994503
     90          6           0      -26.668925   -4.329887    2.130573
     91          6           0      -24.089456   -1.732418    1.855892
     92          6           0      -24.018355   -0.309811    2.434459
     93          1           0      -24.090738   -0.136526    3.980522
     94          7           0      -30.573894   -0.720182    1.499277
     95          6           0      -30.231705   -1.597686    2.488531
     96          6           0      -31.404659   -1.894126    3.322965
     97          6           0      -32.485647   -1.128079    2.788783
     98          6           0      -31.876245   -0.384034    1.643974
     99          6           0      -31.381523   -2.865177    4.497398
    100          6           0      -33.875997   -1.145870    3.526840
    101          8           0      -33.967649   -1.794138    4.559991
    102          6           0      -35.081108   -0.268849    2.983162
    103          7           0      -30.726756    1.410917   -0.544640
    104          6           0      -32.065360    1.360079   -0.162543
    105          6           0      -32.924536    2.522324   -0.919796
    106          6           0      -31.750237    3.238155   -1.782832
    107          6           0      -30.573806    2.356365   -1.512665
    108          6           0      -34.084615    1.944907   -1.783138
    109          6           0      -31.449813    4.749826   -1.397035
    110          6           0      -31.429623    5.811551   -2.507592
    111          7           0      -28.031081    0.873011   -1.351693
    112          6           0      -28.137651    1.957905   -2.183740
    113          6           0      -26.814614    2.215664   -2.790439
    114          6           0      -25.964759    1.200651   -2.274766
    115          6           0      -26.769071    0.454379   -1.368785
    116          6           0      -26.435219    3.323323   -3.733827
    117          6           0      -24.561668    0.745522   -2.280448
    118          8           0      -23.573814    1.069066   -2.955966
    119          6           0      -24.582075   -0.459771   -1.352193
    120          6           0      -24.285815   -1.681115   -2.022084
    121          8           0      -25.144980   -2.289191   -2.711566
    122          8           0      -22.963200   -2.098900   -1.774110
    123          6           0      -22.552335   -3.414130   -2.254875
    124          1           0      -28.914193   -2.900561    3.462431
    125          1           0      -33.647211    0.600701    1.001045
    126          1           0      -29.523242    3.432474   -2.985612
    127          1           0      -25.251599   -2.885757    0.362241
    128          1           0      -26.058509   -2.407952    3.199476
    129          1           0      -26.214583   -4.827913    2.987059
    130          1           0      -26.196355   -4.639607    1.198065
    131          1           0      -27.732690   -4.569905    2.130664
    132          1           0      -23.412054   -1.770489    1.001850
    133          1           0      -23.781144   -2.480011    2.587105
    134          1           0      -24.799366    0.318577    2.005092
    135          1           0      -23.100292    0.154179    2.076367
    136          1           0      -31.358700   -2.393596    5.479864
    137          1           0      -30.649302   -3.656671    4.337252
    138          1           0      -32.274178   -3.490446    4.498375
    139          1           0      -35.145529   -0.453808    1.910633
    140          1           0      -34.846974    0.773302    3.198786
    141          1           0      -35.999879   -0.371262    3.560632
    142          1           0      -33.421659    3.085252   -0.130369
    143          1           0      -32.020771    3.130943   -2.833513
    144          1           0      -33.711926    1.842475   -2.802097
    145          1           0      -35.001422    2.529470   -1.705786
    146          1           0      -34.446331    0.972258   -1.450054
    147          1           0      -30.510144    4.747047   -0.843730
    148          1           0      -32.285571    4.969461   -0.732690
    149          1           0      -30.888605    6.709077   -2.206587
    150          1           0      -32.490478    6.019035   -2.645905
    151          1           0      -30.945812    5.309308   -3.345578
    152          1           0      -27.146001    4.117309   -3.506345
    153          1           0      -26.691545    2.897227   -4.703778
    154          1           0      -25.378534    3.592354   -3.736391
    155          1           0      -23.801637   -0.192923   -0.639928
    156          1           0      -22.526087   -3.568119   -3.333656
    157          1           0      -23.195501   -4.183795   -1.827188
    158          1           0      -21.607621   -3.639078   -1.759615
 ---------------------------------------------------------------------

 SCF Done:  E(RwB97XD) =  -4070.61785401     A.U. after   19 cycles

 Excitation energies and oscillator strengths:

 Excited State   1:      Singlet-A      1.6636 eV  745.29 nm  f=0.3760  <S**2>=0.000
     309 -> 315       -0.18689
     312 -> 314        0.68285
     309 <- 315       -0.11707
 This state for optimization and/or second-order correction.
 Total Energy, E(TD-HF/TD-DFT) =  -4070.55671879
 Copying the excited state density for this state as the 1-particle RhoCI density.

 Excited State   2:      Singlet-A      1.6939 eV  731.96 nm  f=0.3876  <S**2>=0.000
     310 -> 316       -0.19054
     311 -> 313        0.68139
     310 <- 316       -0.11528

 Excited State   3:      Singlet-A      2.2137 eV  560.08 nm  f=0.1129  <S**2>=0.000
     310 -> 313        0.64263
     311 -> 316        0.27806

 Excited State   4:      Singlet-A      2.2612 eV  548.32 nm  f=0.0696  <S**2>=0.000
     309 -> 314        0.61504
     312 -> 315        0.33675

 Excited State   5:      Singlet-A      3.4508 eV  359.30 nm  f=0.0477  <S**2>=0.000
     306 -> 313        0.54959
     308 -> 313       -0.31296
     311 -> 316       -0.23908

 The electronic state is 1-A.
 Alpha  occ. eigenvalues --  -46.95283 -46.95043 -19.31019 -19.31012 -19.25334
 Alpha  occ. eigenvalues --  -19.25196 -19.24642 -19.24491 -19.24254 -19.23845
 Alpha  occ. eigenvalues --  -14.47288 -14.46851 -14.46653 -14.45613 -14.44561
 Alpha  occ. eigenvalues --  -14.43889 -14.43778 -14.43687 -10.43886 -10.43628
 Alpha  occ. eigenvalues --  -10.40505 -10.40193 -10.39381 -10.38482 -10.35970
 Alpha  occ. eigenvalues --  -10.35840 -10.35554 -10.35418 -10.35122 -10.35004
 Alpha  occ. eigenvalues --  -10.34677 -10.34615 -10.34580 -10.34562 -10.34455
 Alpha  occ. eigenvalues --  -10.34101 -10.33935 -10.33896 -10.33733 -10.33565
 Alpha  occ. eigenvalues --  -10.33362 -10.32964 -10.32750 -10.32666 -10.32641
 Alpha  occ. eigenvalues --  -10.32567 -10.32558 -10.32515 -10.32354 -10.32346
 Alpha  occ. eigenvalues --  -10.32259 -10.32127 -10.31995 -10.31882 -10.31800
 Alpha  occ. eigenvalues --  -10.31722 -10.31683 -10.31645 -10.31611 -10.31562
 Alpha  occ. eigenvalues --  -10.31520 -10.31368 -10.31355 -10.31250 -10.31147
 Alpha  occ. eigenvalues --  -10.31021 -10.31005 -10.30901 -10.30753 -10.30677
 Alpha  occ. eigenvalues --  -10.30662 -10.30483 -10.30439 -10.30248 -10.30092
 Alpha  occ. eigenvalues --  -10.29970 -10.29868 -10.29857 -10.29704 -10.29696
 Alpha  occ. eigenvalues --  -10.29416 -10.29319 -10.29224 -10.29099 -10.28925
 Alpha  occ. eigenvalues --  -10.28299  -3.21348  -3.21049  -1.94893  -1.94624
 Alpha  occ. eigenvalues --   -1.94486  -1.94323  -1.94186  -1.94005  -1.18987
 Alpha  occ. eigenvalues --   -1.17138  -1.12647  -1.12641  -1.12503  -1.11288
 Alpha  occ. eigenvalues --   -1.10961  -1.09213  -1.06957  -1.06148  -1.05796
 Alpha  occ. eigenvalues --   -1.05593  -1.05353  -1.04603  -1.04499  -1.03899
 Alpha  occ. eigenvalues --   -0.95792  -0.95126  -0.91278  -0.91054  -0.90710
 Alpha  occ. eigenvalues --   -0.90509  -0.90089  -0.89951  -0.89455  -0.89131
 Alpha  occ. eigenvalues --   -0.88721  -0.88106  -0.88010  -0.87534  -0.86455
 Alpha  occ. eigenvalues --   -0.85976  -0.85781  -0.85510  -0.84683  -0.84296
 Alpha  occ. eigenvalues --   -0.83569  -0.83463  -0.82950  -0.82853  -0.82364
 Alpha  occ. eigenvalues --   -0.82042  -0.80498  -0.80091  -0.79514  -0.79153
 Alpha  occ. eigenvalues --   -0.78693  -0.78507  -0.78442  -0.78044  -0.76857
 Alpha  occ. eigenvalues --   -0.76802  -0.74447  -0.74318  -0.73755  -0.73724
 Alpha  occ. eigenvalues --   -0.71950  -0.71231  -0.71126  -0.70866  -0.70364
 Alpha  occ. eigenvalues --   -0.70311  -0.69022  -0.68822  -0.67688  -0.67332
 Alpha  occ. eigenvalues --   -0.67185  -0.66775  -0.66578  -0.66405  -0.66182
 Alpha  occ. eigenvalues --   -0.65966  -0.64475  -0.64429  -0.62236  -0.62097
 Alpha  occ. eigenvalues --   -0.61595  -0.61445  -0.61326  -0.61024  -0.60641
 Alpha  occ. eigenvalues --   -0.60557  -0.60238  -0.59716  -0.59339  -0.59197
 Alpha  occ. eigenvalues --   -0.58471  -0.58107  -0.57594  -0.57527  -0.57462
 Alpha  occ. eigenvalues --   -0.57222  -0.56876  -0.56552  -0.56359  -0.56146
 Alpha  occ. eigenvalues --   -0.55930  -0.55709  -0.55220  -0.55064  -0.54984
 Alpha  occ. eigenvalues --   -0.54590  -0.54503  -0.54494  -0.54297  -0.54051
 Alpha  occ. eigenvalues --   -0.54024  -0.53479  -0.53150  -0.53057  -0.52911
 Alpha  occ. eigenvalues --   -0.52879  -0.52651  -0.52498  -0.52266  -0.52232
 Alpha  occ. eigenvalues --   -0.51940  -0.51861  -0.51602  -0.51364  -0.51314
 Alpha  occ. eigenvalues --   -0.51248  -0.51179  -0.51159  -0.50900  -0.50895
 Alpha  occ. eigenvalues --   -0.50734  -0.50472  -0.50452  -0.50259  -0.50069
 Alpha  occ. eigenvalues --   -0.49839  -0.49428  -0.49265  -0.49187  -0.49045
 Alpha  occ. eigenvalues --   -0.48606  -0.48544  -0.48373  -0.48162  -0.48076
 Alpha  occ. eigenvalues --   -0.48061  -0.47896  -0.47675  -0.47633  -0.47290
 Alpha  occ. eigenvalues --   -0.47268  -0.46984  -0.46903  -0.46891  -0.46718
 Alpha  occ. eigenvalues --   -0.46631  -0.46566  -0.46460  -0.46343  -0.46116
 Alpha  occ. eigenvalues --   -0.46115  -0.45978  -0.45865  -0.45757  -0.45611
 Alpha  occ. eigenvalues --   -0.45258  -0.45171  -0.45150  -0.45009  -0.44877
 Alpha  occ. eigenvalues --   -0.44826  -0.44643  -0.44515  -0.44419  -0.44348
 Alpha  occ. eigenvalues --   -0.44304  -0.44170  -0.44042  -0.43802  -0.43615
 Alpha  occ. eigenvalues --   -0.43542  -0.42953  -0.42623  -0.42482  -0.42148
 Alpha  occ. eigenvalues --   -0.42140  -0.41757  -0.41593  -0.41499  -0.40836
 Alpha  occ. eigenvalues --   -0.40722  -0.40389  -0.39811  -0.39667  -0.39594
 Alpha  occ. eigenvalues --   -0.39455  -0.39313  -0.39150  -0.38980  -0.38810
 Alpha  occ. eigenvalues --   -0.38634  -0.38265  -0.36897  -0.36735  -0.36305
 Alpha  occ. eigenvalues --   -0.36249  -0.35468  -0.35400  -0.33613  -0.33532
 Alpha  occ. eigenvalues --   -0.33231  -0.33096  -0.33011  -0.32768  -0.32440
 Alpha  occ. eigenvalues --   -0.32253  -0.31759  -0.31324  -0.26064  -0.25723
 Alpha  occ. eigenvalues --   -0.22884  -0.22631
 Alpha virt. eigenvalues --   -0.06719  -0.06501   0.00119   0.00603   0.02348
 Alpha virt. eigenvalues --    0.02492   0.04110   0.04358   0.04928   0.05398
 Alpha virt. eigenvalues --    0.05586   0.07360   0.07498   0.07813   0.08075

 Mulliken charges:
               1
     1  Mg   0.973142
     2  C   -0.006591
     3  C   -0.074215
     4  C   -0.111456
     5  C   -0.060453
     6  N   -0.281892
     7  C   -0.051670
     8  C   -0.081033
     9  C   -0.121314
    10  C    0.038064
    11  C    0.009309
    12  C   -0.013303
    13  C   -0.096432
    14  H    0.058563
    15  N   -0.474806
    16  C    0.176546
    17  C   -0.164485
    18  C   -0.081304
    19  C    0.151250
    20  C    0.071031
    21  C    0.085486
    22  O   -0.233799
    23  C   -0.021557
    24  N   -0.406373
    25  C    0.075928
    26  C   -0.112186
    27  C   -0.035649
    28  C   -0.010185
    29  C    0.035613
    30  C   -0.020888
    31  C   -0.015377
    32  N   -0.411206
    33  C    0.152397
    34  C   -0.157214
    35  C   -0.070588
    36  C    0.151126
    37  C    0.070536
    38  C    0.116314
    39  O   -0.187630
    40  C   -0.074719
    41  C    0.263762
    42  O   -0.227608
    43  O   -0.360645
    44  C    0.124784
    45  H   -0.012648
    46  H    0.022385
    47  H   -0.019479
    48  H    0.047425
    49  H    0.048736
    50  H    0.042537
    51  H    0.025846
    52  H    0.050545
    53  H    0.035464
    54  H    0.032150
    55  H    0.051116
    56  H    0.036230
    57  H    0.044516
    58  H    0.048720
    59  H    0.050234
    60  H    0.058358
    61  H    0.054778
    62  H    0.041286
    63  H    0.041048
    64  H    0.042844
    65  H    0.049054
    66  H    0.031779
    67  H    0.040084
    68  H    0.022769
    69  H    0.034924
    70  H    0.032054
    71  H    0.032788
    72  H    0.035429
    73  H    0.029556
    74  H    0.041863
    75  H    0.063990
    76  H    0.079218
    77  H    0.049967
    78  H    0.069107
    79  H    0.056055
    80  Mg   0.987008
    81  C   -0.108763
    82  C   -0.085559
    83  C   -0.110692
    84  C   -0.095956
    85  N   -0.341907
    86  C   -0.038519
    87  C   -0.062175
    88  C   -0.058523
    89  C    0.026462
    90  C    0.027366
    91  C   -0.015313
    92  C   -0.118647
    93  H    0.036878
    94  N   -0.448681
    95  C    0.153226
    96  C   -0.157728
    97  C   -0.113685
    98  C    0.207240
    99  C    0.095421
   100  C    0.069638
   101  O   -0.226548
   102  C   -0.026051
   103  N   -0.421863
   104  C    0.079217
   105  C   -0.103216
   106  C   -0.075545
   107  C    0.085815
   108  C    0.009865
   109  C   -0.024344
   110  C   -0.038125
   111  N   -0.406484
   112  C    0.119545
   113  C   -0.211646
   114  C   -0.096378
   115  C    0.263509
   116  C    0.092512
   117  C    0.145539
   118  O   -0.217842
   119  C   -0.059338
   120  C    0.315789
   121  O   -0.277635
   122  O   -0.382216
   123  C    0.152232
   124  H   -0.009067
   125  H   -0.035084
   126  H   -0.015878
   127  H    0.049473
   128  H    0.045650
   129  H    0.043693
   130  H    0.040419
   131  H    0.046382
   132  H    0.038328
   133  H    0.048341
   134  H    0.063096
   135  H    0.056425
   136  H    0.065380
   137  H    0.022998
   138  H    0.044087
   139  H    0.073611
   140  H    0.060908
   141  H    0.052757
   142  H    0.044426
   143  H    0.036123
   144  H    0.037584
   145  H    0.038504
   146  H    0.031773
   147  H    0.048525
   148  H    0.025117
   149  H    0.051623
   150  H    0.041618
   151  H    0.037713
   152  H    0.034759
   153  H    0.054944
   154  H    0.066690
   155  H    0.059825
   156  H    0.069374
   157  H    0.033776
   158  H    0.052223
 Sum of Mulliken charges =  -0.00000

 Dipole moment (field-independent basis, Debye):
    X=              0.8284    Y=             -2.9859    Z=              0.0052  Tot=              3.0987
 Quadrupole moment (field-independent basis, Debye-Ang):
   XX=           -190.8853   YY=           -455.8894   ZZ=           -532.1197
   XY=            -95.6010   XZ=              7.6171   YZ=              9.5988

 Normal termination of Gaussian 16 at Sat Sep 18 18:33:32 2021.
