 Gaussian 16, Revision A.03,
 Gaussian 16:  ES64L-G16RevA.03 25-Dec-2016

 --------------------------------
 #p wB97XD/Def2SVP td=(nstates=5)
 --------------------------------

 --------------------------------
 TDDFT excited states in gaussian
 --------------------------------
 Symbolic Z-matrix:
 Charge =  0 Multiplicity = 1

                         Standard orientation:
 ---------------------------------------------------------------------
 Center     Atomic      Atomic             Coordinates (Angstroms)
 Number     Number       Type             X           Y           Z
 ---------------------------------------------------------------------
      1         12           0      -33.756559   -0.354371   -0.620867
      2          6           0      -30.800765    1.517104    0.486599
      3          6           0      -32.091429   -3.131573    0.601498
      4          6           0      -36.594999   -1.806989   -0.565830
      5          6           0      -35.194725    2.863584   -1.319587
      6          7           0      -31.643323   -0.691594    0.593748
      7          6           0      -30.630946    0.188787    0.907248
      8          6           0      -29.529146   -0.560885    1.741994
      9          6           0      -29.825091   -2.054080    1.518407
     10          6           0      -31.259599   -1.965523    0.871710
     11          6           0      -28.865428   -2.883042    0.567220
     12          6           0      -29.470887   -0.123155    3.245618
     13          6           0      -28.092089   -0.001788    3.857987
     14          1           0      -27.626958   -1.174106    4.777707
     15          7           0      -34.265223   -2.217840   -0.189528
     16          6           0      -33.460243   -3.257242    0.190176
     17          6           0      -34.275722   -4.490781    0.360963
     18          6           0      -35.597700   -4.085573    0.040901
     19          6           0      -35.531604   -2.648544   -0.213110
     20          6           0      -33.791619   -5.862429    0.858900
     21          6           0      -36.899183   -4.879890    0.183493
     22          8           0      -36.804167   -6.057610    0.518242
     23          6           0      -38.188467   -4.369987   -0.071331
     24          7           0      -35.688914    0.519705   -0.650977
     25          6           0      -36.676002   -0.420317   -0.871261
     26          6           0      -37.996425    0.343490   -1.274238
     27          6           0      -37.584327    1.857431   -1.199499
     28          6           0      -36.042824    1.729686   -1.150981
     29          6           0      -38.618289   -0.060231   -2.639272
     30          6           0      -38.176839    2.754684   -0.039243
     31          6           0      -39.607426    3.296842   -0.202771
     32          7           0      -33.193991    1.786919   -0.529676
     33          6           0      -33.845034    2.922523   -0.968451
     34          6           0      -32.984680    4.080472   -0.941002
     35          6           0      -31.755620    3.564172   -0.383125
     36          6           0      -31.895990    2.165978   -0.074934
     37          6           0      -33.417510    5.460116   -1.331156
     38          6           0      -30.487826    3.947494    0.052845
     39          8           0      -29.988461    5.054955    0.198879
     40          6           0      -29.854804    2.706896    0.747044
     41          6           0      -28.541877    2.499903    0.028608
     42          8           0      -27.466431    2.339965    0.611211
     43          8           0      -28.637447    2.332090   -1.411434
     44          6           0      -27.412536    1.783905   -1.991615
     45          1           0      -31.561714   -4.034193    0.911571
     46          1           0      -37.592743   -2.203361   -0.765435
     47          1           0      -35.742871    3.748670   -1.648892
     48          1           0      -28.571134   -0.439731    1.234378
     49          1           0      -29.968399   -2.584295    2.459908
     50          1           0      -28.280662   -3.505545    1.244121
     51          1           0      -28.162854   -2.229928    0.050409
     52          1           0      -29.359420   -3.453668   -0.219132
     53          1           0      -29.913871   -0.833861    3.943771
     54          1           0      -29.927999    0.858486    3.372085
     55          1           0      -28.048929    0.970150    4.349524
     56          1           0      -27.372172    0.028390    3.039498
     57          1           0      -34.276025   -6.654306    0.286982
     58          1           0      -34.039334   -5.855444    1.920293
     59          1           0      -32.723501   -5.986633    0.685838
     60          1           0      -38.262135   -4.159597   -1.138770
     61          1           0      -38.477577   -3.522496    0.550257
     62          1           0      -38.806604   -5.189297    0.297335
     63          1           0      -38.812020    0.213659   -0.563656
     64          1           0      -37.774720    2.367436   -2.143512
     65          1           0      -38.666404    0.864908   -3.213811
     66          1           0      -39.623174   -0.439925   -2.457150
     67          1           0      -37.925068   -0.810849   -3.020872
     68          1           0      -37.480916    3.592880    0.008555
     69          1           0      -38.240163    2.194000    0.893580
     70          1           0      -39.839273    2.948047   -1.209506
     71          1           0      -39.611618    4.385373   -0.275037
     72          1           0      -40.354853    2.950580    0.510651
     73          1           0      -34.273539    5.681851   -0.695212
     74          1           0      -33.820105    5.520101   -2.342145
     75          1           0      -32.693407    6.226547   -1.054567
     76          1           0      -29.640836    2.996942    1.775549
     77          1           0      -27.897203    1.340430   -2.862227
     78          1           0      -26.860209    1.168051   -1.281888
     79          1           0      -26.840411    2.636957   -2.356621
     80         12           0       33.537418    0.457619   -0.312925
     81          6           0       31.659137   -2.372907    0.345645
     82          6           0       31.134130    2.385939    1.258554
     83          6           0       35.736444    3.018694   -0.309026
     84          6           0       36.010302   -1.724707   -1.561900
     85          7           0       31.739908    0.003329    0.944398
     86          6           0       31.121016   -1.178424    0.871923
     87          6           0       29.818678   -1.153135    1.730388
     88          6           0       29.518424    0.419052    1.780573
     89          6           0       30.865478    1.017076    1.220696
     90          6           0       28.213231    0.807451    1.044961
     91          6           0       30.093029   -1.678989    3.120936
     92          6           0       29.012197   -2.572911    3.708571
     93          1           0       28.613891   -2.541185    5.232210
     94          7           0       33.335876    2.507542    0.249170
     95          6           0       32.339502    3.099401    0.930128
     96          6           0       32.673021    4.480138    1.066118
     97          6           0       33.939005    4.738134    0.458166
     98          6           0       34.405765    3.405347    0.056598
     99          6           0       31.694677    5.469770    1.581664
    100          6           0       34.630347    6.054609    0.495043
    101          8           0       34.073435    7.026380    0.978189
    102          6           0       36.009507    6.250053   -0.123261
    103          7           0       35.646230    0.624489   -0.969860
    104          6           0       36.294249    1.806119   -0.769660
    105          6           0       37.763843    1.645022   -0.986327
    106          6           0       37.835822    0.095550   -1.385475
    107          6           0       36.415043   -0.411564   -1.386620
    108          6           0       38.378425    2.625532   -2.002687
    109          6           0       38.808628   -0.807176   -0.504752
    110          6           0       39.873418   -1.704193   -1.178697
    111          7           0       33.805284   -1.575082   -0.590609
    112          6           0       34.808172   -2.291760   -1.164055
    113          6           0       34.364772   -3.580187   -1.465528
    114          6           0       33.095441   -3.700006   -0.917019
    115          6           0       32.831519   -2.485502   -0.335037
    116          6           0       35.232496   -4.673774   -2.154664
    117          6           0       32.000976   -4.531741   -0.727751
    118          8           0       31.904008   -5.724891   -0.992597
    119          6           0       30.931966   -3.750957    0.178722
    120          6           0       29.718337   -3.514887   -0.516466
    121          8           0       29.435965   -2.694661   -1.393159
    122          8           0       28.799231   -4.423642   -0.001036
    123          6           0       27.433543   -4.462057   -0.495274
    124          1           0       30.315467    3.016982    1.610082
    125          1           0       36.549534    3.745346   -0.374147
    126          1           0       36.809250   -2.290573   -2.045789
    127          1           0       29.074949   -1.769008    1.225513
    128          1           0       29.504129    0.836463    2.786860
    129          1           0       27.773318   -0.043234    0.524840
    130          1           0       28.420604    1.609028    0.335321
    131          1           0       27.531395    1.222544    1.786829
    132          1           0       30.343967   -0.953694    3.895204
    133          1           0       31.056201   -2.181639    3.033106
    134          1           0       29.257975   -3.590792    3.406374
    135          1           0       28.148071   -2.270767    3.116904
    136          1           0       31.286908    5.899750    0.667009
    137          1           0       32.175721    6.217340    2.212698
    138          1           0       30.899655    5.018698    2.175544
    139          1           0       36.716888    5.859994    0.608721
    140          1           0       36.180548    7.326272   -0.121676
    141          1           0       36.070349    5.761976   -1.095893
    142          1           0       38.123416    1.833848    0.024668
    143          1           0       38.286369   -0.044372   -2.368106
    144          1           0       38.944429    3.347764   -1.413437
    145          1           0       37.630741    3.111903   -2.630047
    146          1           0       39.096069    2.094130   -2.627274
    147          1           0       38.196835   -1.482909    0.092733
    148          1           0       39.430327   -0.222537    0.173681
    149          1           0       39.287569   -2.615135   -1.300756
    150          1           0       40.692108   -1.904224   -0.488655
    151          1           0       40.183235   -1.510626   -2.205571
    152          1           0       35.962673   -5.038357   -1.433281
    153          1           0       35.846785   -4.342280   -2.992063
    154          1           0       34.616463   -5.513962   -2.476309
    155          1           0       30.824669   -4.346183    1.085657
    156          1           0       27.094466   -5.493992   -0.409892
    157          1           0       27.284110   -4.024751   -1.482817
    158          1           0       26.812123   -3.924275    0.220917
 ---------------------------------------------------------------------

 SCF Done:  E(RwB97XD) =  -4070.53574149     A.U. after   20 cycles

 Excitation energies and oscillator strengths:

 Excited State   1:      Singlet-A      1.6376 eV  757.13 nm  f=0.3978  <S**2>=0.000
     309 -> 316       -0.19094
     311 -> 313        0.68256
     309 <- 316       -0.11966
 This state for optimization and/or second-order correction.
 Total Energy, E(TD-HF/TD-DFT) =  -4070.47556220
 Copying the excited state density for this state as the 1-particle RhoCI density.

 Excited State   2:      Singlet-A      1.6685 eV  743.08 nm  f=0.3548  <S**2>=0.000
     310 -> 315        0.20210
     312 -> 314        0.67714
     310 <- 315        0.11957

 Excited State   3:      Singlet-A      2.1722 eV  570.77 nm  f=0.0976  <S**2>=0.000
     309 -> 313        0.63458
     311 -> 316        0.29664

 Excited State   4:      Singlet-A      2.1895 eV  566.28 nm  f=0.0671  <S**2>=0.000
     310 -> 314        0.61433
     312 -> 315       -0.33151

 Excited State   5:      Singlet-A      3.2141 eV  385.75 nm  f=0.0156  <S**2>=0.000
     308 -> 314        0.61826
     308 -> 317        0.12004
     312 -> 315        0.24300

 The electronic state is 1-A.
 Alpha  occ. eigenvalues --  -46.97100 -46.96032 -19.29883 -19.28936 -19.25135
 Alpha  occ. eigenvalues --  -19.25028 -19.24323 -19.23830 -19.23368 -19.22897
 Alpha  occ. eigenvalues --  -14.47346 -14.46927 -14.46615 -14.46567 -14.45413
 Alpha  occ. eigenvalues --  -14.44421 -14.43816 -14.43735 -10.43454 -10.43270
 Alpha  occ. eigenvalues --  -10.39255 -10.38892 -10.38577 -10.37484 -10.36410
 Alpha  occ. eigenvalues --  -10.35963 -10.35644 -10.35603 -10.35569 -10.35455
 Alpha  occ. eigenvalues --  -10.35441 -10.35390 -10.35313 -10.35153 -10.35003
 Alpha  occ. eigenvalues --  -10.34890 -10.34490 -10.33871 -10.33807 -10.33434
 Alpha  occ. eigenvalues --  -10.33363 -10.33230 -10.33063 -10.32978 -10.32898
 Alpha  occ. eigenvalues --  -10.32804 -10.32761 -10.32677 -10.32491 -10.32477
 Alpha  occ. eigenvalues --  -10.32444 -10.32394 -10.32370 -10.32350 -10.32297
 Alpha  occ. eigenvalues --  -10.32272 -10.32244 -10.32229 -10.32111 -10.31918
 Alpha  occ. eigenvalues --  -10.31910 -10.31892 -10.31590 -10.31434 -10.31396
 Alpha  occ. eigenvalues --  -10.31076 -10.30869 -10.30847 -10.30773 -10.30741
 Alpha  occ. eigenvalues --  -10.30731 -10.30728 -10.30707 -10.30615 -10.30510
 Alpha  occ. eigenvalues --  -10.30444 -10.30117 -10.30033 -10.29987 -10.29909
 Alpha  occ. eigenvalues --  -10.29727 -10.29699 -10.29649 -10.29252 -10.28869
 Alpha  occ. eigenvalues --  -10.28829  -3.23003  -3.21821  -1.96526  -1.96169
 Alpha  occ. eigenvalues --   -1.95923  -1.95418  -1.94934  -1.94779  -1.17910
 Alpha  occ. eigenvalues --   -1.16080  -1.12684  -1.12286  -1.12195  -1.11192
 Alpha  occ. eigenvalues --   -1.09714  -1.08549  -1.07564  -1.07107  -1.06090
 Alpha  occ. eigenvalues --   -1.05873  -1.05362  -1.05352  -1.04669  -1.03087
 Alpha  occ. eigenvalues --   -0.95905  -0.94873  -0.91410  -0.91007  -0.90895
 Alpha  occ. eigenvalues --   -0.90822  -0.90405  -0.90266  -0.89836  -0.88983
 Alpha  occ. eigenvalues --   -0.88884  -0.88851  -0.88175  -0.87854  -0.87373
 Alpha  occ. eigenvalues --   -0.86924  -0.86535  -0.85768  -0.85599  -0.84952
 Alpha  occ. eigenvalues --   -0.84481  -0.84164  -0.83456  -0.83113  -0.82750
 Alpha  occ. eigenvalues --   -0.81847  -0.80240  -0.80136  -0.79557  -0.79279
 Alpha  occ. eigenvalues --   -0.78959  -0.78507  -0.78427  -0.77766  -0.77230
 Alpha  occ. eigenvalues --   -0.77129  -0.75505  -0.74827  -0.74387  -0.73920
 Alpha  occ. eigenvalues --   -0.71840  -0.71204  -0.71101  -0.70552  -0.70097
 Alpha  occ. eigenvalues --   -0.69712  -0.69357  -0.69002  -0.68098  -0.67848
 Alpha  occ. eigenvalues --   -0.67512  -0.67493  -0.67329  -0.67001  -0.66868
 Alpha  occ. eigenvalues --   -0.66032  -0.64711  -0.63887  -0.62488  -0.62416
 Alpha  occ. eigenvalues --   -0.61926  -0.61812  -0.61264  -0.61101  -0.61066
 Alpha  occ. eigenvalues --   -0.60909  -0.60171  -0.60008  -0.59187  -0.59000
 Alpha  occ. eigenvalues --   -0.58668  -0.58339  -0.58108  -0.57591  -0.57465
 Alpha  occ. eigenvalues --   -0.56792  -0.56750  -0.56319  -0.56298  -0.55837
 Alpha  occ. eigenvalues --   -0.55684  -0.55516  -0.55477  -0.55335  -0.55229
 Alpha  occ. eigenvalues --   -0.54851  -0.54592  -0.54441  -0.54259  -0.54052
 Alpha  occ. eigenvalues --   -0.54007  -0.53908  -0.53811  -0.53680  -0.53447
 Alpha  occ. eigenvalues --   -0.53421  -0.53219  -0.52971  -0.52524  -0.52301
 Alpha  occ. eigenvalues --   -0.52085  -0.51931  -0.51817  -0.51799  -0.51523
 Alpha  occ. eigenvalues --   -0.51510  -0.51423  -0.51103  -0.50979  -0.50925
 Alpha  occ. eigenvalues --   -0.50901  -0.50565  -0.50336  -0.50333  -0.50204
 Alpha  occ. eigenvalues --   -0.50088  -0.49899  -0.49665  -0.49439  -0.49241
 Alpha  occ. eigenvalues --   -0.48838  -0.48710  -0.48659  -0.48650  -0.48535
 Alpha  occ. eigenvalues --   -0.48470  -0.48081  -0.48045  -0.47898  -0.47854
 Alpha  occ. eigenvalues --   -0.47760  -0.47423  -0.47317  -0.47261  -0.47093
 Alpha  occ. eigenvalues --   -0.46906  -0.46664  -0.46609  -0.46491  -0.46441
 Alpha  occ. eigenvalues --   -0.46319  -0.46026  -0.45837  -0.45725  -0.45565
 Alpha  occ. eigenvalues --   -0.45559  -0.45378  -0.45156  -0.45085  -0.44831
 Alpha  occ. eigenvalues --   -0.44559  -0.44387  -0.44261  -0.44146  -0.44044
 Alpha  occ. eigenvalues --   -0.44009  -0.43909  -0.43858  -0.43803  -0.43426
 Alpha  occ. eigenvalues --   -0.43331  -0.43258  -0.42921  -0.42205  -0.42171
 Alpha  occ. eigenvalues --   -0.42122  -0.41832  -0.41631  -0.41217  -0.40779
 Alpha  occ. eigenvalues --   -0.40299  -0.40147  -0.39909  -0.39812  -0.39618
 Alpha  occ. eigenvalues --   -0.39410  -0.39243  -0.39165  -0.38288  -0.38283
 Alpha  occ. eigenvalues --   -0.37588  -0.37344  -0.36835  -0.36547  -0.36499
 Alpha  occ. eigenvalues --   -0.35938  -0.35766  -0.35269  -0.34037  -0.33841
 Alpha  occ. eigenvalues --   -0.33529  -0.33272  -0.33207  -0.32677  -0.32625
 Alpha  occ. eigenvalues --   -0.32119  -0.31648  -0.30868  -0.26484  -0.26403
 Alpha  occ. eigenvalues --   -0.23351  -0.23270
 Alpha virt. eigenvalues --   -0.07553  -0.07138  -0.00805  -0.00378   0.01876
 Alpha virt. eigenvalues --    0.01892   0.03639   0.04316   0.04444   0.05675
 Alpha virt. eigenvalues --    0.06223   0.06814   0.06979   0.07183   0.08127

 Mulliken charges:
               1
     1  Mg   0.966516
     2  C   -0.023729
     3  C   -0.063254
     4  C   -0.091993
     5  C   -0.100972
     6  N   -0.282655
     7  C   -0.034129
     8  C    0.018500
     9  C   -0.119681
    10  C   -0.008184
    11  C    0.015374
    12  C    0.017523
    13  C   -0.125814
    14  H    0.022209
    15  N   -0.499470
    16  C    0.163229
    17  C   -0.190048
    18  C   -0.055689
    19  C    0.215133
    20  C    0.096897
    21  C    0.017690
    22  O   -0.245748
    23  C    0.020247
    24  N   -0.385017
    25  C    0.048469
    26  C   -0.125744
    27  C   -0.090023
    28  C    0.045085
    29  C    0.037760
    30  C   -0.003809
    31  C   -0.042746
    32  N   -0.423507
    33  C    0.155242
    34  C   -0.159557
    35  C   -0.021045
    36  C    0.159038
    37  C    0.093616
    38  C    0.074394
    39  O   -0.216345
    40  C   -0.098693
    41  C    0.286574
    42  O   -0.256767
    43  O   -0.417814
    44  C    0.139136
    45  H   -0.001272
    46  H   -0.023785
    47  H   -0.001917
    48  H    0.034611
    49  H    0.044271
    50  H    0.048570
    51  H    0.036646
    52  H    0.049372
    53  H    0.048455
    54  H    0.043910
    55  H    0.057367
    56  H    0.052613
    57  H    0.068266
    58  H    0.069357
    59  H    0.030878
    60  H    0.075415
    61  H    0.063982
    62  H    0.054817
    63  H    0.035887
    64  H    0.019939
    65  H    0.037844
    66  H    0.042229
    67  H    0.042231
    68  H    0.028950
    69  H    0.036391
    70  H    0.015406
    71  H    0.040188
    72  H    0.050250
    73  H    0.034109
    74  H    0.047814
    75  H    0.062829
    76  H    0.072073
    77  H    0.050733
    78  H    0.068798
    79  H    0.052575
    80  Mg   0.938937
    81  C   -0.063596
    82  C   -0.088085
    83  C   -0.039672
    84  C   -0.124299
    85  N   -0.332214
    86  C    0.012940
    87  C   -0.124645
    88  C   -0.102948
    89  C    0.083871
    90  C    0.035810
    91  C    0.029671
    92  C   -0.116591
    93  H    0.044730
    94  N   -0.455894
    95  C    0.158267
    96  C   -0.182138
    97  C   -0.057246
    98  C    0.198330
    99  C    0.076059
   100  C    0.004732
   101  O   -0.235984
   102  C    0.002829
   103  N   -0.353960
   104  C   -0.009514
   105  C   -0.086575
   106  C   -0.051260
   107  C    0.062275
   108  C    0.022933
   109  C   -0.053276
   110  C   -0.067789
   111  N   -0.433944
   112  C    0.194406
   113  C   -0.187370
   114  C    0.053610
   115  C    0.162418
   116  C    0.075230
   117  C    0.056224
   118  O   -0.207018
   119  C   -0.077497
   120  C    0.295422
   121  O   -0.257303
   122  O   -0.388880
   123  C    0.139784
   124  H   -0.000110
   125  H   -0.030082
   126  H   -0.003591
   127  H    0.037033
   128  H    0.045715
   129  H    0.048967
   130  H    0.034013
   131  H    0.036040
   132  H    0.037197
   133  H    0.027159
   134  H    0.055785
   135  H    0.044480
   136  H    0.060723
   137  H    0.065615
   138  H    0.024454
   139  H    0.059350
   140  H    0.052006
   141  H    0.063641
   142  H    0.053042
   143  H    0.024095
   144  H    0.042378
   145  H    0.053163
   146  H    0.040434
   147  H    0.043629
   148  H    0.030911
   149  H    0.022326
   150  H    0.047995
   151  H    0.040149
   152  H    0.047467
   153  H    0.037823
   154  H    0.062243
   155  H    0.083019
   156  H    0.056860
   157  H    0.068850
   158  H    0.036441
 Sum of Mulliken charges =  -0.00000

 Dipole moment (field-independent basis, Debye):
    X=             -1.8594    Y=             -2.4886    Z=             -2.4918  Tot=              3.9824
 Quadrupole moment (field-independent basis, Debye-Ang):
   XX=            -20.7134   YY=           -589.8554   ZZ=           -505.5513
   XY=             52.6056   XZ=             70.9081   YZ=            -12.8239

 Normal termination of Gaussian 16 at Mon Sep 20 06:02:24 2021.
