 Gaussian 16, Revision A.03,
 Gaussian 16:  ES64L-G16RevA.03 25-Dec-2016

 --------------------------------
 #p wB97XD/Def2SVP td=(nstates=5)
 --------------------------------

 --------------------------------
 TDDFT excited states in gaussian
 --------------------------------
 Symbolic Z-matrix:
 Charge =  0 Multiplicity = 1

                         Standard orientation:
 ---------------------------------------------------------------------
 Center     Atomic      Atomic             Coordinates (Angstroms)
 Number     Number       Type             X           Y           Z
 ---------------------------------------------------------------------
      1         12           0       -0.811082    0.051755    0.116600
      2          6           0        2.744947    0.039066    0.279626
      3          6           0       -0.732394   -3.383369   -0.011122
      4          6           0       -4.102204    0.261778   -0.091444
      5          6           0       -0.720045    3.626041   -0.251529
      6          7           0        0.869906   -1.556441    0.063320
      7          6           0        2.207392   -1.258661    0.249789
      8          6           0        2.953198   -2.635183    0.320694
      9          6           0        1.811341   -3.776995    0.181349
     10          6           0        0.590917   -2.859290    0.056159
     11          6           0        2.016975   -4.809595   -0.946451
     12          6           0        3.969712   -2.843493    1.518231
     13          6           0        5.385559   -3.148763    1.123978
     14          1           0        5.764691   -3.839637   -0.159281
     15          7           0       -2.293909   -1.435908    0.092791
     16          6           0       -2.042368   -2.770486    0.034271
     17          6           0       -3.319021   -3.418780    0.190553
     18          6           0       -4.299733   -2.411087    0.066531
     19          6           0       -3.611864   -1.081481   -0.012991
     20          6           0       -3.398754   -4.952733    0.268610
     21          6           0       -5.776530   -2.602338   -0.102795
     22          8           0       -6.542495   -1.634442   -0.323528
     23          6           0       -6.341400   -3.973840   -0.066134
     24          7           0       -2.182246    1.770698   -0.204801
     25          6           0       -3.454282    1.574938   -0.169619
     26          6           0       -4.401941    2.888597   -0.228019
     27          6           0       -3.295127    3.951634   -0.299189
     28          6           0       -2.030656    3.129381   -0.250253
     29          6           0       -5.339470    2.806437   -1.487951
     30          6           0       -3.309829    5.065275    0.806192
     31          6           0       -2.887100    4.632496    2.230175
     32          7           0        0.649718    1.467556   -0.089722
     33          6           0        0.508155    2.865376   -0.256083
     34          6           0        1.850159    3.461426   -0.206349
     35          6           0        2.751547    2.391696    0.010539
     36          6           0        1.966633    1.194185    0.118205
     37          6           0        2.169146    4.981767   -0.326421
     38          6           0        4.080677    2.129507    0.187182
     39          8           0        5.065395    2.838788    0.149220
     40          6           0        4.189898    0.599188    0.435927
     41          6           0        5.139956    0.049882   -0.503635
     42          8           0        4.859639   -0.346600   -1.640472
     43          8           0        6.441890    0.252442   -0.030575
     44          6           0        7.506588   -0.101443   -1.001795
     45          1           0       -0.835762   -4.429854   -0.306763
     46          1           0       -5.168675    0.303375   -0.322805
     47          1           0       -0.635913    4.709736   -0.355856
     48          1           0        3.603354   -2.499065   -0.542555
     49          1           0        1.817946   -4.390028    1.081501
     50          1           0        2.007355   -5.824230   -0.546247
     51          1           0        2.906088   -4.690539   -1.565417
     52          1           0        1.154065   -4.659739   -1.595324
     53          1           0        3.609553   -3.631129    2.180350
     54          1           0        3.999695   -1.885308    2.037023
     55          1           0        5.715756   -3.958480    1.775664
     56          1           0        5.964587   -2.231908    1.228641
     57          1           0       -2.434068   -5.402707    0.504264
     58          1           0       -3.760916   -5.349684   -0.678872
     59          1           0       -4.112089   -5.145426    1.069292
     60          1           0       -6.065653   -4.402764    0.897259
     61          1           0       -5.898321   -4.607471   -0.835397
     62          1           0       -7.412916   -3.953474   -0.260865
     63          1           0       -4.986956    2.997013    0.685607
     64          1           0       -3.251083    4.363337   -1.307746
     65          1           0       -4.816121    2.233872   -2.253654
     66          1           0       -5.478052    3.817337   -1.872948
     67          1           0       -6.328291    2.364552   -1.362510
     68          1           0       -4.254391    5.607198    0.771210
     69          1           0       -2.629349    5.852162    0.482344
     70          1           0       -3.123452    3.610136    2.523260
     71          1           0       -3.276469    5.367234    2.935818
     72          1           0       -1.806438    4.771892    2.254667
     73          1           0        2.827959    5.345168    0.462319
     74          1           0        1.278160    5.607099   -0.370381
     75          1           0        2.868182    5.131587   -1.149608
     76          1           0        4.585270    0.572587    1.450813
     77          1           0        7.515565    0.602267   -1.833757
     78          1           0        7.388640   -1.080900   -1.463896
     79          1           0        8.420827   -0.224914   -0.421004
 ---------------------------------------------------------------------

 SCF Done:  E(RwB97XD) =  -2035.30425551     A.U. after   20 cycles

 Excitation energies and oscillator strengths:

 Excited State   1:      Singlet-A      1.7178 eV  721.78 nm  f=0.3732  <S**2>=0.000
     155 ->158         0.19158
     156 ->157         0.67995
     155 <-158         0.11532
 This state for optimization and/or second-order correction.
 Total Energy, E(TD-HF/TD-DFT) =  -2035.24112877
 Copying the excited state density for this state as the 1-particle RhoCI density.

 Excited State   2:      Singlet-A      2.1591 eV  574.23 nm  f=0.1065  <S**2>=0.000
     155 ->157         0.63944
     156 ->158        -0.28254

 Excited State   3:      Singlet-A      3.4133 eV  363.24 nm  f=0.1611  <S**2>=0.000
     150 ->157         0.17288
     152 ->157         0.47707
     153 ->157        -0.11127
     154 ->157        -0.16490
     155 ->157         0.12696
     156 ->158         0.40897

 Excited State   4:      Singlet-A      3.4826 eV  356.01 nm  f=0.0013  <S**2>=0.000
     151 ->157         0.55403
     151 ->159        -0.33295
     151 ->160         0.20416

 Excited State   5:      Singlet-A      3.6247 eV  342.06 nm  f=0.2994  <S**2>=0.000
     152 ->157        -0.13167
     153 ->157         0.28592
     153 ->159         0.15812
     153 ->160         0.11862
     154 ->157         0.38098
     155 ->157         0.18150
     156 ->158         0.37898

 The electronic state is 1-A.
 Alpha  occ. eigenvalues --  -46.96156 -19.29438 -19.24173 -19.23880 -19.22495
 Alpha  occ. eigenvalues --  -14.47266 -14.46455 -14.44379 -14.44237 -10.42402
 Alpha  occ. eigenvalues --  -10.39091 -10.37204 -10.35989 -10.35812 -10.35589
 Alpha  occ. eigenvalues --  -10.35105 -10.35055 -10.34493 -10.34151 -10.33799
 Alpha  occ. eigenvalues --  -10.33605 -10.32886 -10.32715 -10.32439 -10.32183
 Alpha  occ. eigenvalues --  -10.32127 -10.32109 -10.32065 -10.31970 -10.31907
 Alpha  occ. eigenvalues --  -10.31678 -10.31469 -10.31434 -10.31190 -10.31155
 Alpha  occ. eigenvalues --  -10.31151 -10.30512 -10.30265 -10.30216 -10.29874
 Alpha  occ. eigenvalues --  -10.29799 -10.29676 -10.27830  -3.21960  -1.95558
 Alpha  occ. eigenvalues --   -1.95113  -1.94883  -1.16447  -1.11401  -1.10734
 Alpha  occ. eigenvalues --   -1.08448  -1.08127  -1.05773  -1.05071  -1.03673
 Alpha  occ. eigenvalues --   -0.94216  -0.91596  -0.90272  -0.89667  -0.89231
 Alpha  occ. eigenvalues --   -0.88703  -0.87404  -0.86220  -0.85223  -0.84437
 Alpha  occ. eigenvalues --   -0.84192  -0.82594  -0.82027  -0.80330  -0.79465
 Alpha  occ. eigenvalues --   -0.78341  -0.77614  -0.76940  -0.74492  -0.73535
 Alpha  occ. eigenvalues --   -0.72352  -0.71021  -0.69807  -0.68932  -0.67245
 Alpha  occ. eigenvalues --   -0.66886  -0.66584  -0.66209  -0.63380  -0.62269
 Alpha  occ. eigenvalues --   -0.61483  -0.60603  -0.60092  -0.59869  -0.59513
 Alpha  occ. eigenvalues --   -0.58213  -0.57985  -0.57198  -0.56905  -0.55477
 Alpha  occ. eigenvalues --   -0.55218  -0.54932  -0.54790  -0.54488  -0.53970
 Alpha  occ. eigenvalues --   -0.53461  -0.53223  -0.52713  -0.52447  -0.51739
 Alpha  occ. eigenvalues --   -0.51470  -0.51185  -0.51127  -0.50948  -0.50781
 Alpha  occ. eigenvalues --   -0.50513  -0.49962  -0.49874  -0.49422  -0.49224
 Alpha  occ. eigenvalues --   -0.48645  -0.48537  -0.48437  -0.48091  -0.47728
 Alpha  occ. eigenvalues --   -0.47421  -0.46829  -0.46485  -0.46114  -0.45726
 Alpha  occ. eigenvalues --   -0.45655  -0.45394  -0.45130  -0.44668  -0.44374
 Alpha  occ. eigenvalues --   -0.44261  -0.43779  -0.43733  -0.43546  -0.43376
 Alpha  occ. eigenvalues --   -0.43180  -0.43019  -0.42486  -0.41985  -0.41680
 Alpha  occ. eigenvalues --   -0.41007  -0.38881  -0.38646  -0.38430  -0.38027
 Alpha  occ. eigenvalues --   -0.37452  -0.35904  -0.35547  -0.35307  -0.33535
 Alpha  occ. eigenvalues --   -0.33188  -0.32512  -0.31930  -0.31653  -0.25735
 Alpha  occ. eigenvalues --   -0.23062
 Alpha virt. eigenvalues --   -0.06882   0.00134   0.02203   0.04437   0.05694
 Alpha virt. eigenvalues --    0.07233   0.08118   0.09150   0.09339   0.10286
 Alpha virt. eigenvalues --    0.12013   0.12120   0.12497   0.13075   0.14167

 Mulliken charges:
               1
     1  Mg   0.949155
     2  C    0.012555
     3  C   -0.090594
     4  C   -0.048247
     5  C   -0.087782
     6  N   -0.314634
     7  C   -0.013090
     8  C   -0.055964
     9  C   -0.105094
    10  C    0.077754
    11  C    0.018384
    12  C    0.000070
    13  C   -0.139575
    14  H    0.031632
    15  N   -0.486271
    16  C    0.140218
    17  C   -0.180362
    18  C   -0.072176
    19  C    0.161218
    20  C    0.072842
    21  C    0.036284
    22  O   -0.261880
    23  C    0.006878
    24  N   -0.272065
    25  C    0.015766
    26  C   -0.109975
    27  C    0.029209
    28  C   -0.040084
    29  C   -0.003658
    30  C   -0.032824
    31  C   -0.036081
    32  N   -0.476766
    33  C    0.148518
    34  C   -0.176051
    35  C    0.006771
    36  C    0.138871
    37  C    0.087134
    38  C    0.031677
    39  O   -0.201480
    40  C   -0.063175
    41  C    0.266984
    42  O   -0.263241
    43  O   -0.379032
    44  C    0.150037
    45  H    0.007863
    46  H    0.029030
    47  H   -0.009073
    48  H    0.057223
    49  H    0.044907
    50  H    0.035061
    51  H    0.051816
    52  H    0.033491
    53  H    0.031614
    54  H    0.036293
    55  H    0.048467
    56  H    0.062212
    57  H    0.047834
    58  H    0.064219
    59  H    0.046321
    60  H    0.050836
    61  H    0.050275
    62  H    0.058501
    63  H    0.052388
    64  H    0.036475
    65  H    0.045571
    66  H    0.037059
    67  H    0.064065
    68  H    0.030901
    69  H    0.025085
    70  H    0.049787
    71  H    0.041208
    72  H    0.038635
    73  H    0.043741
    74  H    0.031544
    75  H    0.051152
    76  H    0.073543
    77  H    0.064653
    78  H    0.041708
    79  H    0.053739
 Sum of Mulliken charges =  -0.00000

 Dipole moment (field-independent basis, Debye):
    X=             -2.9023    Y=             -3.1668    Z=              1.9963  Tot=              4.7368
 Quadrupole moment (field-independent basis, Debye-Ang):
   XX=           -271.3705   YY=           -217.2932   ZZ=           -257.2266
   XY=            -19.5493   XZ=              1.9400   YZ=             -3.0218

 Normal termination of Gaussian 16 at Sun Sep 19 05:47:42 2021.
