 Gaussian 16, Revision A.03,
 Gaussian 16:  ES64L-G16RevA.03 25-Dec-2016

 --------------------------------
 #p wB97XD/Def2SVP td=(nstates=5)
 --------------------------------

 --------------------------------
 TDDFT excited states in gaussian
 --------------------------------
 Symbolic Z-matrix:
 Charge =  0 Multiplicity = 1

                         Standard orientation:
 ---------------------------------------------------------------------
 Center     Atomic      Atomic             Coordinates (Angstroms)
 Number     Number       Type             X           Y           Z
 ---------------------------------------------------------------------
      1         12           0      -30.622420    0.343691    0.378836
      2          6           0      -27.755001   -1.430799   -0.317855
      3          6           0      -28.819477    3.230985    0.100959
      4          6           0      -33.477405    1.898515   -0.207934
      5          6           0      -32.328369   -2.718079    0.585689
      6          7           0      -28.608742    0.782954   -0.525159
      7          6           0      -27.562761   -0.082547   -0.496115
      8          6           0      -26.243976    0.592731   -0.731112
      9          6           0      -26.568487    2.014943   -0.169818
     10          6           0      -28.089076    1.999789   -0.118120
     11          6           0      -25.859201    2.313222    1.182200
     12          6           0      -25.858198    0.649219   -2.293778
     13          6           0      -24.299399    0.509636   -2.621126
     14          1           0      -23.860820    1.764139   -3.335205
     15          7           0      -31.083985    2.330433    0.197014
     16          6           0      -30.255010    3.381497    0.013656
     17          6           0      -31.015300    4.611560   -0.168257
     18          6           0      -32.374252    4.239961   -0.226497
     19          6           0      -32.349884    2.757419   -0.080368
     20          6           0      -30.303979    5.976836   -0.330479
     21          6           0      -33.467153    5.199432   -0.607115
     22          8           0      -33.200339    6.357748   -0.795153
     23          6           0      -34.939534    4.805540   -0.831924
     24          7           0      -32.687434   -0.271416    0.332655
     25          6           0      -33.618726    0.531841    0.065657
     26          6           0      -34.936618   -0.127627   -0.109185
     27          6           0      -34.595056   -1.645692    0.160564
     28          6           0      -33.145179   -1.570531    0.370207
     29          6           0      -36.036213    0.524538    0.795465
     30          6           0      -34.990148   -2.579388   -1.075474
     31          6           0      -35.134629   -4.118917   -0.802905
     32          7           0      -30.188297   -1.670909    0.267912
     33          6           0      -30.970442   -2.792035    0.478237
     34          6           0      -30.160119   -3.978251    0.493427
     35          6           0      -28.837591   -3.478082    0.226811
     36          6           0      -28.938272   -2.119162   -0.000798
     37          6           0      -30.599774   -5.386770    0.732441
     38          6           0      -27.475962   -3.868714    0.100183
     39          8           0      -26.863865   -4.942914    0.159207
     40          6           0      -26.748285   -2.596544   -0.447622
     41          6           0      -25.476651   -2.468065    0.322847
     42          8           0      -24.380224   -2.915496   -0.041655
     43          8           0      -25.717715   -1.835577    1.511190
     44          6           0      -24.447253   -1.760313    2.285869
     45          1           0      -28.322011    4.201008    0.170204
     46          1           0      -34.395678    2.430982   -0.462085
     47          1           0      -32.875067   -3.661606    0.516034
     48          1           0      -25.557647    0.061991   -0.072497
     49          1           0      -26.179281    2.765209   -0.858289
     50          1           0      -25.157637    3.135789    1.046343
     51          1           0      -25.254182    1.439088    1.425130
     52          1           0      -26.635241    2.479027    1.928788
     53          1           0      -26.259833    1.489632   -2.859700
     54          1           0      -26.335330   -0.170606   -2.829781
     55          1           0      -24.252806   -0.311085   -3.337067
     56          1           0      -23.602931    0.229091   -1.830900
     57          1           0      -30.521330    6.500370   -1.261411
     58          1           0      -29.221621    5.932011   -0.204679
     59          1           0      -30.613762    6.592733    0.513143
     60          1           0      -35.428393    4.435212    0.068579
     61          1           0      -35.083380    4.091074   -1.642837
     62          1           0      -35.396896    5.698034   -1.260063
     63          1           0      -35.149789    0.021264   -1.167633
     64          1           0      -34.963643   -2.105624    1.077151
     65          1           0      -36.822029    0.879242    0.128908
     66          1           0      -35.636164    1.338929    1.399744
     67          1           0      -36.615834   -0.190768    1.378762
     68          1           0      -34.256236   -2.471209   -1.874360
     69          1           0      -35.936245   -2.182270   -1.440382
     70          1           0      -36.076987   -4.636285   -0.980786
     71          1           0      -34.956393   -4.338485    0.248881
     72          1           0      -34.392978   -4.673671   -1.377648
     73          1           0      -31.625618   -5.528002    1.072167
     74          1           0      -29.860665   -5.673750    1.479327
     75          1           0      -30.327780   -5.830163   -0.225520
     76          1           0      -26.542836   -2.623170   -1.518287
     77          1           0      -24.169060   -2.759329    2.620027
     78          1           0      -24.567501   -1.256039    3.244721
     79          1           0      -23.706675   -1.267647    1.655505
     80         12           0       30.604588   -0.176470   -0.564784
     81          6           0       28.021223   -0.893937    1.764525
     82          6           0       32.308451    1.310597    2.155051
     83          6           0       32.887204    0.865902   -2.649840
     84          6           0       28.592195   -1.439796   -3.104640
     85          7           0       30.197055    0.184333    1.747637
     86          6           0       29.104183   -0.314857    2.412869
     87          6           0       29.181466   -0.123573    3.918115
     88          6           0       30.530603    0.712544    3.988722
     89          6           0       31.081527    0.713783    2.554443
     90          6           0       30.300966    2.065948    4.654889
     91          6           0       29.263100   -1.486804    4.639546
     92          6           0       28.537771   -1.648726    6.029582
     93          1           0       28.196435   -0.367840    6.826847
     94          7           0       32.406332    0.872681   -0.287692
     95          6           0       32.872820    1.458243    0.889599
     96          6           0       34.161075    2.106435    0.597093
     97          6           0       34.385971    1.891019   -0.801735
     98          6           0       33.204191    1.141499   -1.269319
     99          6           0       34.907665    2.851124    1.569990
    100          6           0       35.566550    2.344238   -1.654720
    101          8           0       35.574336    2.165475   -2.883025
    102          6           0       36.805432    2.847194   -1.024225
    103          7           0       30.675381   -0.181404   -2.607892
    104          6           0       31.783107    0.220229   -3.236803
    105          6           0       31.628206    0.089308   -4.786881
    106          6           0       30.358505   -0.813521   -4.895017
    107          6           0       29.811561   -0.820988   -3.501998
    108          6           0       31.568256    1.461660   -5.549453
    109          6           0       30.898363   -2.236467   -5.306103
    110          6           0       31.215716   -3.309796   -4.208551
    111          7           0       28.757954   -1.091947   -0.688702
    112          6           0       28.061443   -1.542868   -1.824593
    113          6           0       26.729370   -2.030982   -1.389049
    114          6           0       26.680529   -1.735684   -0.031686
    115          6           0       27.883449   -1.213122    0.393883
    116          6           0       25.714999   -2.370533   -2.371994
    117          6           0       25.746132   -1.712239    1.090988
    118          8           0       24.564174   -2.037302    1.094250
    119          6           0       26.573978   -1.130779    2.331309
    120          6           0       25.931667    0.087536    2.881648
    121          8           0       26.201903    1.247253    2.583065
    122          8           0       24.962217   -0.293679    3.828497
    123          6           0       24.128966    0.683100    4.492513
    124          1           0       33.001416    1.565065    2.960216
    125          1           0       33.622147    1.168758   -3.399071
    126          1           0       28.076414   -1.846336   -3.976744
    127          1           0       28.336397    0.440243    4.314017
    128          1           0       31.164908    0.191524    4.705345
    129          1           0       30.939486    2.269825    5.513723
    130          1           0       29.282325    2.273814    4.982489
    131          1           0       30.603373    2.820661    3.927684
    132          1           0       30.300868   -1.785102    4.787910
    133          1           0       28.832614   -2.137031    3.877185
    134          1           0       29.175892   -2.188864    6.728180
    135          1           0       27.744389   -2.374287    5.850182
    136          1           0       35.918121    2.442113    1.555503
    137          1           0       34.353845    2.937610    2.504321
    138          1           0       34.822655    3.852960    1.147859
    139          1           0       36.702499    3.844780   -0.596157
    140          1           0       37.586605    2.930035   -1.779634
    141          1           0       37.017618    2.212688   -0.164197
    142          1           0       32.579376   -0.401721   -4.992599
    143          1           0       29.681210   -0.470320   -5.677461
    144          1           0       32.555627    1.718179   -5.933606
    145          1           0       31.127569    2.181863   -4.860861
    146          1           0       30.877843    1.309988   -6.379000
    147          1           0       31.678140   -2.120368   -6.059080
    148          1           0       30.012445   -2.719785   -5.719066
    149          1           0       32.165716   -3.729324   -4.538334
    150          1           0       30.483212   -4.117375   -4.176631
    151          1           0       31.367856   -2.933066   -3.197681
    152          1           0       25.660830   -1.566464   -3.104807
    153          1           0       24.766225   -2.404956   -1.835551
    154          1           0       25.846019   -3.390083   -2.733544
    155          1           0       26.513017   -1.932643    3.067759
    156          1           0       23.154868    0.812704    4.021509
    157          1           0       24.695786    1.576317    4.755585
    158          1           0       24.033221    0.226521    5.478051
 ---------------------------------------------------------------------

 SCF Done:  E(RwB97XD) =  -4070.59822394     A.U. after   19 cycles

 Excitation energies and oscillator strengths:

 Excited State   1:      Singlet-A      1.6576 eV  747.97 nm  f=0.3589  <S**2>=0.000
     309 -> 315        0.16767
     311 -> 313        0.68564
     309 <- 315        0.10882
 This state for optimization and/or second-order correction.
 Total Energy, E(TD-HF/TD-DFT) =  -4070.53730790
 Copying the excited state density for this state as the 1-particle RhoCI density.

 Excited State   2:      Singlet-A      1.6997 eV  729.43 nm  f=0.3729  <S**2>=0.000
     310 -> 316       -0.19453
     312 -> 314        0.67892
     310 <- 316       -0.11677

 Excited State   3:      Singlet-A      2.1684 eV  571.77 nm  f=0.1043  <S**2>=0.000
     309 -> 313        0.63805
     311 -> 315       -0.28231

 Excited State   4:      Singlet-A      2.2204 eV  558.39 nm  f=0.0706  <S**2>=0.000
     310 -> 314        0.62145
     312 -> 316        0.32314

 Excited State   5:      Singlet-A      3.4144 eV  363.12 nm  f=0.0012  <S**2>=0.000
     303 -> 313       -0.19691
     308 -> 313        0.62698
     308 -> 317        0.11503

 The electronic state is 1-A.
 Alpha  occ. eigenvalues --  -46.95562 -46.94811 -19.30724 -19.29194 -19.24782
 Alpha  occ. eigenvalues --  -19.24592 -19.24311 -19.23967 -19.23795 -19.22873
 Alpha  occ. eigenvalues --  -14.46715 -14.46673 -14.46487 -14.45820 -14.44957
 Alpha  occ. eigenvalues --  -14.44266 -14.43495 -14.43123 -10.43298 -10.42481
 Alpha  occ. eigenvalues --  -10.39783 -10.39349 -10.39276 -10.38007 -10.36440
 Alpha  occ. eigenvalues --  -10.35869 -10.35429 -10.35150 -10.35033 -10.34871
 Alpha  occ. eigenvalues --  -10.34733 -10.34682 -10.34515 -10.34432 -10.34418
 Alpha  occ. eigenvalues --  -10.34185 -10.34157 -10.33916 -10.33639 -10.33210
 Alpha  occ. eigenvalues --  -10.33194 -10.33138 -10.32891 -10.32718 -10.32432
 Alpha  occ. eigenvalues --  -10.32255 -10.32241 -10.32184 -10.32165 -10.32144
 Alpha  occ. eigenvalues --  -10.32100 -10.31844 -10.31838 -10.31731 -10.31677
 Alpha  occ. eigenvalues --  -10.31677 -10.31562 -10.31501 -10.31424 -10.31402
 Alpha  occ. eigenvalues --  -10.31393 -10.31375 -10.31330 -10.31290 -10.31236
 Alpha  occ. eigenvalues --  -10.31172 -10.31044 -10.30881 -10.30742 -10.30657
 Alpha  occ. eigenvalues --  -10.30646 -10.30587 -10.30583 -10.30387 -10.30377
 Alpha  occ. eigenvalues --  -10.30285 -10.30097 -10.30079 -10.30003 -10.29591
 Alpha  occ. eigenvalues --  -10.29350 -10.29183 -10.29072 -10.28891 -10.28658
 Alpha  occ. eigenvalues --  -10.28367  -3.21573  -3.20800  -1.95149  -1.94712
 Alpha  occ. eigenvalues --   -1.94534  -1.94396  -1.93934  -1.93758  -1.18069
 Alpha  occ. eigenvalues --   -1.16781  -1.14234  -1.11844  -1.11434  -1.10251
 Alpha  occ. eigenvalues --   -1.09408  -1.09047  -1.08587  -1.06781  -1.06677
 Alpha  occ. eigenvalues --   -1.06070  -1.05964  -1.05057  -1.04799  -1.03340
 Alpha  occ. eigenvalues --   -0.94411  -0.93907  -0.91848  -0.91597  -0.90603
 Alpha  occ. eigenvalues --   -0.90509  -0.90223  -0.90122  -0.89279  -0.89232
 Alpha  occ. eigenvalues --   -0.88927  -0.88615  -0.88513  -0.88072  -0.86202
 Alpha  occ. eigenvalues --   -0.86038  -0.85666  -0.85180  -0.84561  -0.84167
 Alpha  occ. eigenvalues --   -0.83839  -0.83735  -0.82818  -0.82734  -0.82387
 Alpha  occ. eigenvalues --   -0.82270  -0.80939  -0.80338  -0.79810  -0.78989
 Alpha  occ. eigenvalues --   -0.78748  -0.78706  -0.77859  -0.77675  -0.77435
 Alpha  occ. eigenvalues --   -0.76712  -0.74634  -0.74207  -0.74072  -0.73260
 Alpha  occ. eigenvalues --   -0.72375  -0.71319  -0.71111  -0.70843  -0.70126
 Alpha  occ. eigenvalues --   -0.69810  -0.69666  -0.68738  -0.68721  -0.67293
 Alpha  occ. eigenvalues --   -0.66909  -0.66851  -0.66612  -0.66451  -0.66403
 Alpha  occ. eigenvalues --   -0.66153  -0.64372  -0.63495  -0.62567  -0.62343
 Alpha  occ. eigenvalues --   -0.61557  -0.61288  -0.61176  -0.61025  -0.60760
 Alpha  occ. eigenvalues --   -0.59992  -0.59982  -0.59817  -0.59120  -0.58959
 Alpha  occ. eigenvalues --   -0.58573  -0.58254  -0.58097  -0.57636  -0.57443
 Alpha  occ. eigenvalues --   -0.57176  -0.56919  -0.56152  -0.56060  -0.55918
 Alpha  occ. eigenvalues --   -0.55727  -0.55536  -0.55270  -0.55078  -0.54920
 Alpha  occ. eigenvalues --   -0.54683  -0.54651  -0.54322  -0.54164  -0.53929
 Alpha  occ. eigenvalues --   -0.53685  -0.53602  -0.53418  -0.53203  -0.53108
 Alpha  occ. eigenvalues --   -0.53101  -0.52744  -0.52520  -0.52471  -0.52404
 Alpha  occ. eigenvalues --   -0.52159  -0.51874  -0.51836  -0.51684  -0.51649
 Alpha  occ. eigenvalues --   -0.51518  -0.51049  -0.50878  -0.50830  -0.50809
 Alpha  occ. eigenvalues --   -0.50592  -0.50416  -0.50301  -0.50231  -0.50002
 Alpha  occ. eigenvalues --   -0.49694  -0.49558  -0.49524  -0.49346  -0.49277
 Alpha  occ. eigenvalues --   -0.48876  -0.48831  -0.48729  -0.48596  -0.48195
 Alpha  occ. eigenvalues --   -0.48152  -0.48001  -0.47912  -0.47800  -0.47669
 Alpha  occ. eigenvalues --   -0.47317  -0.47266  -0.47073  -0.46910  -0.46552
 Alpha  occ. eigenvalues --   -0.46474  -0.46338  -0.46238  -0.46185  -0.46128
 Alpha  occ. eigenvalues --   -0.46122  -0.45964  -0.45927  -0.45798  -0.45531
 Alpha  occ. eigenvalues --   -0.45351  -0.45275  -0.45262  -0.45098  -0.44881
 Alpha  occ. eigenvalues --   -0.44866  -0.44509  -0.44413  -0.44068  -0.43830
 Alpha  occ. eigenvalues --   -0.43822  -0.43803  -0.43663  -0.43332  -0.43325
 Alpha  occ. eigenvalues --   -0.43098  -0.42863  -0.42653  -0.42566  -0.42185
 Alpha  occ. eigenvalues --   -0.41964  -0.41733  -0.41499  -0.41256  -0.40565
 Alpha  occ. eigenvalues --   -0.40481  -0.40214  -0.39683  -0.39603  -0.39337
 Alpha  occ. eigenvalues --   -0.39079  -0.38876  -0.38752  -0.38595  -0.38396
 Alpha  occ. eigenvalues --   -0.38092  -0.37614  -0.36961  -0.36094  -0.35984
 Alpha  occ. eigenvalues --   -0.35793  -0.35497  -0.35317  -0.33962  -0.33576
 Alpha  occ. eigenvalues --   -0.33165  -0.33126  -0.32780  -0.32758  -0.32364
 Alpha  occ. eigenvalues --   -0.31996  -0.31446  -0.31016  -0.26132  -0.25787
 Alpha  occ. eigenvalues --   -0.22972  -0.22564
 Alpha virt. eigenvalues --   -0.07103  -0.06461   0.00149   0.00230   0.02308
 Alpha virt. eigenvalues --    0.02321   0.04163   0.04305   0.05151   0.06397
 Alpha virt. eigenvalues --    0.06981   0.07107   0.07693   0.08141   0.08330

 Mulliken charges:
               1
     1  Mg   0.967036
     2  C    0.015906
     3  C   -0.089485
     4  C   -0.073356
     5  C   -0.081632
     6  N   -0.340780
     7  C   -0.050049
     8  C   -0.024481
     9  C   -0.146483
    10  C    0.111028
    11  C    0.045274
    12  C    0.022912
    13  C   -0.129956
    14  H    0.028893
    15  N   -0.460620
    16  C    0.119242
    17  C   -0.139260
    18  C   -0.060635
    19  C    0.168459
    20  C    0.086749
    21  C    0.018659
    22  O   -0.211058
    23  C   -0.019724
    24  N   -0.295330
    25  C    0.031214
    26  C   -0.087927
    27  C   -0.051448
    28  C    0.005460
    29  C    0.018785
    30  C   -0.018500
    31  C   -0.065394
    32  N   -0.451024
    33  C    0.151116
    34  C   -0.200790
    35  C   -0.007526
    36  C    0.106054
    37  C    0.098552
    38  C    0.085822
    39  O   -0.226212
    40  C   -0.061116
    41  C    0.241264
    42  O   -0.258068
    43  O   -0.370106
    44  C    0.138521
    45  H    0.002867
    46  H   -0.045487
    47  H   -0.027226
    48  H    0.026057
    49  H    0.042459
    50  H    0.041626
    51  H    0.029810
    52  H    0.040802
    53  H    0.040684
    54  H    0.032334
    55  H    0.057558
    56  H    0.062928
    57  H    0.069809
    58  H    0.019246
    59  H    0.052833
    60  H    0.067233
    61  H    0.060714
    62  H    0.051527
    63  H    0.046685
    64  H    0.041955
    65  H    0.030573
    66  H    0.057222
    67  H    0.038722
    68  H    0.041072
    69  H    0.036548
    70  H    0.040108
    71  H    0.033039
    72  H    0.044212
    73  H    0.043252
    74  H    0.065017
    75  H    0.064739
    76  H    0.078463
    77  H    0.064878
    78  H    0.047284
    79  H    0.060471
    80  Mg   0.958957
    81  C    0.014405
    82  C   -0.115868
    83  C   -0.071784
    84  C   -0.091861
    85  N   -0.268482
    86  C   -0.050258
    87  C   -0.080451
    88  C   -0.081159
    89  C    0.061330
    90  C    0.017840
    91  C   -0.000848
    92  C   -0.101167
    93  H    0.041869
    94  N   -0.420362
    95  C    0.160419
    96  C   -0.187254
    97  C   -0.089515
    98  C    0.145956
    99  C    0.087544
   100  C    0.060830
   101  O   -0.251536
   102  C   -0.004409
   103  N   -0.411568
   104  C    0.041863
   105  C   -0.106460
   106  C   -0.056733
   107  C    0.053157
   108  C    0.041983
   109  C   -0.057126
   110  C   -0.040314
   111  N   -0.481816
   112  C    0.164290
   113  C   -0.192741
   114  C   -0.021517
   115  C    0.159795
   116  C    0.078033
   117  C    0.119474
   118  O   -0.196965
   119  C   -0.104598
   120  C    0.296026
   121  O   -0.245661
   122  O   -0.393132
   123  C    0.148826
   124  H    0.010761
   125  H    0.016621
   126  H   -0.005055
   127  H    0.045965
   128  H    0.028865
   129  H    0.025206
   130  H    0.045307
   131  H    0.027072
   132  H    0.030842
   133  H    0.034391
   134  H    0.044119
   135  H    0.052229
   136  H    0.062313
   137  H    0.037734
   138  H    0.061538
   139  H    0.050572
   140  H    0.063441
   141  H    0.049825
   142  H    0.039310
   143  H    0.036130
   144  H    0.056259
   145  H    0.049498
   146  H    0.029630
   147  H    0.044644
   148  H    0.027434
   149  H    0.033413
   150  H    0.043557
   151  H    0.047352
   152  H    0.057807
   153  H    0.044350
   154  H    0.045836
   155  H    0.074996
   156  H    0.071698
   157  H    0.047334
   158  H    0.039994
 Sum of Mulliken charges =  -0.00000

 Dipole moment (field-independent basis, Debye):
    X=             -1.2352    Y=              3.0304    Z=              4.0247  Tot=              5.1872
 Quadrupole moment (field-independent basis, Debye-Ang):
   XX=             50.6432   YY=           -546.2635   ZZ=           -473.6078
   XY=            -33.3830   XZ=             43.2470   YZ=             12.5875

 Normal termination of Gaussian 16 at Mon Sep 20 06:16:45 2021.
