 Gaussian 16, Revision A.03,
 Gaussian 16:  ES64L-G16RevA.03 25-Dec-2016

 --------------------------------
 #p wB97XD/Def2SVP td=(nstates=5)
 --------------------------------

 --------------------------------
 TDDFT excited states in gaussian
 --------------------------------
 Symbolic Z-matrix:
 Charge =  0 Multiplicity = 1

                         Standard orientation:
 ---------------------------------------------------------------------
 Center     Atomic      Atomic             Coordinates (Angstroms)
 Number     Number       Type             X           Y           Z
 ---------------------------------------------------------------------
      1         12           0       27.361249   -0.711297    0.225541
      2          6           0       25.543670    2.283441    0.987723
      3          6           0       29.710502    1.259912   -1.351445
      4          6           0       28.642574   -3.465266   -0.978230
      5          6           0       24.753525   -2.469076    1.681707
      6          7           0       27.456500    1.568154   -0.391159
      7          6           0       26.649286    2.524896    0.162165
      8          6           0       27.277130    3.926218   -0.064793
      9          6           0       28.601971    3.612402   -0.878197
     10          6           0       28.632208    2.041175   -0.926136
     11          6           0       28.731397    4.207400   -2.343264
     12          6           0       27.579581    4.731519    1.227037
     13          6           0       27.204641    6.170577    1.251272
     14          1           0       26.931375    7.020780   -0.047831
     15          7           0       28.993278   -1.100036   -1.039712
     16          6           0       29.940739   -0.182038   -1.492033
     17          6           0       30.928587   -0.890886   -2.327968
     18          6           0       30.672002   -2.300074   -2.117331
     19          6           0       29.397632   -2.344618   -1.363359
     20          6           0       32.013982   -0.254513   -3.142317
     21          6           0       31.456090   -3.554025   -2.570824
     22          8           0       31.321346   -4.697086   -2.085489
     23          6           0       32.561651   -3.355207   -3.528048
     24          7           0       26.744198   -2.608976    0.297818
     25          6           0       27.457115   -3.582213   -0.367247
     26          6           0       26.961409   -5.003342    0.018888
     27          6           0       25.930727   -4.652920    1.181555
     28          6           0       25.798846   -3.143764    1.072081
     29          6           0       26.345956   -5.915989   -1.118900
     30          6           0       26.314338   -5.066121    2.593629
     31          6           0       25.416562   -6.140768    3.241858
     32          7           0       25.615153   -0.235854    1.318224
     33          6           0       24.639818   -1.064917    1.819735
     34          6           0       23.545330   -0.266471    2.387057
     35          6           0       23.912396    1.040844    2.121421
     36          6           0       25.167374    1.016714    1.473080
     37          6           0       22.278650   -0.725996    3.030228
     38          6           0       23.474456    2.374749    2.325405
     39          8           0       22.502523    2.858786    2.972381
     40          6           0       24.461735    3.210204    1.626789
     41          6           0       23.768867    4.139731    0.667458
     42          8           0       23.239995    3.815267   -0.340337
     43          8           0       23.897461    5.399491    1.083314
     44          6           0       23.073739    6.411555    0.514356
     45          1           0       30.493884    1.806101   -1.881320
     46          1           0       28.980043   -4.462738   -1.270430
     47          1           0       23.902274   -3.032726    2.067059
     48          1           0       26.556289    4.479764   -0.667660
     49          1           0       29.471606    3.947182   -0.313525
     50          1           0       27.958053    4.920508   -2.627404
     51          1           0       28.604657    3.370982   -3.032152
     52          1           0       29.723722    4.633124   -2.495154
     53          1           0       28.640974    4.747684    1.477335
     54          1           0       27.068106    4.331835    2.102205
     55          1           0       28.011419    6.752610    1.697777
     56          1           0       26.321173    6.262320    1.882462
     57          1           0       31.940092   -0.597646   -4.174028
     58          1           0       32.956158   -0.606646   -2.722297
     59          1           0       32.057113    0.823184   -2.981444
     60          1           0       32.129096   -2.972771   -4.452622
     61          1           0       32.939019   -4.354790   -3.742386
     62          1           0       33.387619   -2.795247   -3.090346
     63          1           0       27.825031   -5.498406    0.464074
     64          1           0       24.995647   -5.153976    0.931413
     65          1           0       26.367389   -5.390756   -2.073097
     66          1           0       25.363402   -6.314842   -0.863804
     67          1           0       26.962878   -6.812830   -1.177555
     68          1           0       26.494447   -4.261386    3.306555
     69          1           0       27.294037   -5.537598    2.523680
     70          1           0       25.125124   -5.981088    4.279773
     71          1           0       26.039426   -7.025972    3.373301
     72          1           0       24.490358   -6.359936    2.712340
     73          1           0       22.324685   -1.767219    3.350631
     74          1           0       21.477269   -0.761411    2.292376
     75          1           0       22.021634    0.026457    3.775683
     76          1           0       24.963546    3.787312    2.403025
     77          1           0       22.077695    6.262910    0.933751
     78          1           0       22.946310    6.254427   -0.556809
     79          1           0       23.409765    7.405764    0.810061
     80         12           0      -27.340177   -0.598583   -0.080371
     81          6           0      -25.721228    2.209685   -1.398430
     82          6           0      -28.400925    1.269309    2.577900
     83          6           0      -28.549386   -3.366495    1.267839
     84          6           0      -26.004489   -2.474710   -2.813960
     85          7           0      -27.029426    1.511392    0.522307
     86          6           0      -26.403014    2.523239   -0.170850
     87          6           0      -26.719930    3.870096    0.452445
     88          6           0      -27.329348    3.476972    1.855991
     89          6           0      -27.684213    1.977765    1.571040
     90          6           0      -26.349352    3.630621    3.012157
     91          6           0      -27.564969    4.739578   -0.548449
     92          6           0      -28.115879    6.048129    0.083147
     93          1           0      -27.289298    6.669416    1.189814
     94          7           0      -28.318156   -0.975029    1.612657
     95          6           0      -28.586089   -0.102318    2.659754
     96          6           0      -29.250259   -0.785989    3.783435
     97          6           0      -29.319009   -2.147666    3.355892
     98          6           0      -28.703864   -2.201866    2.032331
     99          6           0      -29.733719   -0.078862    4.993792
    100          6           0      -29.901439   -3.295710    4.139305
    101          8           0      -29.963275   -4.464247    3.666015
    102          6           0      -30.512301   -3.084196    5.498048
    103          7           0      -27.327135   -2.642997   -0.731376
    104          6           0      -27.912395   -3.556802    0.043195
    105          6           0      -27.664966   -5.017241   -0.539918
    106          6           0      -26.781621   -4.728273   -1.878254
    107          6           0      -26.680065   -3.204055   -1.806360
    108          6           0      -26.928185   -5.881068    0.564099
    109          6           0      -27.487271   -5.153456   -3.236351
    110          6           0      -27.290881   -6.635509   -3.666696
    111          7           0      -26.087839   -0.293854   -1.711114
    112          6           0      -25.710146   -1.100105   -2.817252
    113          6           0      -24.906922   -0.260861   -3.810108
    114          6           0      -24.820257    1.017722   -3.268611
    115          6           0      -25.629334    0.959943   -2.024455
    116          6           0      -24.353777   -0.686480   -5.134036
    117          6           0      -24.352156    2.370786   -3.457775
    118          8           0      -23.685708    2.899675   -4.353050
    119          6           0      -25.075786    3.262910   -2.331445
    120          6           0      -24.120553    4.192162   -1.618112
    121          8           0      -23.468240    3.879686   -0.658881
    122          8           0      -24.271504    5.522835   -2.069472
    123          6           0      -23.766891    6.592110   -1.194978
    124          1           0      -28.619331    1.981863    3.376490
    125          1           0      -28.937124   -4.279169    1.725496
    126          1           0      -25.480841   -3.002800   -3.613688
    127          1           0      -25.776185    4.396926    0.587649
    128          1           0      -28.261411    3.976937    2.121395
    129          1           0      -26.834538    4.302708    3.719806
    130          1           0      -25.391778    3.961159    2.610449
    131          1           0      -26.270127    2.730215    3.620866
    132          1           0      -28.213109    3.983614   -0.990675
    133          1           0      -26.876256    5.000250   -1.351379
    134          1           0      -29.100534    5.749867    0.443253
    135          1           0      -28.210443    6.789922   -0.709757
    136          1           0      -29.112175   -0.510008    5.778395
    137          1           0      -30.804062   -0.195207    5.161778
    138          1           0      -29.577623    0.996793    5.085125
    139          1           0      -31.383076   -2.437898    5.396710
    140          1           0      -29.643558   -2.651435    5.995698
    141          1           0      -30.773641   -3.981793    6.057829
    142          1           0      -28.692117   -5.302121   -0.771050
    143          1           0      -25.719595   -4.974911   -1.843917
    144          1           0      -26.703252   -5.342484    1.484500
    145          1           0      -25.977636   -6.246162    0.174248
    146          1           0      -27.639982   -6.655883    0.847359
    147          1           0      -27.318336   -4.431185   -4.034518
    148          1           0      -28.556668   -5.056243   -3.051987
    149          1           0      -28.287136   -7.055793   -3.799690
    150          1           0      -26.673711   -7.133338   -2.918675
    151          1           0      -26.774042   -6.718916   -4.623037
    152          1           0      -24.980886   -0.212654   -5.889547
    153          1           0      -24.367347   -1.773911   -5.216952
    154          1           0      -23.340913   -0.373579   -5.386755
    155          1           0      -25.859857    3.816725   -2.846985
    156          1           0      -22.689399    6.597019   -1.357397
    157          1           0      -24.118957    6.454154   -0.172468
    158          1           0      -24.239255    7.511646   -1.539521
 ---------------------------------------------------------------------

 SCF Done:  E(RwB97XD) =  -4070.61884758     A.U. after   19 cycles

 Excitation energies and oscillator strengths:

 Excited State   1:      Singlet-A      1.6549 eV  749.20 nm  f=0.3844  <S**2>=0.000
     310 -> 315       -0.20543
     312 -> 314        0.67802
     310 <- 315       -0.12142
 This state for optimization and/or second-order correction.
 Total Energy, E(TD-HF/TD-DFT) =  -4070.55803173
 Copying the excited state density for this state as the 1-particle RhoCI density.

 Excited State   2:      Singlet-A      1.6709 eV  742.04 nm  f=0.4158  <S**2>=0.000
     309 -> 316       -0.18115
     311 -> 313        0.68456
     309 <- 316       -0.11412

 Excited State   3:      Singlet-A      2.1576 eV  574.64 nm  f=0.1254  <S**2>=0.000
     309 -> 313        0.64762
     311 -> 316        0.26958

 Excited State   4:      Singlet-A      2.2347 eV  554.82 nm  f=0.0335  <S**2>=0.000
     310 -> 314        0.58751
     312 -> 315        0.38606

 Excited State   5:      Singlet-A      3.7965 eV  326.58 nm  f=0.0000  <S**2>=0.000
     312 -> 313        0.70710

 The electronic state is 1-A.
 Alpha  occ. eigenvalues --  -46.95238 -46.94411 -19.30234 -19.29206 -19.25212
 Alpha  occ. eigenvalues --  -19.24602 -19.24257 -19.24179 -19.23506 -19.23446
 Alpha  occ. eigenvalues --  -14.46730 -14.46646 -14.46211 -14.46117 -14.44567
 Alpha  occ. eigenvalues --  -14.44496 -14.44323 -14.44094 -10.43269 -10.42902
 Alpha  occ. eigenvalues --  -10.39571 -10.39228 -10.38857 -10.38784 -10.35768
 Alpha  occ. eigenvalues --  -10.35478 -10.35242 -10.35067 -10.34931 -10.34926
 Alpha  occ. eigenvalues --  -10.34751 -10.34667 -10.34653 -10.34381 -10.34361
 Alpha  occ. eigenvalues --  -10.34358 -10.34164 -10.34110 -10.33649 -10.33584
 Alpha  occ. eigenvalues --  -10.33482 -10.33463 -10.33399 -10.33372 -10.33232
 Alpha  occ. eigenvalues --  -10.32984 -10.32796 -10.32607 -10.32539 -10.32352
 Alpha  occ. eigenvalues --  -10.32341 -10.32297 -10.32289 -10.32284 -10.32236
 Alpha  occ. eigenvalues --  -10.32158 -10.31795 -10.31744 -10.31690 -10.31597
 Alpha  occ. eigenvalues --  -10.31560 -10.31553 -10.31240 -10.31105 -10.31067
 Alpha  occ. eigenvalues --  -10.30977 -10.30855 -10.30780 -10.30711 -10.30629
 Alpha  occ. eigenvalues --  -10.30409 -10.30370 -10.30298 -10.30140 -10.30075
 Alpha  occ. eigenvalues --  -10.30044 -10.29746 -10.29725 -10.29609 -10.29419
 Alpha  occ. eigenvalues --  -10.29382 -10.29305 -10.29268 -10.29189 -10.29187
 Alpha  occ. eigenvalues --  -10.29147  -3.21259  -3.20509  -1.94830  -1.94394
 Alpha  occ. eigenvalues --   -1.94228  -1.94109  -1.93622  -1.93513  -1.20822
 Alpha  occ. eigenvalues --   -1.17610  -1.11923  -1.11367  -1.10444  -1.10370
 Alpha  occ. eigenvalues --   -1.10016  -1.09973  -1.06904  -1.06318  -1.05797
 Alpha  occ. eigenvalues --   -1.05470  -1.04816  -1.04502  -1.03763  -1.03394
 Alpha  occ. eigenvalues --   -0.95632  -0.93571  -0.91025  -0.90844  -0.90424
 Alpha  occ. eigenvalues --   -0.90400  -0.90235  -0.89740  -0.89731  -0.89478
 Alpha  occ. eigenvalues --   -0.88760  -0.88636  -0.88231  -0.88200  -0.86514
 Alpha  occ. eigenvalues --   -0.86144  -0.85391  -0.84837  -0.84509  -0.84108
 Alpha  occ. eigenvalues --   -0.83954  -0.83806  -0.83646  -0.82680  -0.82468
 Alpha  occ. eigenvalues --   -0.81950  -0.80932  -0.80239  -0.79658  -0.79337
 Alpha  occ. eigenvalues --   -0.79083  -0.78886  -0.78267  -0.77689  -0.77110
 Alpha  occ. eigenvalues --   -0.76472  -0.75184  -0.74060  -0.73464  -0.73428
 Alpha  occ. eigenvalues --   -0.71376  -0.71335  -0.70927  -0.70504  -0.70280
 Alpha  occ. eigenvalues --   -0.69428  -0.69076  -0.68201  -0.67841  -0.67400
 Alpha  occ. eigenvalues --   -0.67104  -0.66861  -0.66817  -0.66459  -0.65904
 Alpha  occ. eigenvalues --   -0.65755  -0.65024  -0.63263  -0.62651  -0.62304
 Alpha  occ. eigenvalues --   -0.61876  -0.61458  -0.61297  -0.61131  -0.60693
 Alpha  occ. eigenvalues --   -0.60184  -0.59728  -0.59726  -0.59513  -0.58753
 Alpha  occ. eigenvalues --   -0.58424  -0.58122  -0.58079  -0.57809  -0.57123
 Alpha  occ. eigenvalues --   -0.56889  -0.56518  -0.56122  -0.55873  -0.55694
 Alpha  occ. eigenvalues --   -0.55592  -0.55326  -0.55219  -0.55189  -0.54912
 Alpha  occ. eigenvalues --   -0.54662  -0.54436  -0.54345  -0.54136  -0.53822
 Alpha  occ. eigenvalues --   -0.53638  -0.53636  -0.53491  -0.53408  -0.53344
 Alpha  occ. eigenvalues --   -0.53085  -0.53028  -0.52780  -0.52384  -0.52027
 Alpha  occ. eigenvalues --   -0.52019  -0.51939  -0.51783  -0.51450  -0.51366
 Alpha  occ. eigenvalues --   -0.51254  -0.51225  -0.50999  -0.50909  -0.50769
 Alpha  occ. eigenvalues --   -0.50687  -0.50530  -0.50420  -0.50203  -0.50138
 Alpha  occ. eigenvalues --   -0.50045  -0.50011  -0.49608  -0.49348  -0.49328
 Alpha  occ. eigenvalues --   -0.48852  -0.48772  -0.48695  -0.48158  -0.48093
 Alpha  occ. eigenvalues --   -0.48063  -0.48003  -0.47975  -0.47743  -0.47663
 Alpha  occ. eigenvalues --   -0.47502  -0.47176  -0.47127  -0.47085  -0.46760
 Alpha  occ. eigenvalues --   -0.46740  -0.46614  -0.46493  -0.46413  -0.46094
 Alpha  occ. eigenvalues --   -0.45904  -0.45616  -0.45408  -0.45352  -0.45058
 Alpha  occ. eigenvalues --   -0.44990  -0.44892  -0.44826  -0.44578  -0.44510
 Alpha  occ. eigenvalues --   -0.44466  -0.44216  -0.44125  -0.44090  -0.43824
 Alpha  occ. eigenvalues --   -0.43540  -0.43481  -0.43396  -0.43286  -0.43124
 Alpha  occ. eigenvalues --   -0.42882  -0.42815  -0.42245  -0.42171  -0.42074
 Alpha  occ. eigenvalues --   -0.41986  -0.41561  -0.41107  -0.41019  -0.40948
 Alpha  occ. eigenvalues --   -0.40457  -0.40094  -0.40072  -0.39887  -0.39835
 Alpha  occ. eigenvalues --   -0.39086  -0.38817  -0.38560  -0.38245  -0.38242
 Alpha  occ. eigenvalues --   -0.37797  -0.37753  -0.36657  -0.36474  -0.36131
 Alpha  occ. eigenvalues --   -0.36109  -0.35401  -0.35149  -0.33709  -0.33558
 Alpha  occ. eigenvalues --   -0.33468  -0.33057  -0.32854  -0.32594  -0.32586
 Alpha  occ. eigenvalues --   -0.32442  -0.32223  -0.31582  -0.26036  -0.25903
 Alpha  occ. eigenvalues --   -0.23103  -0.22211
 Alpha virt. eigenvalues --   -0.07274  -0.06229  -0.00231   0.00460   0.01845
 Alpha virt. eigenvalues --    0.01859   0.04132   0.04265   0.05412   0.06322
 Alpha virt. eigenvalues --    0.06714   0.07707   0.07825   0.08361   0.08491

 Mulliken charges:
               1
     1  Mg   0.968375
     2  C   -0.020768
     3  C   -0.037308
     4  C   -0.068967
     5  C   -0.100345
     6  N   -0.318892
     7  C   -0.004826
     8  C   -0.025480
     9  C   -0.108469
    10  C    0.038843
    11  C    0.011074
    12  C    0.007027
    13  C   -0.131929
    14  H    0.014352
    15  N   -0.444937
    16  C    0.109619
    17  C   -0.188366
    18  C   -0.082197
    19  C    0.150614
    20  C    0.090736
    21  C    0.056723
    22  O   -0.260081
    23  C   -0.010032
    24  N   -0.428890
    25  C    0.096465
    26  C   -0.123035
    27  C   -0.081943
    28  C    0.106422
    29  C    0.027994
    30  C    0.012449
    31  C   -0.064935
    32  N   -0.411601
    33  C    0.113900
    34  C   -0.170908
    35  C   -0.051437
    36  C    0.143817
    37  C    0.088524
    38  C    0.114941
    39  O   -0.251341
    40  C   -0.028881
    41  C    0.225562
    42  O   -0.205775
    43  O   -0.332374
    44  C    0.138716
    45  H   -0.013850
    46  H    0.020112
    47  H   -0.001499
    48  H    0.046106
    49  H    0.041902
    50  H    0.041074
    51  H    0.040368
    52  H    0.039971
    53  H    0.033326
    54  H    0.031241
    55  H    0.045758
    56  H    0.057660
    57  H    0.058319
    58  H    0.041365
    59  H    0.035370
    60  H    0.054091
    61  H    0.046906
    62  H    0.066187
    63  H    0.046333
    64  H    0.023316
    65  H    0.051629
    66  H    0.034847
    67  H    0.038253
    68  H    0.040931
    69  H    0.022548
    70  H    0.029647
    71  H    0.032287
    72  H    0.037102
    73  H    0.030958
    74  H    0.058256
    75  H    0.072595
    76  H    0.069253
    77  H    0.047678
    78  H    0.056369
    79  H    0.061156
    80  Mg   0.984995
    81  C   -0.029829
    82  C   -0.097583
    83  C   -0.088081
    84  C   -0.091655
    85  N   -0.320813
    86  C   -0.001398
    87  C   -0.052601
    88  C   -0.133761
    89  C    0.011210
    90  C    0.044496
    91  C   -0.023236
    92  C   -0.099799
    93  H    0.046668
    94  N   -0.499705
    95  C    0.214606
    96  C   -0.158577
    97  C   -0.076654
    98  C    0.175272
    99  C    0.073601
   100  C    0.037599
   101  O   -0.272506
   102  C    0.020901
   103  N   -0.349017
   104  C    0.045747
   105  C   -0.087794
   106  C   -0.049422
   107  C    0.040657
   108  C    0.013486
   109  C   -0.039887
   110  C   -0.032203
   111  N   -0.451837
   112  C    0.124810
   113  C   -0.194083
   114  C   -0.009037
   115  C    0.139273
   116  C    0.070653
   117  C    0.151186
   118  O   -0.214992
   119  C   -0.144345
   120  C    0.289368
   121  O   -0.219344
   122  O   -0.405887
   123  C    0.143380
   124  H   -0.011159
   125  H    0.021183
   126  H    0.001216
   127  H    0.028724
   128  H    0.029438
   129  H    0.028582
   130  H    0.059108
   131  H    0.036175
   132  H    0.041267
   133  H    0.036911
   134  H    0.058414
   135  H    0.059617
   136  H    0.054128
   137  H    0.057854
   138  H    0.036153
   139  H    0.065564
   140  H    0.039153
   141  H    0.055173
   142  H    0.050617
   143  H    0.044477
   144  H    0.052665
   145  H    0.038278
   146  H    0.049591
   147  H    0.034808
   148  H    0.019192
   149  H    0.041745
   150  H    0.039438
   151  H    0.036828
   152  H    0.060588
   153  H    0.027139
   154  H    0.060480
   155  H    0.091784
   156  H    0.068555
   157  H    0.050135
   158  H    0.052320
 Sum of Mulliken charges =  -0.00000

 Dipole moment (field-independent basis, Debye):
    X=             -0.9314    Y=              2.1885    Z=              3.1525  Tot=              3.9491
 Quadrupole moment (field-independent basis, Debye-Ang):
   XX=           -199.0938   YY=           -480.0757   ZZ=           -498.1109
   XY=             -5.4722   XZ=            -59.8336   YZ=             15.6266

 Normal termination of Gaussian 16 at Mon Sep 20 09:55:33 2021.
