 Gaussian 16, Revision A.03,
 Gaussian 16:  ES64L-G16RevA.03 25-Dec-2016

 --------------------------------
 #p wB97XD/Def2SVP td=(nstates=5)
 --------------------------------

 --------------------------------
 TDDFT excited states in gaussian
 --------------------------------
 Symbolic Z-matrix:
 Charge =  0 Multiplicity = 1

                         Standard orientation:
 ---------------------------------------------------------------------
 Center     Atomic      Atomic             Coordinates (Angstroms)
 Number     Number       Type             X           Y           Z
 ---------------------------------------------------------------------
      1         12           0       25.312723   -0.286469   -0.603413
      2          6           0       23.978543    1.690789    1.876107
      3          6           0       25.476522   -2.905703    1.714209
      4          6           0       26.712794   -2.267762   -2.950468
      5          6           0       25.472102    2.390789   -2.682869
      6          7           0       25.015645   -0.465360    1.651292
      7          6           0       24.230154    0.440661    2.374751
      8          6           0       23.724628   -0.161292    3.700762
      9          6           0       24.343911   -1.605039    3.618704
     10          6           0       24.955648   -1.733230    2.240179
     11          6           0       25.350753   -1.887392    4.726626
     12          6           0       22.183951   -0.193062    3.999706
     13          6           0       21.645966    0.742974    5.213004
     14          1           0       20.958330   -0.093766    6.296295
     15          7           0       26.083533   -2.229349   -0.605873
     16          6           0       25.932274   -3.183131    0.413619
     17          6           0       26.287763   -4.526610   -0.055074
     18          6           0       26.759270   -4.385327   -1.470053
     19          6           0       26.478588   -2.927857   -1.785396
     20          6           0       26.206850   -5.756974    0.821408
     21          6           0       27.308057   -5.356230   -2.405614
     22          8           0       27.725439   -4.978152   -3.510206
     23          6           0       27.465005   -6.829862   -2.073817
     24          7           0       26.037105    0.064706   -2.440267
     25          6           0       26.468441   -0.937926   -3.328451
     26          6           0       26.723042   -0.452417   -4.812536
     27          6           0       26.323040    1.103031   -4.641933
     28          6           0       25.899514    1.182601   -3.157769
     29          6           0       28.225802   -0.674049   -5.339638
     30          6           0       25.184558    1.521389   -5.634757
     31          6           0       25.252936    2.885702   -6.246262
     32          7           0       24.907092    1.707679   -0.386202
     33          6           0       24.972120    2.699934   -1.368613
     34          6           0       24.387853    3.912404   -0.906483
     35          6           0       23.877957    3.519500    0.386043
     36          6           0       24.303273    2.209642    0.641270
     37          6           0       24.191534    5.210911   -1.569319
     38          6           0       23.253605    4.027054    1.567512
     39          8           0       22.738227    5.102751    1.891335
     40          6           0       23.433881    2.868105    2.649786
     41          6           0       24.297548    3.372031    3.750267
     42          8           0       25.438315    3.190491    3.922888
     43          8           0       23.526826    4.041275    4.698074
     44          6           0       24.083347    4.065049    6.034808
     45          1           0       25.441739   -3.741040    2.416717
     46          1           0       27.097861   -2.816286   -3.812541
     47          1           0       25.382924    3.213572   -3.395228
     48          1           0       24.207560    0.362509    4.524989
     49          1           0       23.592210   -2.376877    3.786289
     50          1           0       26.336692   -2.011153    4.279418
     51          1           0       24.999756   -2.836665    5.129522
     52          1           0       25.360188   -1.176662    5.552718
     53          1           0       21.908230   -1.225649    4.215270
     54          1           0       21.607124    0.146399    3.139280
     55          1           0       20.878119    1.336901    4.716943
     56          1           0       22.464538    1.324316    5.636780
     57          1           0       27.035451   -5.689956    1.527498
     58          1           0       26.332254   -6.631198    0.184428
     59          1           0       25.317660   -5.783982    1.451628
     60          1           0       28.176891   -7.216838   -2.803194
     61          1           0       26.528124   -7.387672   -2.090981
     62          1           0       27.997615   -7.082263   -1.157122
     63          1           0       25.976514   -0.887807   -5.475997
     64          1           0       27.120961    1.810405   -4.869016
     65          1           0       28.510202    0.191600   -5.938224
     66          1           0       28.380604   -1.482083   -6.053597
     67          1           0       28.943907   -0.819148   -4.532317
     68          1           0       24.179228    1.395067   -5.233276
     69          1           0       25.177100    0.914230   -6.539762
     70          1           0       24.405879    3.419771   -5.816019
     71          1           0       25.026190    3.030700   -7.302516
     72          1           0       26.191028    3.367387   -5.968533
     73          1           0       24.129428    5.040774   -2.644519
     74          1           0       25.107452    5.759240   -1.349356
     75          1           0       23.380133    5.738535   -1.067620
     76          1           0       22.465168    2.591519    3.065202
     77          1           0       24.864789    4.821996    5.977186
     78          1           0       24.521651    3.078733    6.186187
     79          1           0       23.338616    4.359907    6.774644
     80         12           0      -25.544704    0.410733    0.073827
     81          6           0      -23.511439   -2.273380    0.649357
     82          6           0      -22.606699    2.414723   -0.047746
     83          6           0      -27.472234    3.008578   -0.886247
     84          6           0      -28.154066   -1.767814   -0.689254
     85          7           0      -23.192090   -0.002310   -0.085650
     86          6           0      -22.666109   -1.151005    0.424800
     87          6           0      -21.165555   -1.057728    0.449032
     88          6           0      -20.860949    0.481263    0.187751
     89          6           0      -22.296553    1.069038    0.009566
     90          6           0      -19.785872    1.092049    1.010351
     91          6           0      -20.289272   -2.074992   -0.424285
     92          6           0      -20.861531   -2.572996   -1.718302
     93          1           0      -19.959536   -2.510762   -2.942975
     94          7           0      -25.123169    2.456795   -0.161534
     95          6           0      -23.912295    3.076790   -0.149463
     96          6           0      -24.023931    4.483428   -0.399525
     97          6           0      -25.491610    4.700119   -0.534694
     98          6           0      -26.103385    3.353317   -0.524958
     99          6           0      -22.969389    5.482657   -0.458325
    100          6           0      -26.254540    6.010427   -0.666544
    101          8           0      -25.677618    7.026983   -0.826160
    102          6           0      -27.748361    6.173882   -0.717551
    103          7           0      -27.449475    0.571232   -0.788720
    104          6           0      -28.057882    1.761170   -0.908040
    105          6           0      -29.504699    1.595321   -1.612458
    106          6           0      -29.808336    0.081565   -1.169961
    107          6           0      -28.395548   -0.393110   -0.926455
    108          6           0      -30.581110    2.589460   -1.167809
    109          6           0      -30.664960   -0.680362   -2.197238
    110          6           0      -31.883172   -1.497384   -1.750841
    111          7           0      -25.774253   -1.621348   -0.116601
    112          6           0      -26.889691   -2.402909   -0.390893
    113          6           0      -26.626813   -3.774000   -0.184516
    114          6           0      -25.323451   -3.815377    0.282491
    115          6           0      -24.823152   -2.465530    0.312912
    116          6           0      -27.570797   -4.925201   -0.346111
    117          6           0      -24.257950   -4.573865    0.791691
    118          8           0      -24.223601   -5.792005    0.953656
    119          6           0      -22.994673   -3.671944    0.889308
    120          6           0      -22.495459   -3.930160    2.303316
    121          8           0      -21.323689   -4.260389    2.583808
    122          8           0      -23.511305   -3.594472    3.167006
    123          6           0      -23.297352   -3.486901    4.630949
    124          1           0      -21.665146    2.947266   -0.196760
    125          1           0      -28.027299    3.805998   -1.384483
    126          1           0      -28.998180   -2.438195   -0.861874
    127          1           0      -20.820035   -1.346513    1.442340
    128          1           0      -20.488226    0.540588   -0.834416
    129          1           0      -20.072548    2.040743    1.463954
    130          1           0      -18.836949    1.144137    0.476536
    131          1           0      -19.590832    0.456923    1.874507
    132          1           0      -20.040125   -3.005964    0.085078
    133          1           0      -19.388727   -1.568271   -0.772612
    134          1           0      -21.874014   -2.231764   -1.931449
    135          1           0      -20.937450   -3.657307   -1.630588
    136          1           0      -22.163849    5.180058    0.210006
    137          1           0      -23.292516    6.487568   -0.189210
    138          1           0      -22.607361    5.493402   -1.487024
    139          1           0      -27.958973    5.325515   -0.065948
    140          1           0      -28.159572    6.013613   -1.713716
    141          1           0      -28.160553    7.109646   -0.339642
    142          1           0      -29.310935    1.602244   -2.685505
    143          1           0      -30.297136   -0.094652   -0.212092
    144          1           0      -31.268873    2.041888   -0.522833
    145          1           0      -30.976606    3.129887   -2.027329
    146          1           0      -30.188958    3.398861   -0.552745
    147          1           0      -29.989593   -1.356944   -2.721576
    148          1           0      -30.950438    0.023774   -2.978917
    149          1           0      -32.829041   -1.352386   -2.272988
    150          1           0      -32.048148   -1.461281   -0.673207
    151          1           0      -31.510705   -2.517177   -1.842341
    152          1           0      -27.419126   -5.742034    0.359908
    153          1           0      -27.466072   -5.316216   -1.358425
    154          1           0      -28.614650   -4.652453   -0.185519
    155          1           0      -22.348703   -4.081344    0.113593
    156          1           0      -23.845092   -2.655579    5.074436
    157          1           0      -22.230758   -3.346486    4.807083
    158          1           0      -23.547488   -4.315612    5.292166
 ---------------------------------------------------------------------

 SCF Done:  E(RwB97XD) =  -4070.54515487     A.U. after   19 cycles

 Excitation energies and oscillator strengths:

 Excited State   1:      Singlet-A      1.5769 eV  786.23 nm  f=0.3818  <S**2>=0.000
     309 -> 316        0.17492
     311 -> 313        0.68653
     309 <- 316        0.11857
 This state for optimization and/or second-order correction.
 Total Energy, E(TD-HF/TD-DFT) =  -4070.48720340
 Copying the excited state density for this state as the 1-particle RhoCI density.

 Excited State   2:      Singlet-A      1.6222 eV  764.28 nm  f=0.4127  <S**2>=0.000
     310 -> 315        0.16234
     312 -> 314        0.68612
     310 <- 315        0.10567

 Excited State   3:      Singlet-A      2.0921 eV  592.64 nm  f=0.1442  <S**2>=0.000
     309 -> 313        0.64990
     311 -> 316       -0.25883

 Excited State   4:      Singlet-A      2.1350 eV  580.71 nm  f=0.1231  <S**2>=0.000
     310 -> 314        0.64280
     312 -> 315       -0.25993

 Excited State   5:      Singlet-A      3.0079 eV  412.20 nm  f=0.0074  <S**2>=0.000
     306 -> 313       -0.21863
     308 -> 313        0.63552
     308 -> 318        0.12411

 The electronic state is 1-A.
 Alpha  occ. eigenvalues --  -46.96325 -46.94308 -19.31499 -19.27376 -19.25348
 Alpha  occ. eigenvalues --  -19.24442 -19.23948 -19.23629 -19.22964 -19.22201
 Alpha  occ. eigenvalues --  -14.47195 -14.47192 -14.46668 -14.46611 -14.44951
 Alpha  occ. eigenvalues --  -14.44629 -14.44306 -14.43143 -10.44417 -10.41892
 Alpha  occ. eigenvalues --  -10.39348 -10.38373 -10.38186 -10.37484 -10.36589
 Alpha  occ. eigenvalues --  -10.36165 -10.35928 -10.35679 -10.35357 -10.35173
 Alpha  occ. eigenvalues --  -10.35160 -10.35031 -10.34942 -10.34878 -10.34749
 Alpha  occ. eigenvalues --  -10.34741 -10.34715 -10.34336 -10.34224 -10.34170
 Alpha  occ. eigenvalues --  -10.33519 -10.33465 -10.33324 -10.33248 -10.33062
 Alpha  occ. eigenvalues --  -10.32975 -10.32751 -10.32597 -10.32527 -10.32384
 Alpha  occ. eigenvalues --  -10.32382 -10.32312 -10.32309 -10.32013 -10.31939
 Alpha  occ. eigenvalues --  -10.31892 -10.31857 -10.31808 -10.31652 -10.31616
 Alpha  occ. eigenvalues --  -10.31611 -10.31578 -10.31428 -10.31374 -10.31297
 Alpha  occ. eigenvalues --  -10.31174 -10.30772 -10.30770 -10.30727 -10.30712
 Alpha  occ. eigenvalues --  -10.30591 -10.30501 -10.30367 -10.30366 -10.30225
 Alpha  occ. eigenvalues --  -10.30106 -10.30085 -10.29930 -10.29878 -10.29804
 Alpha  occ. eigenvalues --  -10.29744 -10.29641 -10.29141 -10.29020 -10.28955
 Alpha  occ. eigenvalues --  -10.28482  -3.22259  -3.20477  -1.95799  -1.95415
 Alpha  occ. eigenvalues --   -1.95200  -1.94041  -1.93615  -1.93470  -1.18879
 Alpha  occ. eigenvalues --   -1.17910  -1.13595  -1.11825  -1.11676  -1.10300
 Alpha  occ. eigenvalues --   -1.09900  -1.09511  -1.07231  -1.06624  -1.06451
 Alpha  occ. eigenvalues --   -1.05449  -1.04954  -1.04182  -1.04067  -1.02709
 Alpha  occ. eigenvalues --   -0.95766  -0.94538  -0.91739  -0.91111  -0.90648
 Alpha  occ. eigenvalues --   -0.90498  -0.90389  -0.90335  -0.89933  -0.89279
 Alpha  occ. eigenvalues --   -0.89207  -0.89134  -0.88661  -0.87809  -0.86476
 Alpha  occ. eigenvalues --   -0.86149  -0.85932  -0.85356  -0.85028  -0.84340
 Alpha  occ. eigenvalues --   -0.84118  -0.83839  -0.82960  -0.82794  -0.82574
 Alpha  occ. eigenvalues --   -0.82186  -0.80772  -0.80488  -0.79773  -0.79326
 Alpha  occ. eigenvalues --   -0.78937  -0.78674  -0.78601  -0.77456  -0.77211
 Alpha  occ. eigenvalues --   -0.77154  -0.75612  -0.75060  -0.73766  -0.73677
 Alpha  occ. eigenvalues --   -0.71992  -0.71405  -0.71350  -0.70599  -0.70375
 Alpha  occ. eigenvalues --   -0.69890  -0.69548  -0.68586  -0.68224  -0.67596
 Alpha  occ. eigenvalues --   -0.67531  -0.67244  -0.67006  -0.66716  -0.66404
 Alpha  occ. eigenvalues --   -0.65896  -0.65626  -0.62838  -0.62308  -0.62220
 Alpha  occ. eigenvalues --   -0.61478  -0.61343  -0.61002  -0.60879  -0.60431
 Alpha  occ. eigenvalues --   -0.60250  -0.60073  -0.59653  -0.59599  -0.59235
 Alpha  occ. eigenvalues --   -0.58525  -0.58513  -0.57823  -0.57495  -0.57283
 Alpha  occ. eigenvalues --   -0.57248  -0.57088  -0.56421  -0.55980  -0.55852
 Alpha  occ. eigenvalues --   -0.55572  -0.55305  -0.55249  -0.55113  -0.54927
 Alpha  occ. eigenvalues --   -0.54592  -0.54449  -0.54251  -0.54081  -0.54069
 Alpha  occ. eigenvalues --   -0.53774  -0.53752  -0.53510  -0.53348  -0.53267
 Alpha  occ. eigenvalues --   -0.53090  -0.53064  -0.52669  -0.52665  -0.52569
 Alpha  occ. eigenvalues --   -0.52498  -0.52132  -0.51956  -0.51933  -0.51684
 Alpha  occ. eigenvalues --   -0.51649  -0.51574  -0.51472  -0.51144  -0.50964
 Alpha  occ. eigenvalues --   -0.50931  -0.50564  -0.50459  -0.50159  -0.50001
 Alpha  occ. eigenvalues --   -0.49936  -0.49840  -0.49502  -0.49309  -0.49224
 Alpha  occ. eigenvalues --   -0.49174  -0.49060  -0.48951  -0.48839  -0.48764
 Alpha  occ. eigenvalues --   -0.48397  -0.48396  -0.48083  -0.48058  -0.47912
 Alpha  occ. eigenvalues --   -0.47597  -0.47490  -0.47330  -0.47284  -0.47209
 Alpha  occ. eigenvalues --   -0.46987  -0.46884  -0.46838  -0.46620  -0.46144
 Alpha  occ. eigenvalues --   -0.46080  -0.45959  -0.45617  -0.45472  -0.45325
 Alpha  occ. eigenvalues --   -0.45282  -0.45003  -0.44999  -0.44856  -0.44683
 Alpha  occ. eigenvalues --   -0.44571  -0.44543  -0.44394  -0.44065  -0.43975
 Alpha  occ. eigenvalues --   -0.43954  -0.43669  -0.43619  -0.43436  -0.43311
 Alpha  occ. eigenvalues --   -0.43225  -0.43068  -0.42909  -0.42583  -0.42474
 Alpha  occ. eigenvalues --   -0.42200  -0.42049  -0.41825  -0.41011  -0.40964
 Alpha  occ. eigenvalues --   -0.40650  -0.40619  -0.39967  -0.39790  -0.39610
 Alpha  occ. eigenvalues --   -0.39458  -0.39242  -0.38999  -0.38175  -0.38025
 Alpha  occ. eigenvalues --   -0.37558  -0.36868  -0.36822  -0.36436  -0.36052
 Alpha  occ. eigenvalues --   -0.35873  -0.35394  -0.35339  -0.33820  -0.33669
 Alpha  occ. eigenvalues --   -0.33509  -0.33087  -0.32601  -0.32202  -0.31836
 Alpha  occ. eigenvalues --   -0.31547  -0.31374  -0.30416  -0.26405  -0.26309
 Alpha  occ. eigenvalues --   -0.23541  -0.23273
 Alpha virt. eigenvalues --   -0.08058  -0.07640  -0.00233  -0.00042   0.01790
 Alpha virt. eigenvalues --    0.02317   0.04057   0.04309   0.04814   0.05250
 Alpha virt. eigenvalues --    0.06632   0.07339   0.07548   0.07907   0.08479

 Mulliken charges:
               1
     1  Mg   0.967581
     2  C    0.011731
     3  C   -0.103225
     4  C   -0.069846
     5  C   -0.098378
     6  N   -0.364161
     7  C   -0.034238
     8  C   -0.002658
     9  C   -0.138105
    10  C    0.093041
    11  C    0.019374
    12  C   -0.009188
    13  C   -0.148527
    14  H    0.036414
    15  N   -0.481789
    16  C    0.200946
    17  C   -0.180067
    18  C   -0.027797
    19  C    0.193617
    20  C    0.079753
    21  C    0.021598
    22  O   -0.252857
    23  C   -0.034094
    24  N   -0.411025
    25  C    0.038960
    26  C   -0.045320
    27  C   -0.088415
    28  C    0.133989
    29  C   -0.000903
    30  C   -0.040870
    31  C   -0.058073
    32  N   -0.418916
    33  C    0.119540
    34  C   -0.179149
    35  C   -0.042508
    36  C    0.138681
    37  C    0.103206
    38  C    0.092972
    39  O   -0.217674
    40  C   -0.114361
    41  C    0.257104
    42  O   -0.187470
    43  O   -0.389626
    44  C    0.148304
    45  H   -0.010837
    46  H    0.025950
    47  H   -0.021905
    48  H    0.032292
    49  H    0.032479
    50  H    0.050110
    51  H    0.027199
    52  H    0.046204
    53  H    0.042864
    54  H    0.040657
    55  H    0.074254
    56  H    0.060409
    57  H    0.058524
    58  H    0.036786
    59  H    0.054130
    60  H    0.050763
    61  H    0.073235
    62  H    0.053510
    63  H    0.052018
    64  H    0.039613
    65  H    0.033970
    66  H    0.046059
    67  H    0.057344
    68  H    0.033693
    69  H    0.029691
    70  H    0.026206
    71  H    0.038832
    72  H    0.035108
    73  H    0.041494
    74  H    0.054373
    75  H    0.067137
    76  H    0.052251
    77  H    0.050841
    78  H    0.037013
    79  H    0.060164
    80  Mg   0.958562
    81  C    0.008249
    82  C   -0.083329
    83  C   -0.083861
    84  C   -0.096643
    85  N   -0.330786
    86  C   -0.005527
    87  C   -0.018780
    88  C   -0.091833
    89  C    0.035713
    90  C    0.041618
    91  C   -0.010792
    92  C   -0.168744
    93  H    0.029992
    94  N   -0.448392
    95  C    0.171421
    96  C   -0.181745
    97  C   -0.096602
    98  C    0.137253
    99  C    0.086420
   100  C    0.013496
   101  O   -0.209768
   102  C   -0.014973
   103  N   -0.361620
   104  C    0.084211
   105  C   -0.138990
   106  C   -0.084314
   107  C    0.074799
   108  C    0.050049
   109  C   -0.015296
   110  C   -0.044761
   111  N   -0.442068
   112  C    0.139279
   113  C   -0.188102
   114  C    0.058640
   115  C    0.109946
   116  C    0.078557
   117  C    0.062370
   118  O   -0.216480
   119  C   -0.121360
   120  C    0.312955
   121  O   -0.256666
   122  O   -0.379224
   123  C    0.145013
   124  H    0.008465
   125  H    0.003759
   126  H   -0.014189
   127  H    0.042107
   128  H    0.049758
   129  H    0.035497
   130  H    0.041457
   131  H    0.026932
   132  H    0.059168
   133  H    0.045121
   134  H    0.064522
   135  H    0.055843
   136  H    0.031654
   137  H    0.063203
   138  H    0.053811
   139  H    0.032363
   140  H    0.070920
   141  H    0.058011
   142  H    0.056102
   143  H    0.040613
   144  H    0.038907
   145  H    0.039587
   146  H    0.032340
   147  H    0.030254
   148  H    0.027716
   149  H    0.056413
   150  H    0.025821
   151  H    0.030874
   152  H    0.060936
   153  H    0.060867
   154  H    0.031912
   155  H    0.065569
   156  H    0.053583
   157  H    0.053919
   158  H    0.058298
 Sum of Mulliken charges =  -0.00000

 Dipole moment (field-independent basis, Debye):
    X=             -4.8660    Y=             -4.7955    Z=              0.2508  Tot=              6.8365
 Quadrupole moment (field-independent basis, Debye-Ang):
   XX=           -330.9284   YY=           -574.9425   ZZ=           -471.1124
   XY=           -132.6918   XZ=            -40.5871   YZ=            -24.0077

 Normal termination of Gaussian 16 at Mon Sep 20 12:37:23 2021.
