 Gaussian 16, Revision A.03,
 Gaussian 16:  ES64L-G16RevA.03 25-Dec-2016

 --------------------------------
 #p wB97XD/Def2SVP td=(nstates=5)
 --------------------------------

 --------------------------------
 TDDFT excited states in gaussian
 --------------------------------
 Symbolic Z-matrix:
 Charge =  0 Multiplicity = 1

                         Standard orientation:
 ---------------------------------------------------------------------
 Center     Atomic      Atomic             Coordinates (Angstroms)
 Number     Number       Type             X           Y           Z
 ---------------------------------------------------------------------
      1         12           0       -0.667462   -0.006451   -0.749015
      2          6           0        2.868855   -0.211548   -0.389110
      3          6           0       -0.881053   -3.400206   -0.337239
      4          6           0       -4.077941    0.342813   -0.046371
      5          6           0       -0.414627    3.494044   -0.572738
      6          7           0        0.939719   -1.583929   -0.132242
      7          6           0        2.271097   -1.491615   -0.282773
      8          6           0        2.853840   -2.881299   -0.463752
      9          6           0        1.653953   -3.942448   -0.379093
     10          6           0        0.465359   -2.854592   -0.427916
     11          6           0        1.711866   -4.859325   -1.621573
     12          6           0        3.933400   -3.154803    0.571059
     13          6           0        3.691106   -2.602653    1.995914
     14          1           0        3.331729   -3.637496    3.096927
     15          7           0       -2.315444   -1.373254   -0.336879
     16          6           0       -2.124819   -2.731256   -0.202029
     17          6           0       -3.433443   -3.299418   -0.114459
     18          6           0       -4.418042   -2.255701    0.072240
     19          6           0       -3.650898   -1.002876   -0.143859
     20          6           0       -3.667909   -4.784721    0.035897
     21          6           0       -5.867877   -2.403752    0.536409
     22          8           0       -6.303919   -3.500291    0.829631
     23          6           0       -6.771130   -1.300055    0.668214
     24          7           0       -2.041062    1.664612   -0.261441
     25          6           0       -3.357068    1.538570   -0.175153
     26          6           0       -4.075233    2.857799    0.058075
     27          6           0       -2.819337    3.812354    0.250835
     28          6           0       -1.693379    2.996945   -0.274539
     29          6           0       -5.029492    3.302035   -1.155314
     30          6           0       -2.700069    4.278859    1.774436
     31          6           0       -2.941805    5.712224    2.154625
     32          7           0        0.823310    1.341241   -0.776128
     33          6           0        0.776143    2.749252   -0.828797
     34          6           0        2.130645    3.309188   -0.992614
     35          6           0        2.921746    2.169858   -0.846179
     36          6           0        2.137715    0.991028   -0.590360
     37          6           0        2.571692    4.768982   -1.356536
     38          6           0        4.325496    1.747022   -0.813396
     39          8           0        5.399219    2.354703   -0.957436
     40          6           0        4.362382    0.207539   -0.538005
     41          6           0        5.076525    0.204014    0.769442
     42          8           0        4.708379    0.772884    1.765057
     43          8           0        6.248717   -0.412163    0.646931
     44          6           0        7.108421   -0.612256    1.865456
     45          1           0       -0.944566   -4.476744   -0.508087
     46          1           0       -5.129364    0.599278    0.097868
     47          1           0       -0.446137    4.573081   -0.404801
     48          1           0        3.288919   -2.740316   -1.453189
     49          1           0        1.669486   -4.518906    0.546253
     50          1           0        1.836257   -5.886370   -1.278928
     51          1           0        2.549492   -4.662262   -2.291136
     52          1           0        0.741764   -4.760512   -2.107906
     53          1           0        4.880217   -2.737575    0.228082
     54          1           0        4.053999   -4.227768    0.723215
     55          1           0        2.833330   -1.947425    2.146928
     56          1           0        4.618155   -2.086774    2.246279
     57          1           0       -2.731221   -5.338305    0.105994
     58          1           0       -4.327175   -5.097052   -0.774718
     59          1           0       -4.292354   -4.924810    0.917553
     60          1           0       -6.500952   -0.561694    1.423456
     61          1           0       -7.759353   -1.674249    0.934918
     62          1           0       -6.720373   -0.831897   -0.315415
     63          1           0       -4.617410    2.907622    1.002015
     64          1           0       -3.152978    4.704701   -0.279093
     65          1           0       -5.038667    2.520189   -1.915305
     66          1           0       -4.586528    4.192301   -1.602162
     67          1           0       -6.048201    3.584087   -0.884836
     68          1           0       -1.678541    4.174318    2.140206
     69          1           0       -3.352459    3.687975    2.415892
     70          1           0       -2.029344    6.285290    2.319469
     71          1           0       -3.469149    5.559801    3.096889
     72          1           0       -3.700148    6.222770    1.560796
     73          1           0        2.453365    5.381476   -0.463113
     74          1           0        1.966869    5.082205   -2.207682
     75          1           0        3.638258    4.758678   -1.580376
     76          1           0        4.889284   -0.234853   -1.384240
     77          1           0        7.735303    0.251739    2.087156
     78          1           0        7.764509   -1.475554    1.747044
     79          1           0        6.401993   -0.813321    2.670814
 ---------------------------------------------------------------------

 SCF Done:  E(RwB97XD) =  -2035.26632071     A.U. after   20 cycles

 Excitation energies and oscillator strengths:

 Excited State   1:      Singlet-A      1.6285 eV  761.33 nm  f=0.3511  <S**2>=0.000
     155 ->158         0.20697
     156 ->157         0.67851
     155 <-158         0.12525
 This state for optimization and/or second-order correction.
 Total Energy, E(TD-HF/TD-DFT) =  -2035.20647334
 Copying the excited state density for this state as the 1-particle RhoCI density.

 Excited State   2:      Singlet-A      2.1415 eV  578.96 nm  f=0.0705  <S**2>=0.000
     155 ->157         0.61694
     156 ->158        -0.33156

 Excited State   3:      Singlet-A      3.1857 eV  389.19 nm  f=0.0154  <S**2>=0.000
     154 ->157         0.65679
     154 ->159         0.10700
     156 ->158         0.20212

 Excited State   4:      Singlet-A      3.4453 eV  359.86 nm  f=0.4213  <S**2>=0.000
     153 ->157         0.42364
     153 ->159        -0.10226
     154 ->157        -0.13217
     155 ->157         0.23557
     156 ->158         0.46823

 Excited State   5:      Singlet-A      3.5047 eV  353.77 nm  f=0.1427  <S**2>=0.000
     151 ->157         0.41668
     151 ->159        -0.28300
     151 ->161        -0.15247
     153 ->157        -0.29076
     153 ->159         0.16082
     155 ->157         0.14001
     156 ->158         0.22965

 The electronic state is 1-A.
 Alpha  occ. eigenvalues --  -46.96550 -19.30297 -19.23911 -19.23796 -19.23091
 Alpha  occ. eigenvalues --  -14.47017 -14.46567 -14.44752 -14.44158 -10.42571
 Alpha  occ. eigenvalues --  -10.39005 -10.38268 -10.36228 -10.36118 -10.35402
 Alpha  occ. eigenvalues --  -10.35017 -10.35014 -10.34733 -10.34722 -10.33970
 Alpha  occ. eigenvalues --  -10.33916 -10.33006 -10.32950 -10.32812 -10.32442
 Alpha  occ. eigenvalues --  -10.32385 -10.32227 -10.32221 -10.32200 -10.31903
 Alpha  occ. eigenvalues --  -10.31728 -10.31473 -10.31148 -10.30994 -10.30868
 Alpha  occ. eigenvalues --  -10.30684 -10.30548 -10.30342 -10.30081 -10.29827
 Alpha  occ. eigenvalues --  -10.29506 -10.29321 -10.28990  -3.22344  -1.95888
 Alpha  occ. eigenvalues --   -1.95491  -1.95276  -1.19237  -1.12431  -1.11043
 Alpha  occ. eigenvalues --   -1.09904  -1.06601  -1.05678  -1.04432  -1.03664
 Alpha  occ. eigenvalues --   -0.93925  -0.90836  -0.90681  -0.90168  -0.89027
 Alpha  occ. eigenvalues --   -0.88075  -0.87338  -0.86603  -0.85923  -0.84785
 Alpha  occ. eigenvalues --   -0.84531  -0.83058  -0.82214  -0.79843  -0.79295
 Alpha  occ. eigenvalues --   -0.78341  -0.78214  -0.76919  -0.74853  -0.73721
 Alpha  occ. eigenvalues --   -0.70856  -0.70451  -0.70097  -0.68693  -0.67496
 Alpha  occ. eigenvalues --   -0.67160  -0.66778  -0.66033  -0.64421  -0.62252
 Alpha  occ. eigenvalues --   -0.61259  -0.61009  -0.60641  -0.59819  -0.59256
 Alpha  occ. eigenvalues --   -0.58224  -0.57822  -0.56974  -0.56878  -0.56480
 Alpha  occ. eigenvalues --   -0.55819  -0.55395  -0.55018  -0.54582  -0.54460
 Alpha  occ. eigenvalues --   -0.53969  -0.53684  -0.53458  -0.52606  -0.52073
 Alpha  occ. eigenvalues --   -0.51738  -0.51621  -0.51391  -0.51169  -0.50928
 Alpha  occ. eigenvalues --   -0.50481  -0.50185  -0.49715  -0.49234  -0.48913
 Alpha  occ. eigenvalues --   -0.48840  -0.48537  -0.48206  -0.47743  -0.47550
 Alpha  occ. eigenvalues --   -0.47240  -0.47092  -0.47036  -0.46801  -0.46268
 Alpha  occ. eigenvalues --   -0.45921  -0.45605  -0.45499  -0.45131  -0.44860
 Alpha  occ. eigenvalues --   -0.44343  -0.43972  -0.43456  -0.43353  -0.43259
 Alpha  occ. eigenvalues --   -0.42777  -0.41997  -0.41966  -0.41727  -0.40547
 Alpha  occ. eigenvalues --   -0.39905  -0.39387  -0.39141  -0.38847  -0.38337
 Alpha  occ. eigenvalues --   -0.37686  -0.36195  -0.36087  -0.35616  -0.33595
 Alpha  occ. eigenvalues --   -0.32759  -0.32608  -0.32385  -0.31121  -0.26202
 Alpha  occ. eigenvalues --   -0.23121
 Alpha virt. eigenvalues --   -0.07122  -0.00665   0.02345   0.04138   0.04575
 Alpha virt. eigenvalues --    0.07177   0.07595   0.09508   0.09634   0.10787
 Alpha virt. eigenvalues --    0.11596   0.12228   0.12862   0.13027   0.13549

 Mulliken charges:
               1
     1  Mg   0.941995
     2  C   -0.038075
     3  C   -0.073508
     4  C   -0.078418
     5  C   -0.055679
     6  N   -0.320033
     7  C   -0.052970
     8  C   -0.003131
     9  C   -0.147408
    10  C    0.056847
    11  C    0.022596
    12  C   -0.011481
    13  C   -0.138054
    14  H    0.013780
    15  N   -0.462333
    16  C    0.168144
    17  C   -0.175036
    18  C   -0.086744
    19  C    0.201807
    20  C    0.084828
    21  C    0.035945
    22  O   -0.236013
    23  C    0.005202
    24  N   -0.322814
    25  C    0.047455
    26  C   -0.151709
    27  C   -0.062481
    28  C    0.046727
    29  C    0.017240
    30  C   -0.028931
    31  C   -0.050500
    32  N   -0.501081
    33  C    0.150841
    34  C   -0.184694
    35  C   -0.035165
    36  C    0.186981
    37  C    0.087879
    38  C    0.097753
    39  O   -0.231083
    40  C   -0.050560
    41  C    0.238110
    42  O   -0.235880
    43  O   -0.346740
    44  C    0.130827
    45  H    0.013625
    46  H   -0.019957
    47  H    0.003336
    48  H    0.035238
    49  H    0.061579
    50  H    0.033381
    51  H    0.044482
    52  H    0.040376
    53  H    0.041088
    54  H    0.041298
    55  H    0.087247
    56  H    0.047496
    57  H    0.029816
    58  H    0.048543
    59  H    0.062067
    60  H    0.066399
    61  H    0.056731
    62  H    0.054723
    63  H    0.040393
    64  H    0.018090
    65  H    0.043574
    66  H    0.031206
    67  H    0.046341
    68  H    0.037492
    69  H    0.032159
    70  H    0.053218
    71  H    0.028098
    72  H    0.026649
    73  H    0.054295
    74  H    0.056620
    75  H    0.063023
    76  H    0.067945
    77  H    0.072773
    78  H    0.059157
    79  H    0.067063
 Sum of Mulliken charges =  -0.00000

 Dipole moment (field-independent basis, Debye):
    X=             -1.1450    Y=              0.7439    Z=             -1.7975  Tot=              2.2573
 Quadrupole moment (field-independent basis, Debye-Ang):
   XX=           -261.6867   YY=           -243.5693   ZZ=           -255.9554
   XY=            -47.8502   XZ=              6.9979   YZ=              5.9582

 Normal termination of Gaussian 16 at Sat Sep 18 16:17:36 2021.
