 Gaussian 16, Revision A.03,
 Gaussian 16:  ES64L-G16RevA.03 25-Dec-2016

 --------------------------------
 #p wB97XD/Def2SVP td=(nstates=5)
 --------------------------------

 --------------------------------
 TDDFT excited states in gaussian
 --------------------------------
 Symbolic Z-matrix:
 Charge =  0 Multiplicity = 1

                         Standard orientation:
 ---------------------------------------------------------------------
 Center     Atomic      Atomic             Coordinates (Angstroms)
 Number     Number       Type             X           Y           Z
 ---------------------------------------------------------------------
      1         12           0       14.719806   -0.204612    0.560685
      2          6           0       12.404243   -1.311595   -1.780660
      3          6           0       16.327527    1.470234   -2.163590
      4          6           0       16.689308    1.313349    2.710600
      5          6           0       12.572762   -1.331098    3.106064
      6          7           0       14.314516    0.132573   -1.672554
      7          6           0       13.336327   -0.525935   -2.383392
      8          6           0       13.401569   -0.129349   -3.860800
      9          6           0       14.812357    0.515240   -3.952507
     10          6           0       15.181999    0.770974   -2.515054
     11          6           0       15.964110   -0.290073   -4.672723
     12          6           0       12.266567    0.818606   -4.281706
     13          6           0       12.174003    1.103888   -5.731946
     14          1           0       10.782177    1.603225   -6.278371
     15          7           0       16.309741    1.227650    0.328712
     16          6           0       16.829589    1.761198   -0.860902
     17          6           0       17.914044    2.638468   -0.518181
     18          6           0       17.949973    2.714772    0.923000
     19          6           0       16.953512    1.689639    1.389418
     20          6           0       18.713956    3.446692   -1.576864
     21          6           0       18.919444    3.628450    1.679512
     22          8           0       19.814039    4.231729    1.110508
     23          6           0       18.770617    3.776050    3.145647
     24          7           0       14.744363   -0.232764    2.626226
     25          6           0       15.697181    0.447263    3.272891
     26          6           0       15.409441    0.420762    4.828608
     27          6           0       14.059063   -0.374650    5.004678
     28          6           0       13.714043   -0.638349    3.438356
     29          6           0       16.555212   -0.051027    5.762030
     30          6           0       12.997614    0.517906    5.682670
     31          6           0       11.956412   -0.229971    6.524259
     32          7           0       12.849470   -1.145170    0.724195
     33          6           0       12.165249   -1.651385    1.793642
     34          6           0       11.028926   -2.432110    1.289943
     35          6           0       11.150489   -2.394568   -0.073212
     36          6           0       12.203427   -1.566713   -0.390426
     37          6           0       10.036209   -3.231892    2.139775
     38          6           0       10.537385   -2.818096   -1.296061
     39          8           0        9.588295   -3.527654   -1.522198
     40          6           0       11.337591   -2.142266   -2.459232
     41          6           0       11.976671   -3.227328   -3.253376
     42          8           0       12.625595   -4.146265   -2.836361
     43          8           0       11.820353   -2.932143   -4.618791
     44          6           0       12.453505   -3.845036   -5.527464
     45          1           0       16.798285    1.861152   -3.067525
     46          1           0       17.271824    1.728618    3.536191
     47          1           0       11.919430   -1.756168    3.871034
     48          1           0       13.424871   -1.065168   -4.417545
     49          1           0       14.854544    1.506797   -4.401854
     50          1           0       16.370103    0.421160   -5.391727
     51          1           0       15.773757   -1.332617   -4.929022
     52          1           0       16.761906   -0.402786   -3.938759
     53          1           0       12.331940    1.834487   -3.891132
     54          1           0       11.310876    0.428895   -3.930989
     55          1           0       12.460396    0.187498   -6.247998
     56          1           0       12.940745    1.831846   -5.996488
     57          1           0       18.256824    4.416096   -1.375855
     58          1           0       18.459700    3.252224   -2.619001
     59          1           0       19.801105    3.527601   -1.577270
     60          1           0       17.712089    3.990851    3.292157
     61          1           0       19.332907    4.655138    3.460920
     62          1           0       19.092096    2.807779    3.530106
     63          1           0       15.252455    1.462435    5.109983
     64          1           0       14.147056   -1.329997    5.521069
     65          1           0       16.955286    0.825654    6.272407
     66          1           0       17.275087   -0.614206    5.169063
     67          1           0       16.145490   -0.660111    6.567762
     68          1           0       12.521082    1.053648    4.862090
     69          1           0       13.414301    1.326825    6.283106
     70          1           0       12.064069    0.230229    7.507063
     71          1           0       12.067086   -1.314410    6.525017
     72          1           0       10.950258    0.006320    6.177746
     73          1           0        8.984542   -3.140890    1.870104
     74          1           0       10.245370   -2.852525    3.140272
     75          1           0       10.436035   -4.244730    2.191222
     76          1           0       10.606737   -1.592463   -3.052373
     77          1           0       11.650691   -4.399638   -6.013357
     78          1           0       13.189157   -4.554790   -5.148330
     79          1           0       12.997987   -3.247252   -6.257917
     80         12           0      -14.384313    0.871002   -0.283214
     81          6           0      -14.309185   -2.589707    0.012990
     82          6           0      -11.041942    0.662717   -1.185903
     83          6           0      -14.286396    4.264745   -0.085312
     84          6           0      -17.666986    0.862382    0.803006
     85          7           0      -12.841758   -0.779133   -0.499536
     86          6           0      -13.037943   -2.145140   -0.364812
     87          6           0      -11.722489   -2.999406   -0.548340
     88          6           0      -10.655645   -1.838573   -0.611488
     89          6           0      -11.547017   -0.548439   -0.737412
     90          6           0       -9.640736   -1.635584    0.517343
     91          6           0      -11.823364   -3.903304   -1.790685
     92          6           0      -12.000566   -5.379802   -1.552542
     93          1           0      -11.278491   -6.330536   -2.523768
     94          7           0      -12.967205    2.304830   -0.767542
     95          6           0      -11.714319    1.976311   -1.182306
     96          6           0      -11.021229    3.262031   -1.394306
     97          6           0      -11.872826    4.305025   -0.997903
     98          6           0      -13.084665    3.693972   -0.610730
     99          6           0       -9.700062    3.312738   -2.048012
    100          6           0      -11.625168    5.783550   -0.930313
    101          8           0      -12.523166    6.627656   -0.657006
    102          6           0      -10.346283    6.388058   -1.133998
    103          7           0      -15.761035    2.319805    0.186316
    104          6           0      -15.507425    3.656981    0.172696
    105          6           0      -16.665374    4.483518    0.573498
    106          6           0      -17.789255    3.410992    0.806751
    107          6           0      -17.020972    2.152796    0.650225
    108          6           0      -16.618361    5.507894    1.745238
    109          6           0      -19.101876    3.576242   -0.107664
    110          6           0      -19.208824    3.005332   -1.552919
    111          7           0      -15.745186   -0.508649    0.337167
    112          6           0      -17.051161   -0.378329    0.712910
    113          6           0      -17.649687   -1.636765    0.819277
    114          6           0      -16.535920   -2.542262    0.628556
    115          6           0      -15.418297   -1.795849    0.312362
    116          6           0      -19.121865   -1.960364    1.067086
    117          6           0      -16.242173   -3.941145    0.504748
    118          8           0      -16.907717   -4.956655    0.516445
    119          6           0      -14.685772   -4.015809    0.321267
    120          6           0      -14.057879   -4.517198    1.559823
    121          8           0      -13.314883   -3.870906    2.330872
    122          8           0      -14.363582   -5.797442    1.864101
    123          6           0      -13.610310   -6.502293    2.956833
    124          1           0       -9.975205    0.595288   -1.406602
    125          1           0      -14.308909    5.350264    0.032881
    126          1           0      -18.740781    0.768687    0.980883
    127          1           0      -11.406225   -3.471379    0.382475
    128          1           0      -10.124408   -1.984773   -1.551923
    129          1           0       -9.866603   -0.720874    1.065936
    130          1           0       -8.696989   -1.390225    0.032503
    131          1           0       -9.539922   -2.467764    1.214915
    132          1           0      -10.861939   -3.797171   -2.294543
    133          1           0      -12.582396   -3.486081   -2.452420
    134          1           0      -13.067620   -5.594084   -1.617908
    135          1           0      -11.734482   -5.731118   -0.555510
    136          1           0       -9.866047    3.876887   -2.964867
    137          1           0       -9.184320    2.384270   -2.296457
    138          1           0       -9.005642    3.873504   -1.422427
    139          1           0       -9.646581    5.771158   -0.570737
    140          1           0      -10.392133    7.461489   -0.954893
    141          1           0      -10.003276    6.245730   -2.158817
    142          1           0      -16.820631    5.023748   -0.359934
    143          1           0      -18.100534    3.438017    1.850346
    144          1           0      -16.732064    6.534357    1.396494
    145          1           0      -15.655777    5.477369    2.256852
    146          1           0      -17.347701    5.303503    2.528985
    147          1           0      -19.164614    4.659261   -0.215782
    148          1           0      -19.866314    3.211051    0.578337
    149          1           0      -18.395854    2.346314   -1.856581
    150          1           0      -19.451163    3.724803   -2.335569
    151          1           0      -20.128083    2.421761   -1.524884
    152          1           0      -19.258092   -2.589575    1.947276
    153          1           0      -19.473032   -2.551873    0.221725
    154          1           0      -19.777421   -1.089974    1.105326
    155          1           0      -14.482666   -4.814432   -0.392417
    156          1           0      -13.922843   -7.513758    2.696911
    157          1           0      -13.887171   -6.212993    3.970082
    158          1           0      -12.540182   -6.332971    2.833471
 ---------------------------------------------------------------------

 SCF Done:  E(RwB97XD) =  -4070.61823455     A.U. after   19 cycles

 Excitation energies and oscillator strengths:

 Excited State   1:      Singlet-A      1.6446 eV  753.91 nm  f=0.3948  <S**2>=0.000
     310 -> 316        0.18299
     312 -> 314        0.68255
     310 <- 316        0.11716
 This state for optimization and/or second-order correction.
 Total Energy, E(TD-HF/TD-DFT) =  -4070.55779838
 Copying the excited state density for this state as the 1-particle RhoCI density.

 Excited State   2:      Singlet-A      1.7226 eV  719.76 nm  f=0.3893  <S**2>=0.000
     309 -> 315        0.17621
     311 -> 313        0.68542
     309 <- 315        0.11112

 Excited State   3:      Singlet-A      2.1514 eV  576.29 nm  f=0.1378  <S**2>=0.000
     310 -> 314        0.64864
     312 -> 316       -0.26448

 Excited State   4:      Singlet-A      2.2426 eV  552.87 nm  f=0.1143  <S**2>=0.000
     309 -> 313        0.63522
     311 -> 315       -0.29257

 Excited State   5:      Singlet-A      3.3483 eV  370.29 nm  f=0.0040  <S**2>=0.000
     306 -> 314       -0.19212
     308 -> 314        0.65639

 The electronic state is 1-A.
 Alpha  occ. eigenvalues --  -46.96057 -46.93836 -19.30236 -19.29214 -19.25464
 Alpha  occ. eigenvalues --  -19.23808 -19.23590 -19.23228 -19.23145 -19.22959
 Alpha  occ. eigenvalues --  -14.47284 -14.47028 -14.46567 -14.46403 -14.44919
 Alpha  occ. eigenvalues --  -14.44108 -14.43709 -14.42909 -10.43395 -10.42310
 Alpha  occ. eigenvalues --  -10.38909 -10.38429 -10.38177 -10.38141 -10.36506
 Alpha  occ. eigenvalues --  -10.35772 -10.35702 -10.35394 -10.35252 -10.35110
 Alpha  occ. eigenvalues --  -10.35013 -10.34956 -10.34754 -10.34626 -10.34603
 Alpha  occ. eigenvalues --  -10.34440 -10.34092 -10.34041 -10.33847 -10.33216
 Alpha  occ. eigenvalues --  -10.32816 -10.32616 -10.32494 -10.32469 -10.32386
 Alpha  occ. eigenvalues --  -10.32328 -10.32325 -10.32302 -10.32290 -10.32227
 Alpha  occ. eigenvalues --  -10.32166 -10.32072 -10.32001 -10.31958 -10.31830
 Alpha  occ. eigenvalues --  -10.31827 -10.31820 -10.31667 -10.31663 -10.31490
 Alpha  occ. eigenvalues --  -10.31384 -10.31309 -10.31281 -10.31087 -10.31056
 Alpha  occ. eigenvalues --  -10.30946 -10.30777 -10.30766 -10.30765 -10.30755
 Alpha  occ. eigenvalues --  -10.30732 -10.30545 -10.30445 -10.30391 -10.30197
 Alpha  occ. eigenvalues --  -10.30156 -10.30029 -10.29934 -10.29915 -10.29789
 Alpha  occ. eigenvalues --  -10.29749 -10.29501 -10.29482 -10.29475 -10.28612
 Alpha  occ. eigenvalues --  -10.27986  -3.21936  -3.19963  -1.95528  -1.95060
 Alpha  occ. eigenvalues --   -1.94889  -1.93568  -1.93097  -1.92943  -1.18823
 Alpha  occ. eigenvalues --   -1.17239  -1.12591  -1.12428  -1.11716  -1.11081
 Alpha  occ. eigenvalues --   -1.10108  -1.07209  -1.06838  -1.06652  -1.06073
 Alpha  occ. eigenvalues --   -1.05893  -1.05789  -1.05205  -1.04921  -1.04239
 Alpha  occ. eigenvalues --   -0.95277  -0.95024  -0.91345  -0.91237  -0.90830
 Alpha  occ. eigenvalues --   -0.90761  -0.90292  -0.90164  -0.90072  -0.89493
 Alpha  occ. eigenvalues --   -0.88883  -0.88477  -0.88003  -0.87956  -0.87205
 Alpha  occ. eigenvalues --   -0.86230  -0.85970  -0.85519  -0.85142  -0.84687
 Alpha  occ. eigenvalues --   -0.84576  -0.84301  -0.83297  -0.82881  -0.82881
 Alpha  occ. eigenvalues --   -0.82451  -0.80478  -0.79769  -0.79382  -0.79320
 Alpha  occ. eigenvalues --   -0.79122  -0.78721  -0.78186  -0.78085  -0.77547
 Alpha  occ. eigenvalues --   -0.77188  -0.75266  -0.75046  -0.74091  -0.73270
 Alpha  occ. eigenvalues --   -0.71985  -0.71368  -0.71036  -0.70672  -0.69916
 Alpha  occ. eigenvalues --   -0.69812  -0.69060  -0.68816  -0.68043  -0.67613
 Alpha  occ. eigenvalues --   -0.67092  -0.67022  -0.66971  -0.66672  -0.66578
 Alpha  occ. eigenvalues --   -0.66322  -0.64729  -0.63427  -0.62360  -0.61931
 Alpha  occ. eigenvalues --   -0.61913  -0.61558  -0.61351  -0.61098  -0.60849
 Alpha  occ. eigenvalues --   -0.60543  -0.60504  -0.59677  -0.59621  -0.59247
 Alpha  occ. eigenvalues --   -0.58552  -0.58108  -0.57889  -0.57513  -0.57506
 Alpha  occ. eigenvalues --   -0.56888  -0.56828  -0.56375  -0.56301  -0.56002
 Alpha  occ. eigenvalues --   -0.55718  -0.55578  -0.55330  -0.55158  -0.55143
 Alpha  occ. eigenvalues --   -0.54796  -0.54633  -0.54403  -0.54332  -0.53921
 Alpha  occ. eigenvalues --   -0.53906  -0.53762  -0.53711  -0.53665  -0.52953
 Alpha  occ. eigenvalues --   -0.52860  -0.52746  -0.52706  -0.52354  -0.52257
 Alpha  occ. eigenvalues --   -0.52245  -0.52048  -0.51855  -0.51669  -0.51524
 Alpha  occ. eigenvalues --   -0.51323  -0.51299  -0.51024  -0.50880  -0.50865
 Alpha  occ. eigenvalues --   -0.50675  -0.50313  -0.50300  -0.50118  -0.50053
 Alpha  occ. eigenvalues --   -0.49780  -0.49662  -0.49534  -0.49385  -0.49138
 Alpha  occ. eigenvalues --   -0.49130  -0.49040  -0.48651  -0.48469  -0.48416
 Alpha  occ. eigenvalues --   -0.48392  -0.48140  -0.48113  -0.47872  -0.47837
 Alpha  occ. eigenvalues --   -0.47565  -0.47353  -0.47262  -0.47134  -0.47082
 Alpha  occ. eigenvalues --   -0.47047  -0.46695  -0.46656  -0.46138  -0.46126
 Alpha  occ. eigenvalues --   -0.45920  -0.45854  -0.45770  -0.45698  -0.45653
 Alpha  occ. eigenvalues --   -0.45348  -0.45305  -0.45213  -0.44935  -0.44792
 Alpha  occ. eigenvalues --   -0.44695  -0.44649  -0.44391  -0.44357  -0.44293
 Alpha  occ. eigenvalues --   -0.44141  -0.43879  -0.43474  -0.43464  -0.43364
 Alpha  occ. eigenvalues --   -0.42986  -0.42644  -0.42543  -0.42211  -0.42187
 Alpha  occ. eigenvalues --   -0.41969  -0.41857  -0.41652  -0.41551  -0.40785
 Alpha  occ. eigenvalues --   -0.40774  -0.40177  -0.40088  -0.39757  -0.39719
 Alpha  occ. eigenvalues --   -0.38956  -0.38802  -0.38590  -0.38494  -0.38341
 Alpha  occ. eigenvalues --   -0.38079  -0.37558  -0.37257  -0.36327  -0.36259
 Alpha  occ. eigenvalues --   -0.35976  -0.35405  -0.34709  -0.34046  -0.33171
 Alpha  occ. eigenvalues --   -0.33107  -0.32671  -0.32506  -0.32316  -0.32180
 Alpha  occ. eigenvalues --   -0.32114  -0.31883  -0.31444  -0.26665  -0.25509
 Alpha  occ. eigenvalues --   -0.23540  -0.22873
 Alpha virt. eigenvalues --   -0.07428  -0.07002  -0.00079   0.00653   0.02795
 Alpha virt. eigenvalues --    0.02931   0.04503   0.04771   0.05155   0.06676
 Alpha virt. eigenvalues --    0.06890   0.07522   0.07547   0.08140   0.08464

 Mulliken charges:
               1
     1  Mg   0.953648
     2  C   -0.018592
     3  C   -0.078233
     4  C   -0.102321
     5  C   -0.070858
     6  N   -0.331687
     7  C   -0.062205
     8  C    0.031437
     9  C   -0.153792
    10  C    0.038907
    11  C    0.036046
    12  C    0.038197
    13  C   -0.109400
    14  H    0.041184
    15  N   -0.434320
    16  C    0.181900
    17  C   -0.135730
    18  C   -0.120990
    19  C    0.236185
    20  C    0.063106
    21  C    0.024953
    22  O   -0.229521
    23  C    0.001972
    24  N   -0.396431
    25  C    0.068669
    26  C   -0.119402
    27  C   -0.096986
    28  C    0.094277
    29  C    0.022056
    30  C   -0.030772
    31  C   -0.043128
    32  N   -0.425043
    33  C    0.086136
    34  C   -0.233697
    35  C    0.018383
    36  C    0.142482
    37  C    0.107291
    38  C    0.094371
    39  O   -0.186750
    40  C   -0.073700
    41  C    0.259938
    42  O   -0.213058
    43  O   -0.378437
    44  C    0.124741
    45  H   -0.006341
    46  H   -0.019596
    47  H   -0.006030
    48  H    0.020821
    49  H    0.031384
    50  H    0.043474
    51  H    0.049308
    52  H    0.029175
    53  H    0.029804
    54  H    0.035363
    55  H    0.036463
    56  H    0.039851
    57  H    0.058579
    58  H    0.019612
    59  H    0.074569
    60  H    0.052406
    61  H    0.058093
    62  H    0.079047
    63  H    0.040421
    64  H    0.042237
    65  H    0.035961
    66  H    0.050074
    67  H    0.035439
    68  H    0.033049
    69  H    0.030055
    70  H    0.038333
    71  H    0.042329
    72  H    0.038875
    73  H    0.070424
    74  H    0.005471
    75  H    0.058211
    76  H    0.072724
    77  H    0.057063
    78  H    0.062284
    79  H    0.040244
    80  Mg   0.983857
    81  C   -0.026301
    82  C   -0.065007
    83  C   -0.072338
    84  C   -0.099339
    85  N   -0.335696
    86  C   -0.019379
    87  C   -0.046084
    88  C   -0.130679
    89  C    0.025658
    90  C    0.037390
    91  C    0.055308
    92  C   -0.144211
    93  H    0.038620
    94  N   -0.481564
    95  C    0.183404
    96  C   -0.191497
    97  C   -0.022665
    98  C    0.131663
    99  C    0.056737
   100  C    0.038527
   101  O   -0.281240
   102  C    0.024559
   103  N   -0.375161
   104  C    0.076458
   105  C   -0.094243
   106  C   -0.054984
   107  C    0.063479
   108  C    0.027636
   109  C   -0.032302
   110  C   -0.043673
   111  N   -0.452830
   112  C    0.130662
   113  C   -0.169545
   114  C   -0.056408
   115  C    0.215785
   116  C    0.092253
   117  C    0.091583
   118  O   -0.190129
   119  C   -0.123778
   120  C    0.263208
   121  O   -0.290794
   122  O   -0.356969
   123  C    0.146659
   124  H   -0.008825
   125  H    0.021493
   126  H   -0.013608
   127  H    0.038488
   128  H    0.026935
   129  H    0.047500
   130  H    0.032360
   131  H    0.052366
   132  H    0.035967
   133  H    0.046944
   134  H    0.065041
   135  H    0.052691
   136  H    0.057308
   137  H    0.043512
   138  H    0.035717
   139  H    0.042677
   140  H    0.066540
   141  H    0.043774
   142  H    0.047264
   143  H    0.036132
   144  H    0.044598
   145  H    0.039201
   146  H    0.036169
   147  H    0.035178
   148  H    0.040113
   149  H    0.056411
   150  H    0.040365
   151  H    0.028937
   152  H    0.060667
   153  H    0.053744
   154  H    0.024421
   155  H    0.056535
   156  H    0.066031
   157  H    0.066953
   158  H    0.053771
 Sum of Mulliken charges =  -0.00000

 Dipole moment (field-independent basis, Debye):
    X=              4.4175    Y=              2.7582    Z=              0.3226  Tot=              5.2178
 Quadrupole moment (field-independent basis, Debye-Ang):
   XX=           -523.7081   YY=           -546.5260   ZZ=           -461.8580
   XY=            -37.3273   XZ=             21.1215   YZ=             -6.0982

 Normal termination of Gaussian 16 at Mon Sep 20 16:05:15 2021.
