 Gaussian 16, Revision A.03,
 Gaussian 16:  ES64L-G16RevA.03 25-Dec-2016

 --------------------------------
 #p wB97XD/Def2SVP td=(nstates=5)
 --------------------------------

 --------------------------------
 TDDFT excited states in gaussian
 --------------------------------
 Symbolic Z-matrix:
 Charge =  0 Multiplicity = 1

                         Standard orientation:
 ---------------------------------------------------------------------
 Center     Atomic      Atomic             Coordinates (Angstroms)
 Number     Number       Type             X           Y           Z
 ---------------------------------------------------------------------
      1         12           0       26.835717   -0.713811    0.251862
      2          6           0       27.454924    2.306824   -1.175670
      3          6           0       25.943215    0.660230    3.288064
      4          6           0       26.469523   -3.869154    1.529783
      5          6           0       28.165622   -2.285606   -2.723318
      6          7           0       26.921676    1.236442    1.008416
      7          6           0       26.960698    2.393546    0.160198
      8          6           0       26.498023    3.594443    0.883744
      9          6           0       26.434857    3.052445    2.381894
     10          6           0       26.433004    1.544112    2.270012
     11          6           0       27.664821    3.556377    3.290425
     12          6           0       25.229770    4.272776    0.280440
     13          6           0       25.293934    5.762204    0.171096
     14          1           0       25.973861    6.518917    1.379388
     15          7           0       26.211237   -1.495892    2.130942
     16          6           0       25.917581   -0.720749    3.213201
     17          6           0       25.531006   -1.591018    4.270286
     18          6           0       25.579560   -2.954970    3.781922
     19          6           0       26.043329   -2.847400    2.358121
     20          6           0       25.230891   -1.072915    5.693843
     21          6           0       25.235184   -4.275312    4.397102
     22          8           0       25.409452   -5.407972    3.933666
     23          6           0       24.513178   -4.193741    5.795129
     24          7           0       27.362490   -2.842464   -0.457859
     25          6           0       27.014343   -3.912202    0.212935
     26          6           0       27.125653   -5.185855   -0.622561
     27          6           0       27.669985   -4.657082   -1.980316
     28          6           0       27.761843   -3.156003   -1.713233
     29          6           0       28.080328   -6.308366    0.032756
     30          6           0       26.621697   -5.011752   -3.125096
     31          6           0       25.221933   -4.349931   -3.159300
     32          7           0       27.800917   -0.130687   -1.525653
     33          6           0       28.213115   -0.870753   -2.617719
     34          6           0       28.570958    0.103439   -3.668760
     35          6           0       28.302940    1.361522   -3.219391
     36          6           0       27.826460    1.152362   -1.874448
     37          6           0       29.266383   -0.254541   -4.936838
     38          6           0       28.314463    2.793493   -3.517437
     39          8           0       28.665868    3.404196   -4.512922
     40          6           0       27.764444    3.442661   -2.172292
     41          6           0       28.845830    4.285153   -1.622315
     42          8           0       30.008318    3.948906   -1.336780
     43          8           0       28.271525    5.534967   -1.508340
     44          6           0       29.100127    6.522057   -0.803842
     45          1           0       25.603586    1.057014    4.246903
     46          1           0       26.218781   -4.841134    1.961230
     47          1           0       28.496501   -2.742073   -3.657856
     48          1           0       27.314740    4.308263    0.769100
     49          1           0       25.490873    3.380683    2.815866
     50          1           0       28.223138    4.382752    2.850552
     51          1           0       28.390728    2.743382    3.289385
     52          1           0       27.207572    3.715278    4.266157
     53          1           0       24.359989    4.034407    0.892684
     54          1           0       25.176948    3.833261   -0.715520
     55          1           0       24.310820    6.230636    0.146308
     56          1           0       25.736141    6.252666   -0.696193
     57          1           0       24.263114   -0.590217    5.829402
     58          1           0       26.082033   -0.419702    5.885401
     59          1           0       25.138772   -1.873668    6.427293
     60          1           0       25.241240   -3.900959    6.551678
     61          1           0       23.939103   -5.110264    5.929994
     62          1           0       23.688255   -3.481406    5.819666
     63          1           0       26.124364   -5.589518   -0.770922
     64          1           0       28.628661   -5.090543   -2.265337
     65          1           0       27.411799   -7.082474    0.411192
     66          1           0       28.638447   -5.885316    0.868627
     67          1           0       28.790897   -6.845969   -0.593780
     68          1           0       26.431293   -6.076054   -3.262379
     69          1           0       27.136388   -4.618095   -4.002187
     70          1           0       25.260273   -3.768422   -4.080533
     71          1           0       25.018249   -3.750038   -2.273201
     72          1           0       24.397865   -5.061342   -3.212695
     73          1           0       28.873513    0.481686   -5.637392
     74          1           0       29.064030   -1.276415   -5.258202
     75          1           0       30.301820    0.068935   -4.838716
     76          1           0       26.988079    4.081126   -2.593031
     77          1           0       28.520739    7.436816   -0.932159
     78          1           0       30.014998    6.613629   -1.389277
     79          1           0       29.403464    6.251519    0.207752
     80         12           0      -27.566844   -0.282219   -0.359080
     81          6           0      -25.633157    2.594639   -0.124533
     82          6           0      -28.819783    0.444122    2.751501
     83          6           0      -29.296073   -3.267951   -0.459429
     84          6           0      -25.854819   -1.254886   -3.235444
     85          7           0      -27.317063    1.390862    1.077452
     86          6           0      -26.577187    2.503770    0.935149
     87          6           0      -26.789804    3.570202    2.034761
     88          6           0      -27.649369    2.748928    3.088574
     89          6           0      -27.940440    1.388116    2.291860
     90          6           0      -26.818943    2.586522    4.411444
     91          6           0      -27.568754    4.807113    1.349532
     92          6           0      -26.919720    6.213283    1.510898
     93          1           0      -25.912938    6.319601    2.712908
     94          7           0      -28.819818   -1.342834    0.953093
     95          6           0      -29.282155   -0.807187    2.172940
     96          6           0      -30.337220   -1.656946    2.682520
     97          6           0      -30.456753   -2.748092    1.812559
     98          6           0      -29.549277   -2.456753    0.641585
     99          6           0      -30.890152   -1.473906    4.103062
    100          6           0      -31.365405   -3.996791    1.964203
    101          8           0      -31.433384   -4.936855    1.150407
    102          6           0      -32.318139   -4.058629    3.170482
    103          7           0      -27.480070   -2.026785   -1.649018
    104          6           0      -28.385606   -3.116427   -1.469266
    105          6           0      -28.049086   -4.260536   -2.448340
    106          6           0      -27.138455   -3.479526   -3.506524
    107          6           0      -26.834846   -2.145586   -2.775199
    108          6           0      -27.420596   -5.413853   -1.683753
    109          6           0      -27.921980   -3.207494   -4.859350
    110          6           0      -29.326323   -2.521700   -4.969325
    111          7           0      -26.021750    0.423687   -1.428411
    112          6           0      -25.396330   -0.068360   -2.578136
    113          6           0      -24.372498    0.842068   -2.976917
    114          6           0      -24.448530    1.904640   -2.094632
    115          6           0      -25.395618    1.576939   -1.093144
    116          6           0      -23.366166    0.663718   -4.095332
    117          6           0      -23.894315    3.163428   -1.788157
    118          8           0      -22.964297    3.687373   -2.313546
    119          6           0      -24.567341    3.603147   -0.422458
    120          6           0      -23.468300    3.591879    0.603781
    121          8           0      -23.346588    2.739267    1.458377
    122          8           0      -22.678947    4.644024    0.356936
    123          6           0      -21.370832    4.516673    0.951278
    124          1           0      -29.285258    0.706675    3.703537
    125          1           0      -29.659068   -4.291831   -0.354410
    126          1           0      -25.301006   -1.550836   -4.129428
    127          1           0      -25.876488    3.974741    2.470577
    128          1           0      -28.619276    3.185271    3.328400
    129          1           0      -26.853422    1.593524    4.860254
    130          1           0      -27.332721    3.331251    5.018659
    131          1           0      -25.820738    2.970933    4.203241
    132          1           0      -28.604596    4.757635    1.684560
    133          1           0      -27.622846    4.586470    0.283186
    134          1           0      -27.804219    6.830280    1.665502
    135          1           0      -26.395593    6.582574    0.629909
    136          1           0      -30.748557   -2.421116    4.624105
    137          1           0      -31.968276   -1.315801    4.052471
    138          1           0      -30.385296   -0.641969    4.593106
    139          1           0      -31.701006   -4.255023    4.048200
    140          1           0      -32.913820   -4.959694    3.025341
    141          1           0      -33.014383   -3.221395    3.128236
    142          1           0      -28.995490   -4.487433   -2.940060
    143          1           0      -26.297990   -4.105763   -3.803580
    144          1           0      -27.754979   -5.473770   -0.647911
    145          1           0      -26.334383   -5.326000   -1.682173
    146          1           0      -27.716658   -6.370012   -2.114781
    147          1           0      -27.965188   -4.147910   -5.408850
    148          1           0      -27.275796   -2.488257   -5.362649
    149          1           0      -30.090340   -3.294145   -4.880387
    150          1           0      -29.349465   -2.072504   -5.962885
    151          1           0      -29.499511   -1.671823   -4.308388
    152          1           0      -23.845437    0.553136   -5.068213
    153          1           0      -22.855196   -0.263598   -3.837107
    154          1           0      -22.728538    1.524976   -4.299630
    155          1           0      -25.009804    4.598134   -0.370944
    156          1           0      -20.579439    5.011218    0.388542
    157          1           0      -20.999147    3.560056    1.318207
    158          1           0      -21.283490    5.014709    1.917146
 ---------------------------------------------------------------------

 SCF Done:  E(RwB97XD) =  -4070.60982001     A.U. after   19 cycles

 Excitation energies and oscillator strengths:

 Excited State   1:      Singlet-A      1.6460 eV  753.24 nm  f=0.3709  <S**2>=0.000
     309 -> 315        0.19180
     312 -> 314        0.68163
     309 <- 315        0.11820
 This state for optimization and/or second-order correction.
 Total Energy, E(TD-HF/TD-DFT) =  -4070.54933020
 Copying the excited state density for this state as the 1-particle RhoCI density.

 Excited State   2:      Singlet-A      1.6513 eV  750.81 nm  f=0.3971  <S**2>=0.000
     310 -> 316        0.18082
     311 -> 313        0.68421
     310 <- 316        0.11556

 Excited State   3:      Singlet-A      2.1706 eV  571.20 nm  f=0.1244  <S**2>=0.000
     310 -> 313        0.64462
     311 -> 316       -0.27783

 Excited State   4:      Singlet-A      2.2139 eV  560.03 nm  f=0.0446  <S**2>=0.000
     309 -> 314        0.60815
     312 -> 315       -0.34945

 Excited State   5:      Singlet-A      3.3630 eV  368.67 nm  f=0.3734  <S**2>=0.000
     304 -> 314        0.18487
     307 -> 314        0.37690
     309 -> 314        0.24781
     312 -> 315        0.50123

 The electronic state is 1-A.
 Alpha  occ. eigenvalues --  -46.95614 -46.94425 -19.31409 -19.30878 -19.25214
 Alpha  occ. eigenvalues --  -19.25032 -19.24599 -19.24591 -19.24457 -19.23588
 Alpha  occ. eigenvalues --  -14.46912 -14.46846 -14.46794 -14.46031 -14.44127
 Alpha  occ. eigenvalues --  -14.44127 -14.44081 -14.43712 -10.43382 -10.43181
 Alpha  occ. eigenvalues --  -10.39748 -10.39435 -10.39056 -10.38876 -10.36080
 Alpha  occ. eigenvalues --  -10.35828 -10.35679 -10.35588 -10.35121 -10.34904
 Alpha  occ. eigenvalues --  -10.34702 -10.34441 -10.34339 -10.34288 -10.34154
 Alpha  occ. eigenvalues --  -10.33980 -10.33897 -10.33831 -10.33623 -10.33612
 Alpha  occ. eigenvalues --  -10.33576 -10.33462 -10.33067 -10.32974 -10.32794
 Alpha  occ. eigenvalues --  -10.32626 -10.32463 -10.32453 -10.32406 -10.32357
 Alpha  occ. eigenvalues --  -10.32215 -10.32185 -10.32022 -10.31960 -10.31919
 Alpha  occ. eigenvalues --  -10.31818 -10.31765 -10.31717 -10.31665 -10.31640
 Alpha  occ. eigenvalues --  -10.31546 -10.31505 -10.31439 -10.31417 -10.31411
 Alpha  occ. eigenvalues --  -10.31085 -10.31047 -10.30789 -10.30757 -10.30581
 Alpha  occ. eigenvalues --  -10.30492 -10.30479 -10.30448 -10.30355 -10.30208
 Alpha  occ. eigenvalues --  -10.29768 -10.29731 -10.29667 -10.29624 -10.29433
 Alpha  occ. eigenvalues --  -10.29432 -10.29317 -10.29188 -10.29090 -10.28791
 Alpha  occ. eigenvalues --  -10.28751  -3.21471  -3.20458  -1.95059  -1.94582
 Alpha  occ. eigenvalues --   -1.94440  -1.94051  -1.93560  -1.93450  -1.20378
 Alpha  occ. eigenvalues --   -1.18137  -1.14316  -1.12433  -1.11878  -1.11295
 Alpha  occ. eigenvalues --   -1.10490  -1.09663  -1.07141  -1.06195  -1.05793
 Alpha  occ. eigenvalues --   -1.05339  -1.04966  -1.04752  -1.03744  -1.03146
 Alpha  occ. eigenvalues --   -0.94834  -0.94344  -0.91047  -0.90678  -0.90441
 Alpha  occ. eigenvalues --   -0.89997  -0.89913  -0.89636  -0.89214  -0.89033
 Alpha  occ. eigenvalues --   -0.88858  -0.88438  -0.88243  -0.87930  -0.86592
 Alpha  occ. eigenvalues --   -0.85893  -0.85290  -0.85271  -0.84305  -0.84162
 Alpha  occ. eigenvalues --   -0.83485  -0.83192  -0.83169  -0.82812  -0.81942
 Alpha  occ. eigenvalues --   -0.81879  -0.80061  -0.79649  -0.79295  -0.79145
 Alpha  occ. eigenvalues --   -0.79026  -0.78668  -0.77794  -0.77740  -0.76928
 Alpha  occ. eigenvalues --   -0.76895  -0.74974  -0.74456  -0.74182  -0.73151
 Alpha  occ. eigenvalues --   -0.71803  -0.71232  -0.70830  -0.70643  -0.70335
 Alpha  occ. eigenvalues --   -0.69944  -0.69460  -0.68334  -0.67821  -0.67269
 Alpha  occ. eigenvalues --   -0.66960  -0.66686  -0.66554  -0.66466  -0.66381
 Alpha  occ. eigenvalues --   -0.65876  -0.64520  -0.64379  -0.62337  -0.61995
 Alpha  occ. eigenvalues --   -0.61424  -0.61397  -0.60921  -0.60915  -0.60782
 Alpha  occ. eigenvalues --   -0.60397  -0.60006  -0.59946  -0.59497  -0.59249
 Alpha  occ. eigenvalues --   -0.58219  -0.57919  -0.57671  -0.57488  -0.56956
 Alpha  occ. eigenvalues --   -0.56918  -0.56916  -0.56380  -0.56375  -0.55902
 Alpha  occ. eigenvalues --   -0.55471  -0.55324  -0.55164  -0.55133  -0.55070
 Alpha  occ. eigenvalues --   -0.54446  -0.54319  -0.54211  -0.54109  -0.54098
 Alpha  occ. eigenvalues --   -0.53921  -0.53906  -0.53836  -0.53690  -0.53465
 Alpha  occ. eigenvalues --   -0.53000  -0.52875  -0.52852  -0.52590  -0.51858
 Alpha  occ. eigenvalues --   -0.51838  -0.51772  -0.51584  -0.51464  -0.51238
 Alpha  occ. eigenvalues --   -0.51070  -0.50905  -0.50748  -0.50504  -0.50492
 Alpha  occ. eigenvalues --   -0.50479  -0.50410  -0.50231  -0.50096  -0.49859
 Alpha  occ. eigenvalues --   -0.49670  -0.49630  -0.49404  -0.49323  -0.49188
 Alpha  occ. eigenvalues --   -0.49100  -0.48816  -0.48716  -0.48590  -0.48192
 Alpha  occ. eigenvalues --   -0.48138  -0.48099  -0.47785  -0.47759  -0.47524
 Alpha  occ. eigenvalues --   -0.47494  -0.47151  -0.47128  -0.46905  -0.46714
 Alpha  occ. eigenvalues --   -0.46531  -0.46501  -0.46448  -0.46259  -0.45867
 Alpha  occ. eigenvalues --   -0.45682  -0.45583  -0.45431  -0.45379  -0.45181
 Alpha  occ. eigenvalues --   -0.45004  -0.44954  -0.44919  -0.44888  -0.44742
 Alpha  occ. eigenvalues --   -0.44580  -0.44315  -0.44296  -0.44078  -0.44023
 Alpha  occ. eigenvalues --   -0.43884  -0.43807  -0.43714  -0.43621  -0.43455
 Alpha  occ. eigenvalues --   -0.43274  -0.42703  -0.42702  -0.42610  -0.42417
 Alpha  occ. eigenvalues --   -0.42192  -0.41699  -0.41459  -0.41414  -0.41052
 Alpha  occ. eigenvalues --   -0.39859  -0.39673  -0.39536  -0.39401  -0.39112
 Alpha  occ. eigenvalues --   -0.39109  -0.38988  -0.38727  -0.38450  -0.38365
 Alpha  occ. eigenvalues --   -0.38283  -0.38162  -0.36766  -0.36638  -0.36214
 Alpha  occ. eigenvalues --   -0.36092  -0.35728  -0.34940  -0.33817  -0.33435
 Alpha  occ. eigenvalues --   -0.33137  -0.33062  -0.32979  -0.32536  -0.32492
 Alpha  occ. eigenvalues --   -0.32316  -0.32100  -0.31701  -0.26362  -0.25694
 Alpha  occ. eigenvalues --   -0.22788  -0.22774
 Alpha virt. eigenvalues --   -0.06908  -0.06844  -0.00476   0.00599   0.01793
 Alpha virt. eigenvalues --    0.02606   0.04214   0.04593   0.05045   0.05612
 Alpha virt. eigenvalues --    0.06926   0.07101   0.07434   0.07793   0.08314

 Mulliken charges:
               1
     1  Mg   0.932648
     2  C   -0.005065
     3  C   -0.105941
     4  C   -0.037122
     5  C   -0.077741
     6  N   -0.442438
     7  C   -0.001178
     8  C   -0.039715
     9  C   -0.135986
    10  C    0.130673
    11  C    0.033355
    12  C    0.069938
    13  C   -0.138382
    14  H    0.000478
    15  N   -0.460725
    16  C    0.168917
    17  C   -0.150560
    18  C   -0.078108
    19  C    0.134225
    20  C    0.056737
    21  C    0.061908
    22  O   -0.237557
    23  C   -0.054837
    24  N   -0.260538
    25  C    0.018005
    26  C   -0.075272
    27  C   -0.047648
    28  C    0.027301
    29  C   -0.001711
    30  C   -0.063214
    31  C   -0.056303
    32  N   -0.406728
    33  C    0.141304
    34  C   -0.240978
    35  C   -0.006214
    36  C    0.120014
    37  C    0.082678
    38  C    0.139156
    39  O   -0.194703
    40  C   -0.109404
    41  C    0.275567
    42  O   -0.259082
    43  O   -0.369937
    44  C    0.139925
    45  H    0.001514
    46  H    0.024244
    47  H    0.003048
    48  H    0.030742
    49  H    0.027179
    50  H    0.043609
    51  H    0.045668
    52  H    0.050280
    53  H    0.039589
    54  H    0.041761
    55  H    0.043906
    56  H    0.061553
    57  H    0.055348
    58  H    0.062187
    59  H    0.016785
    60  H    0.079300
    61  H    0.051777
    62  H    0.042004
    63  H    0.050155
    64  H    0.039072
    65  H    0.042696
    66  H    0.048638
    67  H    0.040735
    68  H    0.041663
    69  H    0.020585
    70  H    0.044561
    71  H    0.039786
    72  H    0.038692
    73  H    0.047126
    74  H    0.040293
    75  H    0.066245
    76  H    0.068446
    77  H    0.059492
    78  H    0.056222
    79  H    0.059355
    80  Mg   0.963974
    81  C   -0.022251
    82  C   -0.067068
    83  C   -0.064491
    84  C   -0.108275
    85  N   -0.333423
    86  C    0.014067
    87  C   -0.076093
    88  C   -0.120526
    89  C    0.066890
    90  C    0.027390
    91  C   -0.000204
    92  C   -0.127161
    93  H    0.034978
    94  N   -0.460826
    95  C    0.133423
    96  C   -0.174113
    97  C   -0.090040
    98  C    0.138089
    99  C    0.086206
   100  C    0.051200
   101  O   -0.252406
   102  C   -0.016193
   103  N   -0.338666
   104  C    0.022128
   105  C   -0.061353
   106  C   -0.072376
   107  C    0.097002
   108  C    0.042001
   109  C   -0.059404
   110  C   -0.054441
   111  N   -0.488446
   112  C    0.148395
   113  C   -0.184040
   114  C   -0.008134
   115  C    0.148066
   116  C    0.079477
   117  C    0.095171
   118  O   -0.162864
   119  C   -0.097338
   120  C    0.245572
   121  O   -0.236999
   122  O   -0.309757
   123  C    0.140949
   124  H   -0.012939
   125  H    0.030860
   126  H    0.003270
   127  H    0.039831
   128  H    0.038838
   129  H    0.052158
   130  H    0.032880
   131  H    0.049453
   132  H    0.033241
   133  H    0.042331
   134  H    0.057036
   135  H    0.070046
   136  H    0.044650
   137  H    0.039412
   138  H    0.041532
   139  H    0.061784
   140  H    0.044460
   141  H    0.063971
   142  H    0.035110
   143  H    0.030270
   144  H    0.046250
   145  H    0.035055
   146  H    0.037268
   147  H    0.038907
   148  H    0.021491
   149  H    0.047726
   150  H    0.037261
   151  H    0.043650
   152  H    0.037581
   153  H    0.056836
   154  H    0.057380
   155  H    0.056441
   156  H    0.058003
   157  H    0.054703
   158  H    0.025162
 Sum of Mulliken charges =  -0.00000

 Dipole moment (field-independent basis, Debye):
    X=             -4.8271    Y=              2.6360    Z=              3.2865  Tot=              6.4070
 Quadrupole moment (field-independent basis, Debye-Ang):
   XX=           -656.7513   YY=           -506.2105   ZZ=           -486.1669
   XY=            -66.5264   XZ=             52.4751   YZ=             50.0407

 Normal termination of Gaussian 16 at Sat Sep 18 11:59:00 2021.
