 Gaussian 16, Revision A.03,
 Gaussian 16:  ES64L-G16RevA.03 25-Dec-2016

 --------------------------------
 #p wB97XD/Def2SVP td=(nstates=5)
 --------------------------------

 --------------------------------
 TDDFT excited states in gaussian
 --------------------------------
 Symbolic Z-matrix:
 Charge =  0 Multiplicity = 1

                         Standard orientation:
 ---------------------------------------------------------------------
 Center     Atomic      Atomic             Coordinates (Angstroms)
 Number     Number       Type             X           Y           Z
 ---------------------------------------------------------------------
      1         12           0       -9.600650   -0.963542    0.465948
      2          6           0       -9.494340    2.595543    0.048118
      3          6           0       -7.953025   -0.539424    3.465446
      4          6           0       -9.162072   -4.200974    0.509381
      5          6           0      -11.054761   -1.124420   -2.675726
      6          7           0       -8.541611    0.866143    1.522347
      7          6           0       -8.780223    2.168248    1.174923
      8          6           0       -8.347395    3.101651    2.337170
      9          6           0       -7.787322    2.098440    3.430421
     10          6           0       -8.070175    0.685311    2.801911
     11          6           0       -6.258349    2.221177    3.835849
     12          6           0       -9.471592    4.002771    2.914209
     13          6           0       -9.150400    5.431346    3.175103
     14          1           0       -7.679673    5.980842    3.317249
     15          7           0       -8.655707   -2.264455    1.818800
     16          6           0       -8.143969   -1.940544    3.075065
     17          6           0       -7.602127   -3.163578    3.697714
     18          6           0       -8.066768   -4.256506    2.869683
     19          6           0       -8.649690   -3.604684    1.673938
     20          6           0       -6.814538   -3.230841    4.971054
     21          6           0       -7.983760   -5.788228    3.069129
     22          8           0       -8.674919   -6.628659    2.455723
     23          6           0       -7.150703   -6.284808    4.181557
     24          7           0       -9.987579   -2.377345   -0.890005
     25          6           0       -9.632263   -3.683101   -0.632117
     26          6           0      -10.240042   -4.648724   -1.686921
     27          6           0      -11.167918   -3.647095   -2.507092
     28          6           0      -10.732576   -2.285940   -1.992637
     29          6           0       -9.248776   -5.482480   -2.597146
     30          6           0      -12.671384   -3.827195   -2.369266
     31          6           0      -13.411855   -4.262513   -3.651167
     32          7           0      -10.346023    0.418302   -0.949602
     33          6           0      -10.883609    0.196007   -2.195284
     34          6           0      -11.133000    1.476505   -2.870117
     35          6           0      -10.649796    2.421905   -1.982927
     36          6           0      -10.181207    1.742469   -0.836328
     37          6           0      -11.695356    1.731665   -4.229514
     38          6           0      -10.517016    3.825854   -1.828007
     39          8           0      -10.924055    4.798352   -2.525210
     40          6           0       -9.788315    4.001712   -0.563556
     41          6           0       -8.578853    4.870914   -0.778246
     42          8           0       -7.602569    4.553852   -1.367291
     43          8           0       -8.737267    6.033306   -0.145618
     44          6           0       -7.873300    7.121587   -0.454989
     45          1           0       -7.422744   -0.497239    4.419281
     46          1           0       -9.127069   -5.288342    0.406320
     47          1           0      -11.440002   -1.189559   -3.694633
     48          1           0       -7.558299    3.735108    1.930314
     49          1           0       -8.373700    2.181831    4.344973
     50          1           0       -5.738972    3.093262    3.439577
     51          1           0       -5.747479    1.366895    3.389263
     52          1           0       -6.145732    2.163887    4.918927
     53          1           0       -9.842699    3.652162    3.877962
     54          1           0      -10.340290    4.064152    2.259328
     55          1           0       -9.563075    5.730203    4.139159
     56          1           0       -9.634385    6.017709    2.394544
     57          1           0       -5.875313   -3.752326    4.787923
     58          1           0       -7.411893   -3.818685    5.667987
     59          1           0       -6.752653   -2.256436    5.456725
     60          1           0       -6.120617   -5.995314    3.973437
     61          1           0       -7.196641   -7.371332    4.111765
     62          1           0       -7.561789   -6.015269    5.154038
     63          1           0      -10.881702   -5.325476   -1.121766
     64          1           0      -10.913109   -3.775838   -3.558995
     65          1           0       -8.216625   -5.255587   -2.332561
     66          1           0       -9.457187   -5.380570   -3.662862
     67          1           0       -9.454191   -6.536694   -2.410615
     68          1           0      -13.218763   -3.016532   -1.888117
     69          1           0      -12.822655   -4.653203   -1.675133
     70          1           0      -14.349835   -3.755500   -3.876628
     71          1           0      -13.800068   -5.263190   -3.459438
     72          1           0      -12.828620   -4.212575   -4.569656
     73          1           0      -12.227768    0.869325   -4.631796
     74          1           0      -10.887344    1.844125   -4.952259
     75          1           0      -12.230951    2.678923   -4.167976
     76          1           0      -10.484180    4.497459    0.112770
     77          1           0       -8.187621    7.489604   -1.432668
     78          1           0       -6.850604    6.776563   -0.607871
     79          1           0       -7.995863    7.937246    0.258092
     80         12           0        9.498652   -0.554238   -0.186874
     81          6           0        7.466905    2.213672   -0.307287
     82          6           0       12.006996    1.483609    1.301418
     83          6           0       11.791965   -3.020347   -0.484679
     84          6           0        7.259299   -2.382040   -1.888367
     85          7           0        9.703215    1.614667    0.421527
     86          6           0        8.710196    2.540123    0.243188
     87          6           0        9.098767    3.888424    0.853956
     88          6           0       10.644307    3.635529    1.172879
     89          6           0       10.809130    2.160013    0.954138
     90          6           0       11.628920    4.550756    0.356426
     91          6           0        8.261617    4.265729    2.160325
     92          6           0        7.711744    5.650657    2.403231
     93          1           0        8.609306    6.816704    2.185799
     94          7           0       11.619796   -0.792983    0.378571
     95          6           0       12.373002    0.057845    1.109641
     96          6           0       13.605550   -0.540669    1.499587
     97          6           0       13.562760   -1.886220    1.015539
     98          6           0       12.307912   -1.907808    0.206078
     99          6           0       14.608745    0.294985    2.227118
    100          6           0       14.638758   -2.956503    1.083761
    101          8           0       14.599329   -3.979109    0.392529
    102          6           0       15.830140   -2.785625    2.009848
    103          7           0        9.586242   -2.419581   -1.210988
    104          6           0       10.605650   -3.306563   -1.065763
    105          6           0       10.232446   -4.661078   -1.665796
    106          6           0        8.693476   -4.482863   -1.954907
    107          6           0        8.485565   -3.009784   -1.663410
    108          6           0       11.047120   -5.275689   -2.842127
    109          6           0        7.705967   -5.461639   -1.192520
    110          6           0        7.092022   -5.054446    0.130208
    111          7           0        7.783469   -0.180069   -1.035812
    112          6           0        6.856365   -1.023358   -1.593682
    113          6           0        5.679393   -0.361203   -2.024396
    114          6           0        5.844474    0.915516   -1.496565
    115          6           0        7.124984    0.966300   -0.888037
    116          6           0        4.426727   -0.829141   -2.753644
    117          6           0        5.281842    2.187173   -1.360672
    118          8           0        4.224783    2.594073   -1.806552
    119          6           0        6.320010    3.170836   -0.577507
    120          6           0        6.642924    4.278959   -1.467809
    121          8           0        7.256137    4.193098   -2.550206
    122          8           0        6.160411    5.475400   -1.039367
    123          6           0        6.132703    6.604642   -1.975743
    124          1           0       12.661557    2.181024    1.827608
    125          1           0       12.398297   -3.917453   -0.344666
    126          1           0        6.393880   -3.013252   -2.097198
    127          1           0        8.873353    4.671302    0.128682
    128          1           0       10.882642    3.884666    2.207052
    129          1           0       12.212352    5.128613    1.072397
    130          1           0       10.982758    5.114585   -0.316606
    131          1           0       12.410428    4.022942   -0.191004
    132          1           0        8.980829    4.029134    2.944650
    133          1           0        7.504582    3.510835    2.370133
    134          1           0        7.233597    5.695046    3.381727
    135          1           0        6.954220    5.798273    1.634359
    136          1           0       14.957094   -0.337764    3.042625
    137          1           0       14.130377    1.157875    2.691126
    138          1           0       15.455889    0.652623    1.640853
    139          1           0       15.574220   -2.394792    2.995104
    140          1           0       16.641729   -2.290583    1.474835
    141          1           0       16.170708   -3.805247    2.192609
    142          1           0       10.463375   -5.356534   -0.858595
    143          1           0        8.421938   -4.753379   -2.974603
    144          1           0       10.458891   -5.256015   -3.759457
    145          1           0       11.238882   -6.313138   -2.568725
    146          1           0       11.957244   -4.680928   -2.911604
    147          1           0        8.257863   -6.385774   -1.026275
    148          1           0        6.854393   -5.695935   -1.831690
    149          1           0        7.247935   -5.810780    0.899823
    150          1           0        6.022567   -4.848190    0.070257
    151          1           0        7.605630   -4.132019    0.401261
    152          1           0        4.497378   -1.903337   -2.928806
    153          1           0        4.333017   -0.280492   -3.691162
    154          1           0        3.561584   -0.609397   -2.128703
    155          1           0        5.672812    3.530940    0.222744
    156          1           0        5.395881    7.368970   -1.728383
    157          1           0        6.091781    6.339099   -3.031685
    158          1           0        7.056259    7.149803   -1.780337
 ---------------------------------------------------------------------

 SCF Done:  E(RwB97XD) =  -4070.62721091     A.U. after   19 cycles

 Excitation energies and oscillator strengths:

 Excited State   1:      Singlet-A      1.6602 eV  746.82 nm  f=0.4533  <S**2>=0.000
     310 -> 316        0.18379
     311 -> 313        0.68322
     310 <- 316        0.11618
 This state for optimization and/or second-order correction.
 Total Energy, E(TD-HF/TD-DFT) =  -4070.56620104
 Copying the excited state density for this state as the 1-particle RhoCI density.

 Excited State   2:      Singlet-A      1.6716 eV  741.71 nm  f=0.3826  <S**2>=0.000
     309 -> 315       -0.18077
     312 -> 314        0.68348
     309 <- 315       -0.11387

 Excited State   3:      Singlet-A      2.1345 eV  580.86 nm  f=0.1477  <S**2>=0.000
     310 -> 313        0.65848
     311 -> 316       -0.24108

 Excited State   4:      Singlet-A      2.1577 eV  574.62 nm  f=0.1416  <S**2>=0.000
     309 -> 314        0.64593
     312 -> 315        0.26878

 Excited State   5:      Singlet-A      3.4923 eV  355.03 nm  f=0.0000  <S**2>=0.000
     312 -> 313        0.70679

 The electronic state is 1-A.
 Alpha  occ. eigenvalues --  -46.95410 -46.95185 -19.30233 -19.30144 -19.24506
 Alpha  occ. eigenvalues --  -19.24119 -19.23900 -19.23599 -19.23476 -19.23431
 Alpha  occ. eigenvalues --  -14.46679 -14.46589 -14.46159 -14.46087 -14.44269
 Alpha  occ. eigenvalues --  -14.44129 -14.44051 -14.44041 -10.42811 -10.42732
 Alpha  occ. eigenvalues --  -10.39330 -10.38828 -10.38722 -10.38484 -10.35714
 Alpha  occ. eigenvalues --  -10.35309 -10.35145 -10.35052 -10.35021 -10.34868
 Alpha  occ. eigenvalues --  -10.34862 -10.34619 -10.34373 -10.34111 -10.34087
 Alpha  occ. eigenvalues --  -10.34081 -10.34055 -10.33854 -10.33598 -10.33411
 Alpha  occ. eigenvalues --  -10.33320 -10.32958 -10.32933 -10.32748 -10.32516
 Alpha  occ. eigenvalues --  -10.32500 -10.32489 -10.32482 -10.32294 -10.32275
 Alpha  occ. eigenvalues --  -10.32236 -10.32222 -10.32096 -10.32076 -10.32056
 Alpha  occ. eigenvalues --  -10.32019 -10.31747 -10.31564 -10.31542 -10.31515
 Alpha  occ. eigenvalues --  -10.31511 -10.31323 -10.31198 -10.31021 -10.30835
 Alpha  occ. eigenvalues --  -10.30824 -10.30793 -10.30728 -10.30655 -10.30616
 Alpha  occ. eigenvalues --  -10.30353 -10.30219 -10.30122 -10.30104 -10.30039
 Alpha  occ. eigenvalues --  -10.29901 -10.29687 -10.29674 -10.29534 -10.29370
 Alpha  occ. eigenvalues --  -10.29252 -10.29234 -10.29207 -10.29099 -10.28813
 Alpha  occ. eigenvalues --  -10.28600  -3.21462  -3.21206  -1.95034  -1.94777
 Alpha  occ. eigenvalues --   -1.94547  -1.94477  -1.94341  -1.94174  -1.20730
 Alpha  occ. eigenvalues --   -1.17980  -1.12071  -1.11829  -1.11665  -1.10415
 Alpha  occ. eigenvalues --   -1.10308  -1.07976  -1.07364  -1.06851  -1.06660
 Alpha  occ. eigenvalues --   -1.06129  -1.05747  -1.05474  -1.04446  -1.03709
 Alpha  occ. eigenvalues --   -0.95572  -0.94549  -0.90978  -0.90916  -0.90342
 Alpha  occ. eigenvalues --   -0.90191  -0.90078  -0.90032  -0.89685  -0.89676
 Alpha  occ. eigenvalues --   -0.89335  -0.88716  -0.88334  -0.88148  -0.86452
 Alpha  occ. eigenvalues --   -0.86183  -0.85622  -0.85338  -0.84537  -0.84456
 Alpha  occ. eigenvalues --   -0.83914  -0.83747  -0.83595  -0.83073  -0.82418
 Alpha  occ. eigenvalues --   -0.82244  -0.80318  -0.80191  -0.79600  -0.79368
 Alpha  occ. eigenvalues --   -0.79033  -0.78996  -0.78212  -0.78127  -0.77397
 Alpha  occ. eigenvalues --   -0.77057  -0.75494  -0.75130  -0.73490  -0.73409
 Alpha  occ. eigenvalues --   -0.71515  -0.71325  -0.71178  -0.70880  -0.70065
 Alpha  occ. eigenvalues --   -0.69372  -0.69095  -0.68155  -0.67796  -0.67527
 Alpha  occ. eigenvalues --   -0.67072  -0.66803  -0.66760  -0.66693  -0.66398
 Alpha  occ. eigenvalues --   -0.66169  -0.64951  -0.64192  -0.62243  -0.62169
 Alpha  occ. eigenvalues --   -0.61824  -0.61765  -0.61248  -0.61065  -0.61026
 Alpha  occ. eigenvalues --   -0.60233  -0.60134  -0.59841  -0.59676  -0.59243
 Alpha  occ. eigenvalues --   -0.58351  -0.58202  -0.58028  -0.57289  -0.57040
 Alpha  occ. eigenvalues --   -0.56964  -0.56842  -0.56742  -0.55947  -0.55644
 Alpha  occ. eigenvalues --   -0.55268  -0.55194  -0.55154  -0.55054  -0.54868
 Alpha  occ. eigenvalues --   -0.54715  -0.54631  -0.54451  -0.54287  -0.54141
 Alpha  occ. eigenvalues --   -0.53981  -0.53573  -0.53442  -0.53358  -0.53353
 Alpha  occ. eigenvalues --   -0.52984  -0.52645  -0.52496  -0.52167  -0.51961
 Alpha  occ. eigenvalues --   -0.51892  -0.51763  -0.51745  -0.51428  -0.51196
 Alpha  occ. eigenvalues --   -0.51128  -0.50975  -0.50945  -0.50691  -0.50636
 Alpha  occ. eigenvalues --   -0.50628  -0.50484  -0.50458  -0.50158  -0.50136
 Alpha  occ. eigenvalues --   -0.50090  -0.49737  -0.49563  -0.49469  -0.49284
 Alpha  occ. eigenvalues --   -0.49044  -0.48796  -0.48758  -0.48649  -0.48391
 Alpha  occ. eigenvalues --   -0.48100  -0.48049  -0.48004  -0.47924  -0.47850
 Alpha  occ. eigenvalues --   -0.47762  -0.47673  -0.47194  -0.47130  -0.46921
 Alpha  occ. eigenvalues --   -0.46682  -0.46438  -0.46412  -0.46354  -0.45822
 Alpha  occ. eigenvalues --   -0.45791  -0.45561  -0.45521  -0.45311  -0.45257
 Alpha  occ. eigenvalues --   -0.45130  -0.44886  -0.44846  -0.44522  -0.44471
 Alpha  occ. eigenvalues --   -0.44151  -0.44059  -0.43879  -0.43756  -0.43747
 Alpha  occ. eigenvalues --   -0.43502  -0.43419  -0.43343  -0.43193  -0.43085
 Alpha  occ. eigenvalues --   -0.43001  -0.42830  -0.42460  -0.42124  -0.41935
 Alpha  occ. eigenvalues --   -0.41892  -0.41724  -0.41516  -0.41429  -0.40961
 Alpha  occ. eigenvalues --   -0.40377  -0.40112  -0.40028  -0.39784  -0.39249
 Alpha  occ. eigenvalues --   -0.39029  -0.38628  -0.38471  -0.38183  -0.38012
 Alpha  occ. eigenvalues --   -0.37704  -0.37628  -0.36568  -0.36513  -0.36053
 Alpha  occ. eigenvalues --   -0.35376  -0.35095  -0.35039  -0.33653  -0.33501
 Alpha  occ. eigenvalues --   -0.33498  -0.33214  -0.32987  -0.32801  -0.32564
 Alpha  occ. eigenvalues --   -0.32402  -0.32216  -0.31537  -0.25982  -0.25710
 Alpha  occ. eigenvalues --   -0.23236  -0.23053
 Alpha virt. eigenvalues --   -0.07422  -0.07220   0.00514   0.00763   0.01911
 Alpha virt. eigenvalues --    0.02351   0.04175   0.04599   0.04967   0.05457
 Alpha virt. eigenvalues --    0.06920   0.07889   0.08439   0.08552   0.08589

 Mulliken charges:
               1
     1  Mg   0.968708
     2  C   -0.020908
     3  C   -0.037333
     4  C   -0.069113
     5  C   -0.100415
     6  N   -0.318814
     7  C   -0.004236
     8  C   -0.025712
     9  C   -0.108493
    10  C    0.038933
    11  C    0.011036
    12  C    0.007012
    13  C   -0.131895
    14  H    0.014617
    15  N   -0.444847
    16  C    0.109519
    17  C   -0.188597
    18  C   -0.082347
    19  C    0.150637
    20  C    0.091074
    21  C    0.056652
    22  O   -0.260272
    23  C   -0.010016
    24  N   -0.429061
    25  C    0.096547
    26  C   -0.123056
    27  C   -0.081965
    28  C    0.106629
    29  C    0.028054
    30  C    0.012496
    31  C   -0.064900
    32  N   -0.411692
    33  C    0.114008
    34  C   -0.170805
    35  C   -0.051323
    36  C    0.143976
    37  C    0.088541
    38  C    0.115107
    39  O   -0.251246
    40  C   -0.028945
    41  C    0.225643
    42  O   -0.205122
    43  O   -0.332602
    44  C    0.138549
    45  H   -0.014008
    46  H    0.019917
    47  H   -0.001499
    48  H    0.046623
    49  H    0.041667
    50  H    0.041569
    51  H    0.040665
    52  H    0.039579
    53  H    0.033130
    54  H    0.031180
    55  H    0.045507
    56  H    0.057658
    57  H    0.057960
    58  H    0.041086
    59  H    0.035260
    60  H    0.053929
    61  H    0.046634
    62  H    0.066107
    63  H    0.046194
    64  H    0.023377
    65  H    0.051658
    66  H    0.034848
    67  H    0.038035
    68  H    0.040901
    69  H    0.022442
    70  H    0.029601
    71  H    0.032162
    72  H    0.037150
    73  H    0.030854
    74  H    0.058547
    75  H    0.072527
    76  H    0.069134
    77  H    0.047662
    78  H    0.057050
    79  H    0.060872
    80  Mg   0.974230
    81  C   -0.004274
    82  C   -0.064920
    83  C   -0.065427
    84  C   -0.074739
    85  N   -0.330587
    86  C    0.000587
    87  C   -0.084414
    88  C   -0.117708
    89  C    0.051365
    90  C    0.025278
    91  C    0.011036
    92  C   -0.102375
    93  H    0.032711
    94  N   -0.356453
    95  C    0.128931
    96  C   -0.163895
    97  C   -0.075630
    98  C    0.099909
    99  C    0.082331
   100  C    0.043209
   101  O   -0.247001
   102  C   -0.016907
   103  N   -0.351388
   104  C    0.050097
   105  C   -0.080527
   106  C   -0.041523
   107  C    0.061416
   108  C    0.035329
   109  C   -0.058020
   110  C   -0.043038
   111  N   -0.478589
   112  C    0.099248
   113  C   -0.189052
   114  C    0.041155
   115  C    0.138096
   116  C    0.096990
   117  C    0.037794
   118  O   -0.207121
   119  C   -0.056084
   120  C    0.260205
   121  O   -0.281234
   122  O   -0.359769
   123  C    0.146683
   124  H   -0.011044
   125  H    0.017218
   126  H   -0.000250
   127  H    0.049083
   128  H    0.042463
   129  H    0.031532
   130  H    0.050456
   131  H    0.040582
   132  H    0.012233
   133  H    0.032180
   134  H    0.055743
   135  H    0.054471
   136  H    0.030436
   137  H    0.036707
   138  H    0.063474
   139  H    0.053688
   140  H    0.071438
   141  H    0.050308
   142  H    0.036241
   143  H    0.036976
   144  H    0.036557
   145  H    0.040276
   146  H    0.051403
   147  H    0.029638
   148  H    0.029500
   149  H    0.038282
   150  H    0.037361
   151  H    0.035848
   152  H    0.026430
   153  H    0.067206
   154  H    0.061440
   155  H    0.060598
   156  H    0.053442
   157  H    0.075715
   158  H    0.036444
 Sum of Mulliken charges =  -0.00000

 Dipole moment (field-independent basis, Debye):
    X=              0.8702    Y=             -0.1469    Z=              6.8689  Tot=              6.9253
 Quadrupole moment (field-independent basis, Debye-Ang):
   XX=           -473.9945   YY=           -501.1350   ZZ=           -488.4847
   XY=             29.9735   XZ=             33.5533   YZ=             34.2374

 Normal termination of Gaussian 16 at Mon Sep 20 11:28:13 2021.
