 Gaussian 16, Revision A.03,
 Gaussian 16:  ES64L-G16RevA.03 25-Dec-2016

 --------------------------------
 #p wB97XD/Def2SVP td=(nstates=5)
 --------------------------------

 --------------------------------
 TDDFT excited states in gaussian
 --------------------------------
 Symbolic Z-matrix:
 Charge =  0 Multiplicity = 1

                         Standard orientation:
 ---------------------------------------------------------------------
 Center     Atomic      Atomic             Coordinates (Angstroms)
 Number     Number       Type             X           Y           Z
 ---------------------------------------------------------------------
      1         12           0       18.170660    0.033609    0.263330
      2          6           0       15.387696   -1.554020   -0.921751
      3          6           0       19.081045    0.635411   -3.123654
      4          6           0       20.713767    1.945592    1.387092
      5          6           0       16.705447    0.180482    3.420657
      6          7           0       17.073976   -0.112855   -1.859560
      7          6           0       16.072355   -1.017317   -2.047773
      8          6           0       15.735246   -1.107483   -3.510365
      9          6           0       16.934334   -0.358820   -4.239227
     10          6           0       17.808835    0.103221   -3.030940
     11          6           0       17.456665   -0.993620   -5.476046
     12          6           0       14.274256   -0.692409   -4.018895
     13          6           0       13.546640    0.389722   -3.277587
     14          1           0       12.922531    1.500016   -4.111271
     15          7           0       19.798683    0.922786   -0.725790
     16          6           0       20.011169    1.042413   -2.064183
     17          6           0       21.214736    1.763024   -2.357046
     18          6           0       21.781402    2.060558   -1.011806
     19          6           0       20.755290    1.633546   -0.035591
     20          6           0       21.786596    2.088515   -3.653584
     21          6           0       23.125704    2.680553   -0.658522
     22          8           0       23.814828    3.138072   -1.499644
     23          6           0       23.681235    2.882753    0.723984
     24          7           0       18.561382    1.023183    2.070531
     25          6           0       19.758204    1.580250    2.310624
     26          6           0       19.780702    2.280178    3.768905
     27          6           0       18.666341    1.370059    4.482586
     28          6           0       17.922001    0.886744    3.260724
     29          6           0       21.130514    2.272548    4.491841
     30          6           0       17.875902    2.130973    5.562333
     31          6           0       17.647297    1.514742    6.947553
     32          7           0       16.353560   -0.464113    1.081091
     33          6           0       15.878977   -0.399069    2.385244
     34          6           0       14.648919   -1.076603    2.524848
     35          6           0       14.400318   -1.614877    1.273041
     36          6           0       15.474849   -1.217129    0.400980
     37          6           0       13.833629   -1.254388    3.768302
     38          6           0       13.592994   -2.421039    0.455598
     39          8           0       12.549717   -2.989761    0.770885
     40          6           0       14.072076   -2.289176   -1.018156
     41          6           0       14.185698   -3.736370   -1.474258
     42          8           0       13.652151   -4.189293   -2.509130
     43          8           0       15.073791   -4.365128   -0.633697
     44          6           0       15.613235   -5.715830   -0.925385
     45          1           0       19.236802    0.894177   -4.172992
     46          1           0       21.413795    2.720980    1.704813
     47          1           0       16.287767    0.170060    4.429206
     48          1           0       15.720507   -2.160308   -3.794591
     49          1           0       16.528667    0.595518   -4.573803
     50          1           0       18.543213   -1.077309   -5.495224
     51          1           0       17.048108   -0.537899   -6.378002
     52          1           0       17.130735   -2.033214   -5.510748
     53          1           0       13.546071   -1.503463   -4.005737
     54          1           0       14.349970   -0.252767   -5.013913
     55          1           0       14.067705    0.772692   -2.400765
     56          1           0       12.628965   -0.056525   -2.892977
     57          1           0       21.516057    1.305411   -4.361173
     58          1           0       22.870266    2.199414   -3.647226
     59          1           0       21.338295    3.033155   -3.963557
     60          1           0       23.207328    1.996778    1.147220
     61          1           0       23.312219    3.789788    1.201730
     62          1           0       24.766014    2.873960    0.831448
     63          1           0       19.361794    3.276236    3.622597
     64          1           0       18.978504    0.443926    4.964585
     65          1           0       21.059667    1.526686    5.284001
     66          1           0       21.430652    3.288818    4.745548
     67          1           0       21.954124    1.945143    3.858053
     68          1           0       16.897216    2.347919    5.133474
     69          1           0       18.317806    3.122665    5.660276
     70          1           0       17.867384    2.116371    7.829559
     71          1           0       18.098032    0.527119    7.053650
     72          1           0       16.597415    1.228916    6.891577
     73          1           0       13.303126   -2.204619    3.833945
     74          1           0       13.105258   -0.444829    3.820541
     75          1           0       14.431193   -1.243213    4.680773
     76          1           0       13.254094   -1.743575   -1.487030
     77          1           0       16.665958   -5.812717   -0.660460
     78          1           0       15.494643   -5.903755   -1.992616
     79          1           0       15.171514   -6.601522   -0.470448
     80         12           0      -18.088497    0.420761    0.157631
     81          6           0      -15.028414   -0.999417   -0.278360
     82          6           0      -19.420153   -2.596111    1.138481
     83          6           0      -21.110880    1.930674    0.372409
     84          6           0      -16.802532    3.370297   -1.304658
     85          7           0      -17.348905   -1.630158    0.187928
     86          6           0      -16.014942   -1.875514    0.284851
     87          6           0      -15.697910   -3.220509    0.845205
     88          6           0      -17.197948   -3.787438    1.043961
     89          6           0      -18.071575   -2.605673    0.777972
     90          6           0      -17.532516   -5.002746    0.065636
     91          6           0      -14.934933   -3.032525    2.238536
     92          6           0      -14.065776   -4.194326    2.724741
     93          1           0      -14.114877   -5.627945    2.140083
     94          7           0      -19.999636   -0.168430    0.769839
     95          6           0      -20.341326   -1.485595    1.117419
     96          6           0      -21.752205   -1.487684    1.427443
     97          6           0      -22.246264   -0.180766    1.239739
     98          6           0      -21.077616    0.582923    0.824696
     99          6           0      -22.457551   -2.767246    1.934416
    100          6           0      -23.779251    0.321893    1.357663
    101          8           0      -24.095647    1.517451    1.312929
    102          6           0      -24.967739   -0.601259    1.569838
    103          7           0      -18.819881    2.448211   -0.346857
    104          6           0      -20.127003    2.762988   -0.182736
    105          6           0      -20.470481    4.090154   -0.857116
    106          6           0      -18.983012    4.720731   -1.114590
    107          6           0      -18.092275    3.503690   -0.819604
    108          6           0      -21.457698    4.008338   -2.109843
    109          6           0      -18.502455    5.869354   -0.090239
    110          6           0      -17.921815    7.164632   -0.627137
    111          7           0      -16.286766    1.150887   -0.606258
    112          6           0      -15.906892    2.314719   -1.162142
    113          6           0      -14.438425    2.283794   -1.448955
    114          6           0      -14.077401    0.977321   -1.042437
    115          6           0      -15.274928    0.321744   -0.665472
    116          6           0      -13.523279    3.332467   -1.974641
    117          6           0      -12.938171    0.142134   -0.962052
    118          8           0      -11.748751    0.368350   -1.265501
    119          6           0      -13.500902   -1.187092   -0.465052
    120          6           0      -13.233435   -2.205728   -1.454506
    121          8           0      -13.504189   -2.255769   -2.613519
    122          8           0      -12.654254   -3.268948   -0.768239
    123          6           0      -12.281463   -4.565218   -1.453869
    124          1           0      -19.855257   -3.446818    1.666352
    125          1           0      -22.105831    2.381057    0.353100
    126          1           0      -16.389152    4.162760   -1.931051
    127          1           0      -15.105407   -3.946284    0.288519
    128          1           0      -17.358087   -4.135157    2.064506
    129          1           0      -18.170970   -5.783688    0.478031
    130          1           0      -16.604279   -5.381412   -0.361979
    131          1           0      -18.096668   -4.577945   -0.765291
    132          1           0      -15.629236   -2.800020    3.046227
    133          1           0      -14.301288   -2.156596    2.097164
    134          1           0      -14.244613   -4.261645    3.798608
    135          1           0      -13.020687   -3.893725    2.660851
    136          1           0      -21.792495   -3.618303    2.080452
    137          1           0      -23.239205   -2.997167    1.211119
    138          1           0      -22.953089   -2.507795    2.870237
    139          1           0      -24.843337   -0.973166    2.586176
    140          1           0      -24.869382   -1.540974    1.025997
    141          1           0      -25.888324   -0.118535    1.242445
    142          1           0      -20.954325    4.722350   -0.111630
    143          1           0      -18.898043    5.118824   -2.125920
    144          1           0      -20.996209    4.424395   -3.005713
    145          1           0      -22.388859    4.527929   -1.886756
    146          1           0      -21.668570    2.969634   -2.365371
    147          1           0      -17.821530    5.478966    0.665951
    148          1           0      -19.379806    6.127882    0.501885
    149          1           0      -16.933284    7.267054   -0.180813
    150          1           0      -18.549894    8.030853   -0.420964
    151          1           0      -17.750540    7.072294   -1.700543
    152          1           0      -13.981692    4.310277   -2.121526
    153          1           0      -13.114242    3.041771   -2.942607
    154          1           0      -12.697384    3.448178   -1.273064
    155          1           0      -13.058397   -1.493100    0.483367
    156          1           0      -12.581870   -4.540451   -2.501586
    157          1           0      -12.829819   -5.390475   -0.997637
    158          1           0      -11.200206   -4.648699   -1.344591
 ---------------------------------------------------------------------

 SCF Done:  E(RwB97XD) =  -4070.55741395     A.U. after   19 cycles

 Excitation energies and oscillator strengths:

 Excited State   1:      Singlet-A      1.5770 eV  786.18 nm  f=0.3965  <S**2>=0.000
     309 -> 315       -0.17491
     311 -> 313        0.68651
     309 <- 315       -0.11855
 This state for optimization and/or second-order correction.
 Total Energy, E(TD-HF/TD-DFT) =  -4070.49945886
 Copying the excited state density for this state as the 1-particle RhoCI density.

 Excited State   2:      Singlet-A      1.6818 eV  737.21 nm  f=0.3885  <S**2>=0.000
     310 -> 316        0.19778
     312 -> 314        0.68061
     310 <- 316        0.11935

 Excited State   3:      Singlet-A      2.0921 eV  592.62 nm  f=0.1439  <S**2>=0.000
     309 -> 313        0.64988
     311 -> 315        0.25886

 Excited State   4:      Singlet-A      2.1739 eV  570.32 nm  f=0.0988  <S**2>=0.000
     310 -> 314        0.63670
     312 -> 316       -0.29860

 Excited State   5:      Singlet-A      3.0087 eV  412.09 nm  f=0.0074  <S**2>=0.000
     307 -> 313       -0.21719
     308 -> 313        0.63607
     308 -> 318       -0.12453

 The electronic state is 1-A.
 Alpha  occ. eigenvalues --  -46.96288 -46.95698 -19.31462 -19.28891 -19.25310
 Alpha  occ. eigenvalues --  -19.24485 -19.24181 -19.23863 -19.23593 -19.22170
 Alpha  occ. eigenvalues --  -14.47161 -14.47011 -14.46636 -14.46244 -14.44596
 Alpha  occ. eigenvalues --  -14.44272 -14.44099 -14.43953 -10.44379 -10.42445
 Alpha  occ. eigenvalues --  -10.40191 -10.38494 -10.38336 -10.37453 -10.36555
 Alpha  occ. eigenvalues --  -10.36131 -10.35764 -10.35647 -10.35615 -10.34996
 Alpha  occ. eigenvalues --  -10.34909 -10.34846 -10.34681 -10.34641 -10.34629
 Alpha  occ. eigenvalues --  -10.34177 -10.34135 -10.34010 -10.33857 -10.33692
 Alpha  occ. eigenvalues --  -10.33431 -10.33029 -10.33028 -10.32951 -10.32944
 Alpha  occ. eigenvalues --  -10.32765 -10.32558 -10.32489 -10.32351 -10.32349
 Alpha  occ. eigenvalues --  -10.32349 -10.32308 -10.32301 -10.32257 -10.31986
 Alpha  occ. eigenvalues --  -10.31985 -10.31976 -10.31892 -10.31858 -10.31830
 Alpha  occ. eigenvalues --  -10.31577 -10.31567 -10.31544 -10.31394 -10.31371
 Alpha  occ. eigenvalues --  -10.31284 -10.31264 -10.30742 -10.30736 -10.30692
 Alpha  occ. eigenvalues --  -10.30669 -10.30493 -10.30439 -10.30197 -10.30082
 Alpha  occ. eigenvalues --  -10.30056 -10.30018 -10.29991 -10.29925 -10.29893
 Alpha  occ. eigenvalues --  -10.29887 -10.29607 -10.29137 -10.28990 -10.28923
 Alpha  occ. eigenvalues --  -10.28802  -3.22222  -3.21554  -1.95763  -1.95379
 Alpha  occ. eigenvalues --   -1.95164  -1.95161  -1.94657  -1.94533  -1.17873
 Alpha  occ. eigenvalues --   -1.17745  -1.13565  -1.11690  -1.11639  -1.10558
 Alpha  occ. eigenvalues --   -1.09472  -1.09375  -1.07590  -1.07197  -1.06438
 Alpha  occ. eigenvalues --   -1.06417  -1.05555  -1.04920  -1.04617  -1.04147
 Alpha  occ. eigenvalues --   -0.95730  -0.95479  -0.91707  -0.90612  -0.90509
 Alpha  occ. eigenvalues --   -0.90299  -0.90095  -0.89899  -0.89401  -0.89172
 Alpha  occ. eigenvalues --   -0.88959  -0.88762  -0.88127  -0.87775  -0.86440
 Alpha  occ. eigenvalues --   -0.86241  -0.85900  -0.85321  -0.84992  -0.84217
 Alpha  occ. eigenvalues --   -0.84085  -0.83489  -0.83096  -0.82927  -0.82540
 Alpha  occ. eigenvalues --   -0.82235  -0.80455  -0.80338  -0.79738  -0.79371
 Alpha  occ. eigenvalues --   -0.79023  -0.78901  -0.78641  -0.78091  -0.77422
 Alpha  occ. eigenvalues --   -0.77073  -0.75578  -0.74572  -0.73925  -0.73732
 Alpha  occ. eigenvalues --   -0.71961  -0.71370  -0.71244  -0.70532  -0.70335
 Alpha  occ. eigenvalues --   -0.70128  -0.68552  -0.68193  -0.67931  -0.67496
 Alpha  occ. eigenvalues --   -0.67219  -0.67130  -0.66681  -0.66481  -0.66367
 Alpha  occ. eigenvalues --   -0.66215  -0.65591  -0.63797  -0.62433  -0.62273
 Alpha  occ. eigenvalues --   -0.61855  -0.61444  -0.61142  -0.60845  -0.60766
 Alpha  occ. eigenvalues --   -0.60399  -0.60038  -0.59707  -0.59563  -0.59200
 Alpha  occ. eigenvalues --   -0.58491  -0.57986  -0.57788  -0.57481  -0.57249
 Alpha  occ. eigenvalues --   -0.57199  -0.57051  -0.56387  -0.56102  -0.55944
 Alpha  occ. eigenvalues --   -0.55670  -0.55269  -0.55081  -0.54925  -0.54866
 Alpha  occ. eigenvalues --   -0.54668  -0.54413  -0.54079  -0.54043  -0.54035
 Alpha  occ. eigenvalues --   -0.53743  -0.53717  -0.53560  -0.53521  -0.53315
 Alpha  occ. eigenvalues --   -0.53314  -0.53030  -0.52725  -0.52633  -0.52534
 Alpha  occ. eigenvalues --   -0.52452  -0.51900  -0.51695  -0.51614  -0.51569
 Alpha  occ. eigenvalues --   -0.51437  -0.51333  -0.51110  -0.51032  -0.50931
 Alpha  occ. eigenvalues --   -0.50782  -0.50210  -0.50126  -0.50060  -0.49851
 Alpha  occ. eigenvalues --   -0.49805  -0.49518  -0.49469  -0.49274  -0.49209
 Alpha  occ. eigenvalues --   -0.49140  -0.49026  -0.48840  -0.48804  -0.48466
 Alpha  occ. eigenvalues --   -0.48362  -0.48358  -0.48115  -0.48052  -0.48050
 Alpha  occ. eigenvalues --   -0.47563  -0.47482  -0.47455  -0.47250  -0.47100
 Alpha  occ. eigenvalues --   -0.46949  -0.46803  -0.46601  -0.46238  -0.46197
 Alpha  occ. eigenvalues --   -0.46109  -0.45927  -0.45873  -0.45796  -0.45619
 Alpha  occ. eigenvalues --   -0.45291  -0.45038  -0.44970  -0.44647  -0.44553
 Alpha  occ. eigenvalues --   -0.44540  -0.44357  -0.44283  -0.44029  -0.43924
 Alpha  occ. eigenvalues --   -0.43641  -0.43633  -0.43530  -0.43403  -0.43271
 Alpha  occ. eigenvalues --   -0.43191  -0.43030  -0.42891  -0.42716  -0.42442
 Alpha  occ. eigenvalues --   -0.42162  -0.42075  -0.41621  -0.41305  -0.40928
 Alpha  occ. eigenvalues --   -0.40613  -0.40292  -0.39932  -0.39713  -0.39492
 Alpha  occ. eigenvalues --   -0.39422  -0.38962  -0.38729  -0.38534  -0.38132
 Alpha  occ. eigenvalues --   -0.38079  -0.37522  -0.36785  -0.36424  -0.36194
 Alpha  occ. eigenvalues --   -0.35839  -0.35373  -0.35304  -0.33785  -0.33353
 Alpha  occ. eigenvalues --   -0.33098  -0.33052  -0.32990  -0.32564  -0.32328
 Alpha  occ. eigenvalues --   -0.32195  -0.31516  -0.30384  -0.26372  -0.25718
 Alpha  occ. eigenvalues --   -0.23507  -0.22905
 Alpha virt. eigenvalues --   -0.08024  -0.06829  -0.00008   0.00225   0.02075
 Alpha virt. eigenvalues --    0.02352   0.04090   0.04473   0.04846   0.05857
 Alpha virt. eigenvalues --    0.06670   0.07357   0.07374   0.08046   0.08408

 Mulliken charges:
               1
     1  Mg   0.958484
     2  C    0.008263
     3  C   -0.083327
     4  C   -0.083950
     5  C   -0.096651
     6  N   -0.330703
     7  C   -0.005534
     8  C   -0.018657
     9  C   -0.091857
    10  C    0.035638
    11  C    0.041625
    12  C   -0.011182
    13  C   -0.168630
    14  H    0.030150
    15  N   -0.448430
    16  C    0.171489
    17  C   -0.181794
    18  C   -0.096657
    19  C    0.137457
    20  C    0.086343
    21  C    0.013433
    22  O   -0.209820
    23  C   -0.014989
    24  N   -0.361594
    25  C    0.084108
    26  C   -0.139101
    27  C   -0.084231
    28  C    0.074830
    29  C    0.050108
    30  C   -0.015293
    31  C   -0.044750
    32  N   -0.442123
    33  C    0.139220
    34  C   -0.188073
    35  C    0.058681
    36  C    0.109933
    37  C    0.078537
    38  C    0.062388
    39  O   -0.216369
    40  C   -0.121169
    41  C    0.312873
    42  O   -0.256588
    43  O   -0.379234
    44  C    0.145029
    45  H    0.008463
    46  H    0.003758
    47  H   -0.014212
    48  H    0.042116
    49  H    0.049794
    50  H    0.035442
    51  H    0.041489
    52  H    0.026926
    53  H    0.059320
    54  H    0.045180
    55  H    0.064452
    56  H    0.055895
    57  H    0.031647
    58  H    0.063173
    59  H    0.053813
    60  H    0.032413
    61  H    0.070912
    62  H    0.057936
    63  H    0.056110
    64  H    0.040579
    65  H    0.038859
    66  H    0.039550
    67  H    0.032320
    68  H    0.030293
    69  H    0.027693
    70  H    0.056374
    71  H    0.025783
    72  H    0.030901
    73  H    0.060952
    74  H    0.060952
    75  H    0.031871
    76  H    0.065625
    77  H    0.053525
    78  H    0.053930
    79  H    0.058282
    80  Mg   0.951147
    81  C   -0.080371
    82  C   -0.065209
    83  C   -0.054670
    84  C   -0.099737
    85  N   -0.357779
    86  C    0.029443
    87  C   -0.079450
    88  C   -0.109766
    89  C    0.090029
    90  C    0.022795
    91  C   -0.013472
    92  C   -0.098936
    93  H    0.035661
    94  N   -0.438932
    95  C    0.108687
    96  C   -0.179329
    97  C   -0.083574
    98  C    0.122427
    99  C    0.062461
   100  C    0.076004
   101  O   -0.249703
   102  C    0.010390
   103  N   -0.332238
   104  C    0.030994
   105  C   -0.062616
   106  C   -0.122790
   107  C    0.110858
   108  C    0.017307
   109  C   -0.023491
   110  C   -0.037693
   111  N   -0.390733
   112  C    0.092614
   113  C   -0.157211
   114  C   -0.058350
   115  C    0.195215
   116  C    0.082429
   117  C    0.129099
   118  O   -0.229364
   119  C   -0.055367
   120  C    0.260440
   121  O   -0.202705
   122  O   -0.416592
   123  C    0.130268
   124  H   -0.007812
   125  H    0.015215
   126  H    0.000061
   127  H    0.042281
   128  H    0.032239
   129  H    0.044411
   130  H    0.033036
   131  H    0.038517
   132  H    0.033191
   133  H    0.032455
   134  H    0.042967
   135  H    0.053541
   136  H    0.042696
   137  H    0.051361
   138  H    0.048400
   139  H    0.054843
   140  H    0.026340
   141  H    0.075552
   142  H    0.037448
   143  H    0.035295
   144  H    0.033676
   145  H    0.050404
   146  H    0.045473
   147  H    0.038396
   148  H    0.020808
   149  H    0.037111
   150  H    0.048295
   151  H    0.024440
   152  H    0.023602
   153  H    0.065421
   154  H    0.063791
   155  H    0.069693
   156  H    0.065961
   157  H    0.053333
   158  H    0.069374
 Sum of Mulliken charges =  -0.00000

 Dipole moment (field-independent basis, Debye):
    X=             -0.0816    Y=             -2.5872    Z=              6.0319  Tot=              6.5638
 Quadrupole moment (field-independent basis, Debye-Ang):
   XX=           -424.7066   YY=           -473.9175   ZZ=           -482.8623
   XY=              6.6449   XZ=             41.6297   YZ=             -5.0835

 Normal termination of Gaussian 16 at Sat Sep 18 22:10:35 2021.
