 Gaussian 16, Revision A.03,
 Gaussian 16:  ES64L-G16RevA.03 25-Dec-2016

 --------------------------------
 #p wB97XD/Def2SVP td=(nstates=5)
 --------------------------------

 --------------------------------
 TDDFT excited states in gaussian
 --------------------------------
 Symbolic Z-matrix:
 Charge =  0 Multiplicity = 1

                         Standard orientation:
 ---------------------------------------------------------------------
 Center     Atomic      Atomic             Coordinates (Angstroms)
 Number     Number       Type             X           Y           Z
 ---------------------------------------------------------------------
      1         12           0      -23.563338   -0.593287   -0.066894
      2          6           0      -22.726420    2.552266   -0.995218
      3          6           0      -23.393119    0.346878    3.272546
      4          6           0      -24.394373   -3.741161    0.861406
      5          6           0      -23.253613   -1.646220   -3.349949
      6          7           0      -23.222294    1.237236    0.916177
      7          6           0      -22.858519    2.426663    0.373666
      8          6           0      -22.861717    3.544710    1.383301
      9          6           0      -22.801994    2.783371    2.761817
     10          6           0      -23.197984    1.347795    2.284246
     11          6           0      -21.499031    2.857542    3.662675
     12          6           0      -24.195087    4.415635    1.297454
     13          6           0      -24.001609    5.858456    1.850329
     14          1           0      -22.948355    6.182863    2.922972
     15          7           0      -23.789523   -1.634655    1.817986
     16          6           0      -23.677515   -1.010472    3.088043
     17          6           0      -23.943638   -1.971140    4.115949
     18          6           0      -24.229618   -3.206797    3.433074
     19          6           0      -24.153093   -2.859204    1.969097
     20          6           0      -23.996601   -1.663565    5.571395
     21          6           0      -24.575537   -4.573642    4.013122
     22          8           0      -24.702386   -5.645738    3.351833
     23          6           0      -24.775146   -4.717450    5.512348
     24          7           0      -23.725595   -2.439196   -1.069584
     25          6           0      -24.274979   -3.590086   -0.502307
     26          6           0      -24.717163   -4.671868   -1.529679
     27          6           0      -24.349781   -3.875798   -2.904117
     28          6           0      -23.774285   -2.582051   -2.457215
     29          6           0      -23.898790   -5.948296   -1.296357
     30          6           0      -25.491434   -3.748128   -3.869132
     31          6           0      -25.187592   -4.298765   -5.233111
     32          7           0      -23.007221    0.129892   -1.798405
     33          6           0      -22.938908   -0.363549   -3.095371
     34          6           0      -22.518028    0.655346   -3.983998
     35          6           0      -22.363993    1.847050   -3.225866
     36          6           0      -22.772965    1.518334   -1.916200
     37          6           0      -22.304222    0.588352   -5.447458
     38          6           0      -21.898969    3.216380   -3.259356
     39          8           0      -21.409420    3.938449   -4.105771
     40          6           0      -22.209967    3.721767   -1.771272
     41          6           0      -21.137512    4.600911   -1.236354
     42          8           0      -19.949597    4.425528   -1.330759
     43          8           0      -21.606816    5.701444   -0.628249
     44          6           0      -20.551829    6.593795   -0.069031
     45          1           0      -23.143714    0.698207    4.276076
     46          1           0      -24.529990   -4.776547    1.180577
     47          1           0      -23.243363   -1.867820   -4.419104
     48          1           0      -21.941467    4.128214    1.361354
     49          1           0      -23.644186    3.112888    3.369436
     50          1           0      -20.819725    3.566487    3.189202
     51          1           0      -20.964079    1.929006    3.855644
     52          1           0      -21.824442    3.190219    4.648523
     53          1           0      -24.929782    3.833421    1.853923
     54          1           0      -24.480219    4.463631    0.246432
     55          1           0      -24.996921    6.094331    2.227362
     56          1           0      -23.887268    6.502633    0.978914
     57          1           0      -24.932729   -1.237899    5.932882
     58          1           0      -23.153714   -0.998201    5.754045
     59          1           0      -23.686779   -2.499363    6.198030
     60          1           0      -23.777330   -4.833649    5.935113
     61          1           0      -25.328682   -5.648552    5.631279
     62          1           0      -25.261189   -3.861251    5.980427
     63          1           0      -25.761031   -4.890087   -1.303924
     64          1           0      -23.572756   -4.434236   -3.427204
     65          1           0      -23.074633   -5.863065   -0.587811
     66          1           0      -23.611783   -6.363865   -2.262002
     67          1           0      -24.578164   -6.648929   -0.810043
     68          1           0      -25.771933   -2.713981   -4.069467
     69          1           0      -26.421272   -4.210889   -3.538206
     70          1           0      -25.965521   -4.962079   -5.610106
     71          1           0      -24.260218   -4.870931   -5.232855
     72          1           0      -24.985534   -3.413463   -5.836748
     73          1           0      -21.972780   -0.373538   -5.839762
     74          1           0      -21.384760    1.157282   -5.588312
     75          1           0      -23.190953    0.946616   -5.970497
     76          1           0      -23.054617    4.360627   -2.030832
     77          1           0      -20.068058    7.191913   -0.842558
     78          1           0      -19.867627    6.055176    0.586818
     79          1           0      -21.033729    7.312028    0.594757
     80         12           0       23.746793   -0.810028    0.124490
     81          6           0       21.650783    2.208020    0.682737
     82          6           0       26.133954    1.414964   -0.755730
     83          6           0       25.343351   -3.452665   -0.593216
     84          6           0       20.713373   -2.661189    0.337755
     85          7           0       23.823772    1.515057   -0.055889
     86          6           0       22.939517    2.481423    0.392888
     87          6           0       23.518697    3.899630    0.450002
     88          6           0       24.779549    3.674248   -0.440391
     89          6           0       24.957883    2.106720   -0.448305
     90          6           0       24.686700    4.225073   -1.828511
     91          6           0       23.782927    4.508322    1.867953
     92          6           0       23.669585    5.987413    2.029714
     93          1           0       24.677718    6.618259    2.984969
     94          7           0       25.567895   -1.023770   -0.554914
     95          6           0       26.473459    0.024722   -0.820316
     96          6           0       27.752939   -0.563837   -1.093071
     97          6           0       27.531481   -1.994022   -0.882849
     98          6           0       26.140869   -2.171618   -0.667241
     99          6           0       29.081272    0.238695   -1.352529
    100          6           0       28.597304   -3.046467   -0.909322
    101          8           0       28.331871   -4.266731   -0.783203
    102          6           0       30.044351   -2.736247   -1.033475
    103          7           0       23.150121   -2.755136   -0.263535
    104          6           0       24.028298   -3.723226   -0.532895
    105          6           0       23.387355   -5.142137   -0.663083
    106          6           0       22.031711   -4.860024    0.085654
    107          6           0       21.916611   -3.312426    0.020676
    108          6           0       23.149686   -5.549230   -2.152912
    109          6           0       22.066752   -5.339776    1.597382
    110          6           0       22.462508   -6.795621    1.921868
    111          7           0       21.624589   -0.366183    0.484589
    112          6           0       20.559529   -1.252174    0.600343
    113          6           0       19.340198   -0.515994    0.839065
    114          6           0       19.726710    0.828133    0.916091
    115          6           0       21.113554    0.897161    0.609699
    116          6           0       17.988115   -1.085874    1.108214
    117          6           0       19.228148    2.177124    1.149672
    118          8           0       18.135426    2.639051    1.450566
    119          6           0       20.559508    3.090491    1.081542
    120          6           0       20.245052    4.170838    0.162476
    121          8           0       19.971597    4.067352   -1.043672
    122          8           0       19.867438    5.251641    0.906646
    123          6           0       19.440271    6.442621    0.245165
    124          1           0       26.896711    2.186266   -0.882636
    125          1           0       25.855043   -4.387515   -0.830511
    126          1           0       19.819308   -3.284801    0.408309
    127          1           0       22.823694    4.550049   -0.081487
    128          1           0       25.675844    4.025320    0.070128
    129          1           0       24.558108    3.375257   -2.498898
    130          1           0       25.631250    4.696084   -2.100297
    131          1           0       23.881785    4.930485   -2.033988
    132          1           0       24.814792    4.269884    2.124257
    133          1           0       23.145216    3.974818    2.572282
    134          1           0       22.665890    6.121651    2.432546
    135          1           0       23.561473    6.506317    1.077169
    136          1           0       29.798216    0.238889   -0.532031
    137          1           0       28.872750    1.257510   -1.677981
    138          1           0       29.482792   -0.292636   -2.216307
    139          1           0       30.247694   -2.467071   -2.070273
    140          1           0       30.564717   -3.656828   -0.767781
    141          1           0       30.258918   -1.964757   -0.294718
    142          1           0       24.077372   -5.825508   -0.166981
    143          1           0       21.138984   -5.274872   -0.381380
    144          1           0       23.829122   -6.377211   -2.356717
    145          1           0       23.251060   -4.750625   -2.887080
    146          1           0       22.123276   -5.916872   -2.114969
    147          1           0       21.061974   -5.249737    2.009507
    148          1           0       22.675656   -4.609290    2.129746
    149          1           0       23.330410   -6.704929    2.574858
    150          1           0       22.769682   -7.206639    0.959770
    151          1           0       21.669512   -7.342462    2.431767
    152          1           0       18.176299   -2.141976    1.302803
    153          1           0       17.419168   -0.955513    0.187710
    154          1           0       17.441144   -0.578698    1.902987
    155          1           0       20.786186    3.478240    2.074535
    156          1           0       19.502152    6.347726   -0.839156
    157          1           0       20.153460    7.207064    0.553782
    158          1           0       18.471547    6.775247    0.615310
 ---------------------------------------------------------------------

 SCF Done:  E(RwB97XD) =  -4070.60744374     A.U. after   18 cycles

 Excitation energies and oscillator strengths:

 Excited State   1:      Singlet-A      1.5874 eV  781.05 nm  f=0.3903  <S**2>=0.000
     309 -> 315       -0.17577
     312 -> 314        0.68654
     309 <- 315       -0.11664
 This state for optimization and/or second-order correction.
 Total Energy, E(TD-HF/TD-DFT) =  -4070.54910775
 Copying the excited state density for this state as the 1-particle RhoCI density.

 Excited State   2:      Singlet-A      1.6008 eV  774.53 nm  f=0.3880  <S**2>=0.000
     310 -> 316       -0.16169
     311 -> 313        0.68933
     310 <- 316       -0.11299

 Excited State   3:      Singlet-A      2.1247 eV  583.54 nm  f=0.2102  <S**2>=0.000
     310 -> 313        0.66538
     311 -> 316        0.22068

 Excited State   4:      Singlet-A      2.1692 eV  571.58 nm  f=0.1101  <S**2>=0.000
     309 -> 314        0.63608
     312 -> 315        0.29407

 Excited State   5:      Singlet-A      3.1835 eV  389.46 nm  f=0.0051  <S**2>=0.000
     304 -> 313        0.18146
     306 -> 313        0.66097

 The electronic state is 1-A.
 Alpha  occ. eigenvalues --  -46.95226 -46.93495 -19.30358 -19.30040 -19.24983
 Alpha  occ. eigenvalues --  -19.24388 -19.24269 -19.23681 -19.23541 -19.22434
 Alpha  occ. eigenvalues --  -14.47449 -14.46921 -14.46285 -14.45990 -14.44263
 Alpha  occ. eigenvalues --  -14.44189 -14.44100 -14.43394 -10.43004 -10.42404
 Alpha  occ. eigenvalues --  -10.40041 -10.39209 -10.39162 -10.37914 -10.35800
 Alpha  occ. eigenvalues --  -10.35446 -10.35369 -10.34939 -10.34839 -10.34781
 Alpha  occ. eigenvalues --  -10.34763 -10.34705 -10.34679 -10.34505 -10.34469
 Alpha  occ. eigenvalues --  -10.34435 -10.34110 -10.33885 -10.33830 -10.33319
 Alpha  occ. eigenvalues --  -10.33196 -10.33107 -10.32952 -10.32903 -10.32880
 Alpha  occ. eigenvalues --  -10.32824 -10.32382 -10.32293 -10.32257 -10.32177
 Alpha  occ. eigenvalues --  -10.32170 -10.32152 -10.32087 -10.32047 -10.32030
 Alpha  occ. eigenvalues --  -10.31987 -10.31902 -10.31897 -10.31798 -10.31747
 Alpha  occ. eigenvalues --  -10.31694 -10.31587 -10.31579 -10.31531 -10.31529
 Alpha  occ. eigenvalues --  -10.31401 -10.31132 -10.30982 -10.30759 -10.30666
 Alpha  occ. eigenvalues --  -10.30312 -10.30076 -10.29959 -10.29770 -10.29698
 Alpha  occ. eigenvalues --  -10.29629 -10.29620 -10.29607 -10.29546 -10.29487
 Alpha  occ. eigenvalues --  -10.29431 -10.29424 -10.29368 -10.29316 -10.29269
 Alpha  occ. eigenvalues --  -10.28906  -3.21328  -3.19745  -1.94887  -1.94451
 Alpha  occ. eigenvalues --   -1.94315  -1.93335  -1.92860  -1.92767  -1.19464
 Alpha  occ. eigenvalues --   -1.18725  -1.12502  -1.12374  -1.09626  -1.09613
 Alpha  occ. eigenvalues --   -1.09438  -1.09216  -1.06916  -1.06508  -1.06044
 Alpha  occ. eigenvalues --   -1.05653  -1.05591  -1.04716  -1.04584  -1.03411
 Alpha  occ. eigenvalues --   -0.95700  -0.95346  -0.91571  -0.91405  -0.90716
 Alpha  occ. eigenvalues --   -0.90668  -0.90434  -0.89945  -0.89584  -0.89380
 Alpha  occ. eigenvalues --   -0.89159  -0.88777  -0.88348  -0.88169  -0.86622
 Alpha  occ. eigenvalues --   -0.86225  -0.85966  -0.85710  -0.85013  -0.84367
 Alpha  occ. eigenvalues --   -0.84008  -0.83578  -0.83021  -0.82991  -0.82771
 Alpha  occ. eigenvalues --   -0.82454  -0.80498  -0.80297  -0.79696  -0.79408
 Alpha  occ. eigenvalues --   -0.79260  -0.79204  -0.78450  -0.78159  -0.77372
 Alpha  occ. eigenvalues --   -0.77145  -0.75351  -0.74866  -0.73804  -0.72887
 Alpha  occ. eigenvalues --   -0.71202  -0.71064  -0.70583  -0.70580  -0.70166
 Alpha  occ. eigenvalues --   -0.70132  -0.68903  -0.68669  -0.67776  -0.67643
 Alpha  occ. eigenvalues --   -0.67292  -0.67074  -0.66887  -0.66763  -0.66448
 Alpha  occ. eigenvalues --   -0.66071  -0.64316  -0.64040  -0.62724  -0.62321
 Alpha  occ. eigenvalues --   -0.61876  -0.61773  -0.61487  -0.60925  -0.60829
 Alpha  occ. eigenvalues --   -0.60378  -0.60353  -0.59953  -0.59708  -0.59688
 Alpha  occ. eigenvalues --   -0.58067  -0.57845  -0.57594  -0.57344  -0.57144
 Alpha  occ. eigenvalues --   -0.56975  -0.56849  -0.56604  -0.56086  -0.55846
 Alpha  occ. eigenvalues --   -0.55652  -0.55270  -0.55173  -0.54946  -0.54798
 Alpha  occ. eigenvalues --   -0.54762  -0.54457  -0.54444  -0.54353  -0.54340
 Alpha  occ. eigenvalues --   -0.54094  -0.53894  -0.53686  -0.53338  -0.53234
 Alpha  occ. eigenvalues --   -0.53173  -0.53073  -0.52924  -0.52226  -0.52208
 Alpha  occ. eigenvalues --   -0.52003  -0.51916  -0.51831  -0.51808  -0.51627
 Alpha  occ. eigenvalues --   -0.51587  -0.51438  -0.51146  -0.50934  -0.50784
 Alpha  occ. eigenvalues --   -0.50639  -0.50298  -0.50242  -0.50122  -0.50061
 Alpha  occ. eigenvalues --   -0.49891  -0.49774  -0.49741  -0.49505  -0.49243
 Alpha  occ. eigenvalues --   -0.49158  -0.49116  -0.48621  -0.48530  -0.48441
 Alpha  occ. eigenvalues --   -0.48342  -0.48287  -0.48131  -0.47883  -0.47829
 Alpha  occ. eigenvalues --   -0.47366  -0.47134  -0.47024  -0.46908  -0.46839
 Alpha  occ. eigenvalues --   -0.46730  -0.46699  -0.46464  -0.46283  -0.45984
 Alpha  occ. eigenvalues --   -0.45907  -0.45815  -0.45657  -0.45452  -0.45196
 Alpha  occ. eigenvalues --   -0.45169  -0.45110  -0.45048  -0.44752  -0.44584
 Alpha  occ. eigenvalues --   -0.44354  -0.44242  -0.44024  -0.43968  -0.43902
 Alpha  occ. eigenvalues --   -0.43828  -0.43589  -0.43319  -0.43227  -0.42942
 Alpha  occ. eigenvalues --   -0.42824  -0.42645  -0.42575  -0.42490  -0.42313
 Alpha  occ. eigenvalues --   -0.42266  -0.41913  -0.41732  -0.41361  -0.41221
 Alpha  occ. eigenvalues --   -0.40464  -0.40194  -0.40153  -0.39873  -0.39677
 Alpha  occ. eigenvalues --   -0.39622  -0.39220  -0.39159  -0.38974  -0.38631
 Alpha  occ. eigenvalues --   -0.38393  -0.37847  -0.36613  -0.36609  -0.36260
 Alpha  occ. eigenvalues --   -0.36195  -0.35419  -0.35385  -0.33770  -0.33671
 Alpha  occ. eigenvalues --   -0.33431  -0.32804  -0.32632  -0.32235  -0.32124
 Alpha  occ. eigenvalues --   -0.32062  -0.31758  -0.31744  -0.26221  -0.26164
 Alpha  occ. eigenvalues --   -0.23537  -0.22825
 Alpha virt. eigenvalues --   -0.08013  -0.07312   0.00308   0.01151   0.02179
 Alpha virt. eigenvalues --    0.02368   0.04291   0.04349   0.04953   0.06114
 Alpha virt. eigenvalues --    0.06134   0.07449   0.07655   0.07861   0.08042

 Mulliken charges:
               1
     1  Mg   0.985592
     2  C    0.012918
     3  C   -0.095354
     4  C   -0.062340
     5  C   -0.128199
     6  N   -0.378509
     7  C   -0.008406
     8  C   -0.043386
     9  C   -0.121989
    10  C    0.058073
    11  C    0.021180
    12  C    0.005283
    13  C   -0.092359
    14  H    0.043452
    15  N   -0.389580
    16  C    0.163909
    17  C   -0.155408
    18  C   -0.073763
    19  C    0.099955
    20  C    0.064795
    21  C    0.052933
    22  O   -0.274745
    23  C   -0.022157
    24  N   -0.391955
    25  C    0.057869
    26  C   -0.092125
    27  C   -0.027233
    28  C    0.108950
    29  C    0.008972
    30  C   -0.008494
    31  C   -0.062958
    32  N   -0.527674
    33  C    0.190049
    34  C   -0.191366
    35  C   -0.055055
    36  C    0.141499
    37  C    0.072753
    38  C    0.153195
    39  O   -0.183110
    40  C   -0.107215
    41  C    0.224407
    42  O   -0.229874
    43  O   -0.358819
    44  C    0.140838
    45  H   -0.003576
    46  H    0.017274
    47  H   -0.016894
    48  H    0.024542
    49  H    0.035428
    50  H    0.042347
    51  H    0.048444
    52  H    0.037235
    53  H    0.035709
    54  H    0.041464
    55  H    0.044216
    56  H    0.060601
    57  H    0.073832
    58  H    0.034894
    59  H    0.031899
    60  H    0.066659
    61  H    0.059189
    62  H    0.050429
    63  H    0.056030
    64  H    0.035268
    65  H    0.060736
    66  H    0.037241
    67  H    0.041368
    68  H    0.033215
    69  H    0.028284
    70  H    0.043800
    71  H    0.022323
    72  H    0.037630
    73  H    0.026954
    74  H    0.061507
    75  H    0.068382
    76  H    0.069218
    77  H    0.070827
    78  H    0.058577
    79  H    0.040400
    80  Mg   0.983290
    81  C   -0.013717
    82  C   -0.065887
    83  C   -0.042946
    84  C   -0.082912
    85  N   -0.296630
    86  C   -0.036708
    87  C   -0.084015
    88  C   -0.102319
    89  C   -0.016652
    90  C    0.047862
    91  C    0.043112
    92  C   -0.116560
    93  H    0.053852
    94  N   -0.496645
    95  C    0.190315
    96  C   -0.170717
    97  C   -0.082106
    98  C    0.147908
    99  C    0.071720
   100  C    0.008692
   101  O   -0.274940
   102  C    0.009794
   103  N   -0.391756
   104  C    0.045422
   105  C   -0.110489
   106  C   -0.102379
   107  C    0.088780
   108  C    0.051782
   109  C   -0.033941
   110  C   -0.032694
   111  N   -0.400105
   112  C    0.122998
   113  C   -0.202533
   114  C   -0.040107
   115  C    0.129482
   116  C    0.087859
   117  C    0.156514
   118  O   -0.192234
   119  C   -0.060141
   120  C    0.245659
   121  O   -0.268754
   122  O   -0.350409
   123  C    0.133677
   124  H   -0.007731
   125  H    0.013645
   126  H    0.005007
   127  H    0.033329
   128  H    0.025409
   129  H    0.044503
   130  H    0.034244
   131  H    0.048414
   132  H    0.032013
   133  H    0.031286
   134  H    0.048026
   135  H    0.042934
   136  H    0.068003
   137  H    0.040268
   138  H    0.043085
   139  H    0.064000
   140  H    0.055080
   141  H    0.045526
   142  H    0.047087
   143  H    0.025439
   144  H    0.046370
   145  H    0.060252
   146  H    0.027978
   147  H    0.024669
   148  H    0.033417
   149  H    0.042541
   150  H    0.036213
   151  H    0.048602
   152  H    0.031166
   153  H    0.060063
   154  H    0.065035
   155  H    0.071931
   156  H    0.066092
   157  H    0.033723
   158  H    0.061959
 Sum of Mulliken charges =  -0.00000

 Dipole moment (field-independent basis, Debye):
    X=             -0.4630    Y=              2.1439    Z=              4.9118  Tot=              5.3793
 Quadrupole moment (field-independent basis, Debye-Ang):
   XX=           -239.6663   YY=           -495.9389   ZZ=           -493.4927
   XY=             28.4267   XZ=            -37.2474   YZ=             32.5685

 Normal termination of Gaussian 16 at Sun Sep 19 21:51:19 2021.
