 Gaussian 16, Revision A.03,
 Gaussian 16:  ES64L-G16RevA.03 25-Dec-2016

 --------------------------------
 #p wB97XD/Def2SVP td=(nstates=5)
 --------------------------------

 --------------------------------
 TDDFT excited states in gaussian
 --------------------------------
 Symbolic Z-matrix:
 Charge =  0 Multiplicity = 1

                         Standard orientation:
 ---------------------------------------------------------------------
 Center     Atomic      Atomic             Coordinates (Angstroms)
 Number     Number       Type             X           Y           Z
 ---------------------------------------------------------------------
      1         12           0      -14.206606    0.038698    0.248373
      2          6           0      -11.750509    1.728852   -1.419209
      3          6           0      -15.165092   -1.349334   -2.884883
      4          6           0      -16.379598   -1.944897    1.900455
      5          6           0      -12.597389    0.731945    3.259513
      6          7           0      -13.239873   -0.091268   -1.937802
      7          6           0      -12.395592    0.887726   -2.368476
      8          6           0      -12.141181    0.729498   -3.841971
      9          6           0      -13.244674   -0.309366   -4.324268
     10          6           0      -13.984938   -0.637502   -2.989156
     11          6           0      -13.911189   -0.013888   -5.618089
     12          6           0      -10.658297    0.428635   -4.367248
     13          6           0       -9.743518   -0.371231   -3.487838
     14          1           0       -8.996585   -1.527925   -4.137024
     15          7           0      -15.724031   -1.248237   -0.430356
     16          6           0      -15.975195   -1.661609   -1.701889
     17          6           0      -17.068002   -2.586664   -1.762482
     18          6           0      -17.523018   -2.684991   -0.347350
     19          6           0      -16.530824   -1.932674    0.451281
     20          6           0      -17.641136   -3.241356   -2.927331
     21          6           0      -18.741326   -3.402789    0.215540
     22          8           0      -19.390129   -4.110742   -0.469702
     23          6           0      -19.198081   -3.399652    1.648085
     24          7           0      -14.362920   -0.613876    2.235233
     25          6           0      -15.450103   -1.272754    2.664490
     26          6           0      -15.301977   -1.662952    4.227433
     27          6           0      -14.307198   -0.482335    4.670174
     28          6           0      -13.699288   -0.154407    3.327234
     29          6           0      -16.604056   -1.698868    5.032409
     30          6           0      -13.363847   -0.894217    5.814762
     31          6           0      -13.169643    0.012393    7.035900
     32          7           0      -12.450977    0.938029    0.820458
     33          6           0      -11.914625    1.201944    2.074631
     34          6           0      -10.795955    2.058248    1.991522
     35          6           0      -10.687234    2.364460    0.645055
     36          6           0      -11.727041    1.654619   -0.053688
     37          6           0       -9.962484    2.592965    3.114860
     38          6           0      -10.047912    3.095177   -0.368454
     39          8           0       -9.089479    3.855092   -0.245104
     40          6           0      -10.566511    2.605737   -1.750612
     41          6           0      -10.917389    3.902209   -2.465701
     42          8           0      -10.504763    4.208721   -3.604368
     43          8           0      -11.852032    4.556510   -1.698289
     44          6           0      -12.601571    5.733002   -2.202805
     45          1           0      -15.326409   -1.831919   -3.851020
     46          1           0      -16.939778   -2.730806    2.411100
     47          1           0      -12.141736    1.001987    4.214078
     48          1           0      -12.298146    1.695757   -4.322750
     49          1           0      -12.714858   -1.245370   -4.498794
     50          1           0      -14.997690   -0.087853   -5.573314
     51          1           0      -13.478953   -0.579425   -6.443597
     52          1           0      -13.747771    1.032790   -5.874896
     53          1           0      -10.061014    1.319253   -4.562924
     54          1           0      -10.710856   -0.207357   -5.251459
     55          1           0      -10.161388   -0.639783   -2.518169
     56          1           0       -8.887562    0.266282   -3.263997
     57          1           0      -17.523559   -2.585765   -3.789597
     58          1           0      -18.694291   -3.498530   -2.820530
     59          1           0      -17.069589   -4.157096   -3.082753
     60          1           0      -18.845024   -2.389737    1.858064
     61          1           0      -18.675559   -4.132366    2.262273
     62          1           0      -20.265911   -3.520672    1.831020
     63          1           0      -14.744434   -2.599908    4.244197
     64          1           0      -14.733877    0.468828    4.987545
     65          1           0      -16.611524   -0.807155    5.659813
     66          1           0      -16.735808   -2.675519    5.497219
     67          1           0      -17.494947   -1.622818    4.409717
     68          1           0      -12.383630   -1.054145    5.364861
     69          1           0      -13.646220   -1.897934    6.132791
     70          1           0      -13.257049   -0.425276    8.030453
     71          1           0      -13.759126    0.928692    6.983724
     72          1           0      -12.178460    0.424586    6.849527
     73          1           0       -9.579099    3.601537    2.958392
     74          1           0       -9.118673    1.919695    3.267600
     75          1           0      -10.510436    2.681475    4.053862
     76          1           0       -9.697167    2.096684   -2.165007
     77          1           0      -13.644054    5.733386   -1.884959
     78          1           0      -12.560170    5.718256   -3.292039
     79          1           0      -12.278849    6.744503   -1.959386
     80         12           0       13.668715   -0.856336   -0.522301
     81          6           0       13.861487    2.689601   -0.033655
     82          6           0       10.399085   -0.607121   -0.692565
     83          6           0       13.658982   -4.149185   -0.146159
     84          6           0       17.296644   -0.880230    0.082925
     85          7           0       12.303897    0.865240   -0.423628
     86          6           0       12.563409    2.229911   -0.187256
     87          6           0       11.268844    3.127280   -0.156187
     88          6           0       10.160148    1.942851   -0.455438
     89          6           0       10.957832    0.646066   -0.550590
     90          6           0        9.060875    1.843133    0.687414
     91          6           0       11.254963    4.341605   -1.148748
     92          6           0        9.887836    4.955757   -1.425219
     93          1           0        9.711145    6.393030   -0.902145
     94          7           0       12.219255   -2.201107   -0.531840
     95          6           0       10.867396   -1.971871   -0.635953
     96          6           0       10.099925   -3.199102   -0.663065
     97          6           0       11.101914   -4.237704   -0.511583
     98          6           0       12.424659   -3.518823   -0.461026
     99          6           0        8.664607   -3.327425   -0.872284
    100          6           0       10.944083   -5.747730   -0.469302
    101          8           0       11.861724   -6.519437   -0.458284
    102          6           0        9.522286   -6.228767   -0.350779
    103          7           0       15.251670   -2.312171   -0.027400
    104          6           0       14.947791   -3.633384    0.028789
    105          6           0       16.225244   -4.488819    0.241992
    106          6           0       17.364374   -3.413155    0.172243
    107          6           0       16.607346   -2.108465    0.015144
    108          6           0       16.316164   -5.373844    1.531589
    109          6           0       18.408193   -3.585206   -0.987093
    110          6           0       19.454683   -4.687121   -0.709882
    111          7           0       15.273455    0.523716   -0.052153
    112          6           0       16.636441    0.388558    0.078256
    113          6           0       17.213751    1.667573    0.203220
    114          6           0       16.228670    2.582260    0.225707
    115          6           0       15.005912    1.858079    0.087040
    116          6           0       18.725485    1.852487    0.223275
    117          6           0       15.824205    3.983186    0.380922
    118          8           0       16.484227    4.972392    0.569217
    119          6           0       14.230779    4.075957    0.234981
    120          6           0       13.683752    4.442040    1.577780
    121          8           0       13.369762    3.767257    2.532303
    122          8           0       13.537240    5.814301    1.532416
    123          6           0       12.984097    6.472764    2.739771
    124          1           0        9.307598   -0.632110   -0.708375
    125          1           0       13.571247   -5.205809    0.117936
    126          1           0       18.373982   -1.052757    0.138298
    127          1           0       11.107456    3.437729    0.876261
    128          1           0        9.634466    2.202423   -1.374637
    129          1           0        8.076145    1.737608    0.232406
    130          1           0        9.013446    2.623411    1.446562
    131          1           0        9.164739    0.903317    1.228816
    132          1           0       11.741283    3.880973   -2.009625
    133          1           0       11.919689    5.182438   -0.949447
    134          1           0        9.120110    4.335805   -0.963089
    135          1           0        9.778270    5.089162   -2.501107
    136          1           0        8.673096   -3.843129   -1.832506
    137          1           0        8.178874   -2.351530   -0.877724
    138          1           0        8.098925   -3.946157   -0.175962
    139          1           0        9.128449   -6.436209   -1.345657
    140          1           0        8.948006   -5.711567    0.418408
    141          1           0        9.618062   -7.108193    0.285416
    142          1           0       16.370099   -5.015644   -0.701651
    143          1           0       17.823809   -3.320728    1.156606
    144          1           0       17.156683   -5.173871    2.196780
    145          1           0       16.537482   -6.378163    1.171081
    146          1           0       15.431529   -5.364570    2.168319
    147          1           0       18.957650   -2.653531   -1.117187
    148          1           0       17.806912   -3.767397   -1.878892
    149          1           0       19.525905   -4.883826    0.360030
    150          1           0       20.386206   -4.327577   -1.146865
    151          1           0       19.205161   -5.658274   -1.138362
    152          1           0       19.006888    2.839254   -0.144592
    153          1           0       19.183358    1.055799   -0.363108
    154          1           0       19.116094    1.673384    1.225243
    155          1           0       13.937023    4.785604   -0.538824
    156          1           0       13.555138    7.393914    2.855267
    157          1           0       13.058856    5.877864    3.649928
    158          1           0       11.962575    6.637114    2.395465
 ---------------------------------------------------------------------

 SCF Done:  E(RwB97XD) =  -4070.56722442     A.U. after   19 cycles

 Excitation energies and oscillator strengths:

 Excited State   1:      Singlet-A      1.5767 eV  786.36 nm  f=0.4019  <S**2>=0.000
     309 -> 315        0.17497
     311 -> 313        0.68645
     309 <- 315        0.11860
 This state for optimization and/or second-order correction.
 Total Energy, E(TD-HF/TD-DFT) =  -4070.50928218
 Copying the excited state density for this state as the 1-particle RhoCI density.

 Excited State   2:      Singlet-A      1.6367 eV  757.52 nm  f=0.3853  <S**2>=0.000
     310 -> 316       -0.18390
     312 -> 314        0.68408
     310 <- 316       -0.11737

 Excited State   3:      Singlet-A      2.0920 eV  592.67 nm  f=0.1436  <S**2>=0.000
     309 -> 313        0.64989
     311 -> 315       -0.25886

 Excited State   4:      Singlet-A      2.1546 eV  575.45 nm  f=0.1354  <S**2>=0.000
     310 -> 314        0.64886
     312 -> 316        0.26854

 Excited State   5:      Singlet-A      3.0065 eV  412.38 nm  f=0.0074  <S**2>=0.000
     307 -> 313        0.21859
     308 -> 313        0.63562
     308 -> 317        0.12460

 The electronic state is 1-A.
 Alpha  occ. eigenvalues --  -46.96384 -46.94848 -19.31561 -19.29031 -19.25413
 Alpha  occ. eigenvalues --  -19.24793 -19.24115 -19.23919 -19.23695 -19.22256
 Alpha  occ. eigenvalues --  -14.47256 -14.46768 -14.46729 -14.45847 -14.44690
 Alpha  occ. eigenvalues --  -14.44368 -14.44163 -14.43404 -10.44482 -10.42762
 Alpha  occ. eigenvalues --  -10.39249 -10.38673 -10.38439 -10.37539 -10.36648
 Alpha  occ. eigenvalues --  -10.36226 -10.35737 -10.35095 -10.35002 -10.34937
 Alpha  occ. eigenvalues --  -10.34908 -10.34883 -10.34829 -10.34777 -10.34333
 Alpha  occ. eigenvalues --  -10.34234 -10.34186 -10.34089 -10.34060 -10.33526
 Alpha  occ. eigenvalues --  -10.33276 -10.33124 -10.33058 -10.33031 -10.32909
 Alpha  occ. eigenvalues --  -10.32881 -10.32855 -10.32664 -10.32593 -10.32462
 Alpha  occ. eigenvalues --  -10.32445 -10.32437 -10.32077 -10.32019 -10.31954
 Alpha  occ. eigenvalues --  -10.31749 -10.31672 -10.31653 -10.31640 -10.31357
 Alpha  occ. eigenvalues --  -10.31075 -10.30990 -10.30865 -10.30835 -10.30831
 Alpha  occ. eigenvalues --  -10.30827 -10.30814 -10.30795 -10.30795 -10.30793
 Alpha  occ. eigenvalues --  -10.30784 -10.30734 -10.30610 -10.30277 -10.30137
 Alpha  occ. eigenvalues --  -10.29991 -10.29965 -10.29703 -10.29691 -10.29545
 Alpha  occ. eigenvalues --  -10.29540 -10.29434 -10.29343 -10.29072 -10.29012
 Alpha  occ. eigenvalues --  -10.28698  -3.22319  -3.20838  -1.95860  -1.95475
 Alpha  occ. eigenvalues --   -1.95258  -1.94424  -1.93940  -1.93827  -1.17973
 Alpha  occ. eigenvalues --   -1.17803  -1.13650  -1.13535  -1.12996  -1.11742
 Alpha  occ. eigenvalues --   -1.09609  -1.09575  -1.07291  -1.06511  -1.05769
 Alpha  occ. eigenvalues --   -1.05288  -1.05016  -1.04447  -1.04243  -1.03559
 Alpha  occ. eigenvalues --   -0.95828  -0.94947  -0.91795  -0.90778  -0.90712
 Alpha  occ. eigenvalues --   -0.90397  -0.90091  -0.89995  -0.89902  -0.89269
 Alpha  occ. eigenvalues --   -0.89043  -0.88712  -0.87922  -0.87869  -0.86538
 Alpha  occ. eigenvalues --   -0.85989  -0.85763  -0.85091  -0.85036  -0.84178
 Alpha  occ. eigenvalues --   -0.84020  -0.83904  -0.83019  -0.82634  -0.82606
 Alpha  occ. eigenvalues --   -0.81986  -0.80547  -0.80025  -0.79835  -0.78999
 Alpha  occ. eigenvalues --   -0.78837  -0.78734  -0.78509  -0.77517  -0.77415
 Alpha  occ. eigenvalues --   -0.76707  -0.75673  -0.74708  -0.73826  -0.73224
 Alpha  occ. eigenvalues --   -0.72047  -0.71510  -0.71465  -0.70621  -0.70443
 Alpha  occ. eigenvalues --   -0.69669  -0.68912  -0.68646  -0.68281  -0.67592
 Alpha  occ. eigenvalues --   -0.66957  -0.66777  -0.66518  -0.66470  -0.66292
 Alpha  occ. eigenvalues --   -0.65841  -0.65688  -0.63414  -0.62369  -0.62021
 Alpha  occ. eigenvalues --   -0.61540  -0.61414  -0.60938  -0.60748  -0.60208
 Alpha  occ. eigenvalues --   -0.60133  -0.59776  -0.59662  -0.59296  -0.58850
 Alpha  occ. eigenvalues --   -0.58585  -0.58040  -0.57884  -0.57613  -0.57344
 Alpha  occ. eigenvalues --   -0.57152  -0.56933  -0.56479  -0.56327  -0.56142
 Alpha  occ. eigenvalues --   -0.56042  -0.56005  -0.55558  -0.55368  -0.55169
 Alpha  occ. eigenvalues --   -0.54568  -0.54512  -0.54254  -0.54130  -0.53841
 Alpha  occ. eigenvalues --   -0.53830  -0.53814  -0.53509  -0.53409  -0.53230
 Alpha  occ. eigenvalues --   -0.53125  -0.52886  -0.52723  -0.52631  -0.52387
 Alpha  occ. eigenvalues --   -0.52053  -0.51992  -0.51710  -0.51675  -0.51558
 Alpha  occ. eigenvalues --   -0.51533  -0.51365  -0.51204  -0.51023  -0.51012
 Alpha  occ. eigenvalues --   -0.50709  -0.50282  -0.50218  -0.49902  -0.49861
 Alpha  occ. eigenvalues --   -0.49690  -0.49610  -0.49561  -0.49371  -0.49235
 Alpha  occ. eigenvalues --   -0.49119  -0.48921  -0.48899  -0.48630  -0.48457
 Alpha  occ. eigenvalues --   -0.48232  -0.48141  -0.47777  -0.47661  -0.47609
 Alpha  occ. eigenvalues --   -0.47552  -0.47344  -0.47312  -0.47162  -0.47060
 Alpha  occ. eigenvalues --   -0.47053  -0.46913  -0.46900  -0.46731  -0.46600
 Alpha  occ. eigenvalues --   -0.46206  -0.46015  -0.45907  -0.45726  -0.45408
 Alpha  occ. eigenvalues --   -0.45385  -0.45062  -0.45054  -0.44745  -0.44628
 Alpha  occ. eigenvalues --   -0.44626  -0.44458  -0.44425  -0.44127  -0.44010
 Alpha  occ. eigenvalues --   -0.43941  -0.43741  -0.43732  -0.43529  -0.43493
 Alpha  occ. eigenvalues --   -0.43284  -0.42994  -0.42757  -0.42636  -0.42532
 Alpha  occ. eigenvalues --   -0.42348  -0.42265  -0.41179  -0.41027  -0.40713
 Alpha  occ. eigenvalues --   -0.40642  -0.40028  -0.39947  -0.39626  -0.39520
 Alpha  occ. eigenvalues --   -0.39061  -0.38938  -0.38447  -0.38403  -0.38248
 Alpha  occ. eigenvalues --   -0.37677  -0.37621  -0.36884  -0.36516  -0.35935
 Alpha  occ. eigenvalues --   -0.35879  -0.35400  -0.34820  -0.33883  -0.33425
 Alpha  occ. eigenvalues --   -0.33150  -0.32786  -0.32666  -0.32524  -0.32241
 Alpha  occ. eigenvalues --   -0.31874  -0.31604  -0.30474  -0.26466  -0.25451
 Alpha  occ. eigenvalues --   -0.23602  -0.22712
 Alpha virt. eigenvalues --   -0.08120  -0.06841  -0.00102   0.00849   0.02254
 Alpha virt. eigenvalues --    0.02990   0.04000   0.04754   0.04776   0.05706
 Alpha virt. eigenvalues --    0.06567   0.07276   0.07563   0.08196   0.08403

 Mulliken charges:
               1
     1  Mg   0.958777
     2  C    0.008359
     3  C   -0.083354
     4  C   -0.083809
     5  C   -0.096652
     6  N   -0.330857
     7  C   -0.005511
     8  C   -0.018810
     9  C   -0.091824
    10  C    0.035732
    11  C    0.041604
    12  C   -0.010833
    13  C   -0.168444
    14  H    0.029725
    15  N   -0.448520
    16  C    0.171602
    17  C   -0.181729
    18  C   -0.096565
    19  C    0.137331
    20  C    0.086320
    21  C    0.013500
    22  O   -0.209676
    23  C   -0.015062
    24  N   -0.361591
    25  C    0.084219
    26  C   -0.139058
    27  C   -0.084264
    28  C    0.074713
    29  C    0.050046
    30  C   -0.015323
    31  C   -0.044737
    32  N   -0.442106
    33  C    0.139289
    34  C   -0.188178
    35  C    0.058599
    36  C    0.109797
    37  C    0.078530
    38  C    0.062332
    39  O   -0.216681
    40  C   -0.121274
    41  C    0.312970
    42  O   -0.256743
    43  O   -0.379206
    44  C    0.144985
    45  H    0.008487
    46  H    0.003818
    47  H   -0.014171
    48  H    0.042143
    49  H    0.049710
    50  H    0.035572
    51  H    0.041443
    52  H    0.026957
    53  H    0.059117
    54  H    0.045111
    55  H    0.064553
    56  H    0.055605
    57  H    0.031726
    58  H    0.063297
    59  H    0.053837
    60  H    0.032405
    61  H    0.070964
    62  H    0.058121
    63  H    0.056102
    64  H    0.040670
    65  H    0.038964
    66  H    0.039633
    67  H    0.032391
    68  H    0.030167
    69  H    0.027749
    70  H    0.056484
    71  H    0.025877
    72  H    0.030815
    73  H    0.060913
    74  H    0.060693
    75  H    0.031989
    76  H    0.065312
    77  H    0.053658
    78  H    0.053925
    79  H    0.058336
    80  Mg   0.977118
    81  C   -0.038649
    82  C   -0.071894
    83  C   -0.068499
    84  C   -0.096359
    85  N   -0.383223
    86  C   -0.009820
    87  C   -0.026821
    88  C   -0.121375
    89  C    0.109382
    90  C   -0.013797
    91  C   -0.019487
    92  C   -0.123169
    93  H    0.029584
    94  N   -0.491527
    95  C    0.111815
    96  C   -0.135999
    97  C   -0.128080
    98  C    0.164515
    99  C    0.081327
   100  C    0.041113
   101  O   -0.208309
   102  C   -0.027419
   103  N   -0.338850
   104  C    0.031368
   105  C   -0.031766
   106  C   -0.109735
   107  C    0.026549
   108  C    0.019902
   109  C   -0.035717
   110  C   -0.029317
   111  N   -0.401597
   112  C    0.165517
   113  C   -0.242088
   114  C    0.014033
   115  C    0.138143
   116  C    0.096260
   117  C    0.119911
   118  O   -0.173156
   119  C   -0.117951
   120  C    0.284985
   121  O   -0.233269
   122  O   -0.386698
   123  C    0.128170
   124  H   -0.028458
   125  H    0.025077
   126  H    0.001696
   127  H    0.050842
   128  H    0.048014
   129  H    0.031432
   130  H    0.050520
   131  H    0.042684
   132  H    0.033652
   133  H    0.059719
   134  H    0.061272
   135  H    0.064050
   136  H    0.057925
   137  H    0.040102
   138  H    0.047202
   139  H    0.079808
   140  H    0.047367
   141  H    0.039836
   142  H    0.038767
   143  H    0.032472
   144  H    0.032605
   145  H    0.039058
   146  H    0.051655
   147  H    0.028450
   148  H    0.032749
   149  H    0.031853
   150  H    0.042717
   151  H    0.037436
   152  H    0.058654
   153  H    0.027589
   154  H    0.045674
   155  H    0.081011
   156  H    0.063629
   157  H    0.072704
   158  H    0.055114
 Sum of Mulliken charges =  -0.00000

 Dipole moment (field-independent basis, Debye):
    X=             -5.2807    Y=             -0.2822    Z=              1.9514  Tot=              5.6368
 Quadrupole moment (field-independent basis, Debye-Ang):
   XX=           -544.8747   YY=           -534.4883   ZZ=           -476.8157
   XY=            -80.7845   XZ=            -68.9769   YZ=             -2.0990

 Normal termination of Gaussian 16 at Sat Sep 18 21:51:39 2021.
