 Gaussian 16, Revision A.03,
 Gaussian 16:  ES64L-G16RevA.03 25-Dec-2016

 --------------------------------
 #p wB97XD/Def2SVP td=(nstates=5)
 --------------------------------

 --------------------------------
 TDDFT excited states in gaussian
 --------------------------------
 Symbolic Z-matrix:
 Charge =  0 Multiplicity = 1

                         Standard orientation:
 ---------------------------------------------------------------------
 Center     Atomic      Atomic             Coordinates (Angstroms)
 Number     Number       Type             X           Y           Z
 ---------------------------------------------------------------------
      1         12           0      -30.594416    0.136826    0.376492
      2          6           0      -28.312129   -1.728740   -1.378673
      3          6           0      -31.195564    1.959093   -2.465231
      4          6           0      -32.821753    2.105983    2.162420
      5          6           0      -29.629143   -1.437209    3.310947
      6          7           0      -29.803296    0.170757   -1.723018
      7          6           0      -28.933405   -0.774709   -2.186495
      8          6           0      -28.675310   -0.595822   -3.603943
      9          6           0      -29.392663    0.688597   -3.988253
     10          6           0      -30.179632    1.022187   -2.646177
     11          6           0      -28.543450    1.902585   -4.501096
     12          6           0      -29.123183   -1.844874   -4.436896
     13          6           0      -28.282367   -2.188089   -5.714864
     14          1           0      -27.579021   -1.018040   -6.430355
     15          7           0      -31.916007    1.735229   -0.150267
     16          6           0      -32.005805    2.318665   -1.402448
     17          6           0      -33.011094    3.399663   -1.354283
     18          6           0      -33.511382    3.453274    0.017807
     19          6           0      -32.775922    2.400712    0.740119
     20          6           0      -33.383106    4.287642   -2.530472
     21          6           0      -34.638389    4.304166    0.555066
     22          8           0      -34.988905    4.163596    1.739895
     23          6           0      -35.357296    5.343245   -0.221173
     24          7           0      -31.102998    0.376197    2.454607
     25          6           0      -32.065234    1.194999    2.889140
     26          6           0      -32.342086    0.966000    4.384344
     27          6           0      -31.494134   -0.369810    4.754910
     28          6           0      -30.747351   -0.537920    3.384937
     29          6           0      -31.979894    2.226250    5.229066
     30          6           0      -32.341023   -1.630948    5.079134
     31          6           0      -32.287222   -2.112416    6.536762
     32          7           0      -29.196266   -1.256554    0.931420
     33          6           0      -28.892267   -1.806915    2.178704
     34          6           0      -27.812824   -2.810040    2.043489
     35          6           0      -27.573310   -2.765992    0.649747
     36          6           0      -28.422966   -1.811152    0.029743
     37          6           0      -27.226608   -3.649313    3.068904
     38          6           0      -26.819797   -3.427177   -0.435703
     39          8           0      -26.052622   -4.352977   -0.426907
     40          6           0      -27.247704   -2.741207   -1.781816
     41          6           0      -26.034597   -2.273980   -2.471630
     42          8           0      -25.401594   -1.299253   -2.034887
     43          8           0      -25.772785   -2.894277   -3.654783
     44          6           0      -24.712494   -2.362901   -4.505417
     45          1           0      -31.364590    2.519027   -3.387388
     46          1           0      -33.499849    2.760451    2.714507
     47          1           0      -29.450619   -1.992759    4.233848
     48          1           0      -27.601253   -0.457473   -3.732588
     49          1           0      -30.216812    0.492556   -4.675132
     50          1           0      -27.460913    1.840153   -4.616733
     51          1           0      -28.742285    2.749319   -3.844586
     52          1           0      -28.889270    2.302328   -5.454681
     53          1           0      -30.184749   -1.766118   -4.671673
     54          1           0      -29.203334   -2.701313   -3.767691
     55          1           0      -28.909289   -2.696135   -6.448183
     56          1           0      -27.417857   -2.814909   -5.498194
     57          1           0      -32.930534    3.972242   -3.469948
     58          1           0      -33.036714    5.309815   -2.375334
     59          1           0      -34.439788    4.168044   -2.769009
     60          1           0      -36.160527    5.703380    0.420941
     61          1           0      -35.764796    4.978534   -1.164965
     62          1           0      -34.652268    6.112419   -0.536927
     63          1           0      -33.386478    0.665161    4.468075
     64          1           0      -30.754493   -0.191782    5.535432
     65          1           0      -32.769559    2.530414    5.916227
     66          1           0      -31.781843    3.082159    4.583278
     67          1           0      -31.050122    1.949565    5.726696
     68          1           0      -32.073523   -2.496532    4.474226
     69          1           0      -33.395702   -1.482588    4.846276
     70          1           0      -32.087549   -1.264089    7.191518
     71          1           0      -31.460402   -2.816257    6.626680
     72          1           0      -33.210778   -2.661228    6.716358
     73          1           0      -26.712236   -4.518757    2.660126
     74          1           0      -27.951068   -4.005039    3.801250
     75          1           0      -26.385102   -3.104907    3.497628
     76          1           0      -27.742214   -3.572035   -2.286234
     77          1           0      -23.711267   -2.452696   -4.083129
     78          1           0      -24.939024   -1.344819   -4.821967
     79          1           0      -24.655484   -2.949652   -5.422112
     80         12           0       30.556430    0.462985   -0.350116
     81          6           0       27.882245   -1.765744    0.229434
     82          6           0       28.302201    3.119874   -0.185585
     83          6           0       33.220177    2.536303    0.119124
     84          6           0       32.724166   -2.361424    0.041671
     85          7           0       28.388717    0.620968   -0.055874
     86          6           0       27.525813   -0.389194    0.183476
     87          6           0       26.094285    0.156646    0.494876
     88          6           0       26.242963    1.658472   -0.029642
     89          6           0       27.789967    1.849324   -0.145618
     90          6           0       25.639121    2.087786   -1.386026
     91          6           0       25.826382    0.030772    2.042329
     92          6           0       24.356762   -0.321344    2.404141
     93          1           0       23.762371    0.435920    3.660685
     94          7           0       30.769920    2.614481   -0.269685
     95          6           0       29.705247    3.476152   -0.267728
     96          6           0       30.243064    4.783420   -0.266002
     97          6           0       31.658656    4.702182   -0.109070
     98          6           0       31.976807    3.235114   -0.129669
     99          6           0       29.429048    6.054578   -0.320672
    100          6           0       32.592985    5.827700    0.178120
    101          8           0       32.193506    6.964339    0.373600
    102          6           0       34.019447    5.696935    0.322809
    103          7           0       32.687581    0.083560    0.141891
    104          6           0       33.586369    1.159966    0.107795
    105          6           0       34.999229    0.667068    0.142029
    106          6           0       34.874383   -0.900897    0.184905
    107          6           0       33.370122   -1.102394    0.123069
    108          6           0       35.746906    1.209580   -1.082684
    109          6           0       35.719057   -1.573304    1.331829
    110          6           0       36.723602   -2.605335    0.917348
    111          7           0       30.392537   -1.688555    0.022424
    112          6           0       31.359943   -2.660825    0.091397
    113          6           0       30.739855   -4.003004    0.144129
    114          6           0       29.371882   -3.641232    0.265085
    115          6           0       29.224271   -2.276777    0.100188
    116          6           0       31.396938   -5.369235    0.262588
    117          6           0       28.075611   -4.191191    0.560717
    118          8           0       27.747148   -5.358559    0.823816
    119          6           0       27.042615   -3.064853    0.539567
    120          6           0       25.956401   -3.353075   -0.415512
    121          8           0       24.827607   -3.424830   -0.088008
    122          8           0       26.354549   -3.330149   -1.720860
    123          6           0       25.184932   -3.363194   -2.625523
    124          1           0       27.616733    3.969886   -0.217033
    125          1           0       34.034327    3.260845    0.171757
    126          1           0       33.215877   -3.321811    0.213321
    127          1           0       25.376531   -0.433992   -0.074669
    128          1           0       26.095651    2.431269    0.724625
    129          1           0       25.555678    1.228987   -2.053035
    130          1           0       26.154028    2.890641   -1.913756
    131          1           0       24.624735    2.417115   -1.163476
    132          1           0       26.144180    0.933466    2.564878
    133          1           0       26.485543   -0.774222    2.367422
    134          1           0       24.395866   -1.394653    2.590924
    135          1           0       23.832798   -0.149604    1.463632
    136          1           0       29.947254    6.945817   -0.674818
    137          1           0       29.103825    6.189572    0.710530
    138          1           0       28.438146    5.980627   -0.768759
    139          1           0       34.398046    5.320968   -0.628534
    140          1           0       34.273045    5.052622    1.165112
    141          1           0       34.436749    6.683243    0.525888
    142          1           0       35.469326    0.916372    1.093020
    143          1           0       35.062720   -1.448206   -0.738981
    144          1           0       35.222881    2.025575   -1.580922
    145          1           0       35.882822    0.442562   -1.845121
    146          1           0       36.636418    1.747334   -0.755867
    147          1           0       34.973922   -2.010513    1.996462
    148          1           0       36.382706   -0.884976    1.853887
    149          1           0       36.503648   -3.510532    1.482694
    150          1           0       37.739353   -2.314007    1.185351
    151          1           0       36.781087   -2.739727   -0.162850
    152          1           0       31.663951   -5.620450    1.289286
    153          1           0       32.249798   -5.496057   -0.405418
    154          1           0       30.558270   -6.020325    0.016283
    155          1           0       26.514473   -3.034948    1.491734
    156          1           0       25.558814   -3.342525   -3.649518
    157          1           0       24.527816   -2.514291   -2.437190
    158          1           0       24.629105   -4.300012   -2.607091
 ---------------------------------------------------------------------

 SCF Done:  E(RwB97XD) =  -4070.62210002     A.U. after   20 cycles

 Excitation energies and oscillator strengths:

 Excited State   1:      Singlet-A      1.6192 eV  765.70 nm  f=0.4051  <S**2>=0.000
     309 -> 315       -0.17887
     311 -> 313        0.68466
     309 <- 315       -0.11646
 This state for optimization and/or second-order correction.
 Total Energy, E(TD-HF/TD-DFT) =  -4070.56259444
 Copying the excited state density for this state as the 1-particle RhoCI density.

 Excited State   2:      Singlet-A      1.6697 eV  742.56 nm  f=0.3886  <S**2>=0.000
     310 -> 316       -0.19471
     312 -> 314        0.68026
     310 <- 316       -0.11869

 Excited State   3:      Singlet-A      2.1451 eV  577.98 nm  f=0.1102  <S**2>=0.000
     309 -> 313        0.63986
     311 -> 315        0.28459

 Excited State   4:      Singlet-A      2.1969 eV  564.35 nm  f=0.0829  <S**2>=0.000
     310 -> 314        0.62414
     312 -> 316        0.31816

 Excited State   5:      Singlet-A      3.2207 eV  384.96 nm  f=0.0033  <S**2>=0.000
     304 -> 313       -0.13596
     306 -> 313       -0.11682
     308 -> 313        0.65568
     308 -> 317        0.10331

 The electronic state is 1-A.
 Alpha  occ. eigenvalues --  -46.97164 -46.95213 -19.31182 -19.30348 -19.24854
 Alpha  occ. eigenvalues --  -19.24253 -19.24081 -19.23951 -19.23403 -19.22312
 Alpha  occ. eigenvalues --  -14.47609 -14.47280 -14.46399 -14.46283 -14.44484
 Alpha  occ. eigenvalues --  -14.44116 -14.43897 -14.43827 -10.43412 -10.42572
 Alpha  occ. eigenvalues --  -10.38929 -10.38866 -10.38830 -10.37410 -10.36308
 Alpha  occ. eigenvalues --  -10.36066 -10.36016 -10.35886 -10.35579 -10.35098
 Alpha  occ. eigenvalues --  -10.35006 -10.34916 -10.34686 -10.34659 -10.34414
 Alpha  occ. eigenvalues --  -10.34246 -10.34115 -10.34065 -10.33945 -10.33868
 Alpha  occ. eigenvalues --  -10.33526 -10.33338 -10.33285 -10.33115 -10.33112
 Alpha  occ. eigenvalues --  -10.33076 -10.32761 -10.32671 -10.32583 -10.32514
 Alpha  occ. eigenvalues --  -10.32502 -10.32496 -10.32323 -10.32282 -10.32198
 Alpha  occ. eigenvalues --  -10.32052 -10.31960 -10.31886 -10.31846 -10.31652
 Alpha  occ. eigenvalues --  -10.31575 -10.31558 -10.31426 -10.31426 -10.31325
 Alpha  occ. eigenvalues --  -10.31248 -10.31026 -10.30978 -10.30908 -10.30757
 Alpha  occ. eigenvalues --  -10.30739 -10.30518 -10.30391 -10.30254 -10.30094
 Alpha  occ. eigenvalues --  -10.29965 -10.29926 -10.29922 -10.29919 -10.29567
 Alpha  occ. eigenvalues --  -10.29537 -10.29355 -10.29309 -10.29168 -10.29153
 Alpha  occ. eigenvalues --  -10.29135  -3.22808  -3.21084  -1.96401  -1.95899
 Alpha  occ. eigenvalues --   -1.95760  -1.94694  -1.94189  -1.94059  -1.20147
 Alpha  occ. eigenvalues --   -1.18609  -1.13182  -1.11729  -1.11267  -1.11226
 Alpha  occ. eigenvalues --   -1.11129  -1.09306  -1.07179  -1.07110  -1.06052
 Alpha  occ. eigenvalues --   -1.05754  -1.05446  -1.05390  -1.04565  -1.03000
 Alpha  occ. eigenvalues --   -0.94640  -0.94448  -0.91293  -0.91004  -0.90960
 Alpha  occ. eigenvalues --   -0.90163  -0.90126  -0.89963  -0.89587  -0.89122
 Alpha  occ. eigenvalues --   -0.89000  -0.88654  -0.88205  -0.87759  -0.86789
 Alpha  occ. eigenvalues --   -0.86603  -0.85880  -0.85443  -0.84638  -0.84406
 Alpha  occ. eigenvalues --   -0.84202  -0.83785  -0.83147  -0.82897  -0.82529
 Alpha  occ. eigenvalues --   -0.82505  -0.80617  -0.80398  -0.79560  -0.79482
 Alpha  occ. eigenvalues --   -0.79238  -0.78809  -0.78418  -0.78144  -0.77369
 Alpha  occ. eigenvalues --   -0.76813  -0.75162  -0.74590  -0.74504  -0.73483
 Alpha  occ. eigenvalues --   -0.71367  -0.71206  -0.71162  -0.70262  -0.70014
 Alpha  occ. eigenvalues --   -0.69934  -0.68920  -0.68854  -0.68299  -0.67770
 Alpha  occ. eigenvalues --   -0.67658  -0.67334  -0.67041  -0.67016  -0.66659
 Alpha  occ. eigenvalues --   -0.66324  -0.65320  -0.64705  -0.62097  -0.62034
 Alpha  occ. eigenvalues --   -0.61832  -0.61559  -0.61210  -0.60995  -0.60878
 Alpha  occ. eigenvalues --   -0.60709  -0.60286  -0.60210  -0.59273  -0.59059
 Alpha  occ. eigenvalues --   -0.58460  -0.58037  -0.58033  -0.57826  -0.57547
 Alpha  occ. eigenvalues --   -0.57348  -0.57086  -0.56665  -0.56517  -0.55910
 Alpha  occ. eigenvalues --   -0.55501  -0.55391  -0.55323  -0.55101  -0.54872
 Alpha  occ. eigenvalues --   -0.54778  -0.54720  -0.54577  -0.54338  -0.54216
 Alpha  occ. eigenvalues --   -0.54142  -0.53679  -0.53545  -0.53443  -0.53407
 Alpha  occ. eigenvalues --   -0.53287  -0.53230  -0.53065  -0.52830  -0.52127
 Alpha  occ. eigenvalues --   -0.51975  -0.51906  -0.51804  -0.51793  -0.51545
 Alpha  occ. eigenvalues --   -0.51287  -0.51245  -0.51036  -0.50924  -0.50571
 Alpha  occ. eigenvalues --   -0.50450  -0.50373  -0.50330  -0.50110  -0.50009
 Alpha  occ. eigenvalues --   -0.49847  -0.49466  -0.49400  -0.49263  -0.49153
 Alpha  occ. eigenvalues --   -0.49057  -0.48947  -0.48717  -0.48636  -0.48629
 Alpha  occ. eigenvalues --   -0.48274  -0.48255  -0.48179  -0.47806  -0.47686
 Alpha  occ. eigenvalues --   -0.47622  -0.47440  -0.47149  -0.47102  -0.47042
 Alpha  occ. eigenvalues --   -0.46838  -0.46805  -0.46642  -0.46466  -0.46304
 Alpha  occ. eigenvalues --   -0.46251  -0.45998  -0.45751  -0.45554  -0.45535
 Alpha  occ. eigenvalues --   -0.45394  -0.45309  -0.45087  -0.44952  -0.44932
 Alpha  occ. eigenvalues --   -0.44821  -0.44555  -0.44537  -0.44345  -0.44066
 Alpha  occ. eigenvalues --   -0.43788  -0.43703  -0.43371  -0.43307  -0.43131
 Alpha  occ. eigenvalues --   -0.42907  -0.42832  -0.42650  -0.42576  -0.42239
 Alpha  occ. eigenvalues --   -0.42067  -0.41857  -0.41545  -0.41407  -0.41133
 Alpha  occ. eigenvalues --   -0.40591  -0.40080  -0.39928  -0.39663  -0.39417
 Alpha  occ. eigenvalues --   -0.39246  -0.39197  -0.38942  -0.38773  -0.38698
 Alpha  occ. eigenvalues --   -0.38338  -0.37927  -0.36911  -0.36137  -0.36017
 Alpha  occ. eigenvalues --   -0.35911  -0.35758  -0.35358  -0.33718  -0.33273
 Alpha  occ. eigenvalues --   -0.32983  -0.32889  -0.32695  -0.32612  -0.32225
 Alpha  occ. eigenvalues --   -0.31915  -0.31694  -0.31334  -0.26432  -0.25792
 Alpha  occ. eigenvalues --   -0.23371  -0.22600
 Alpha virt. eigenvalues --   -0.07761  -0.06648  -0.00346   0.00190   0.02327
 Alpha virt. eigenvalues --    0.02594   0.04408   0.04544   0.04691   0.06126
 Alpha virt. eigenvalues --    0.06616   0.07273   0.07945   0.08000   0.08206

 Mulliken charges:
               1
     1  Mg   0.952555
     2  C   -0.029948
     3  C   -0.087618
     4  C   -0.053777
     5  C   -0.079068
     6  N   -0.317180
     7  C   -0.008979
     8  C   -0.054136
     9  C   -0.041570
    10  C   -0.009006
    11  C    0.019996
    12  C    0.021226
    13  C   -0.115169
    14  H    0.015617
    15  N   -0.461375
    16  C    0.197418
    17  C   -0.169605
    18  C   -0.061203
    19  C    0.119957
    20  C    0.061195
    21  C    0.038505
    22  O   -0.262809
    23  C    0.013350
    24  N   -0.332988
    25  C    0.064274
    26  C   -0.091938
    27  C   -0.098977
    28  C    0.041214
    29  C    0.031133
    30  C   -0.015229
    31  C   -0.053807
    32  N   -0.449304
    33  C    0.129962
    34  C   -0.162211
    35  C   -0.055544
    36  C    0.144892
    37  C    0.075973
    38  C    0.096387
    39  O   -0.183871
    40  C   -0.042233
    41  C    0.280696
    42  O   -0.276072
    43  O   -0.352465
    44  C    0.141035
    45  H   -0.023841
    46  H    0.028210
    47  H   -0.002393
    48  H    0.045934
    49  H    0.034451
    50  H    0.048886
    51  H    0.031139
    52  H    0.026852
    53  H    0.018628
    54  H    0.024785
    55  H    0.055075
    56  H    0.067028
    57  H    0.025616
    58  H    0.064204
    59  H    0.051434
    60  H    0.063679
    61  H    0.041641
    62  H    0.053102
    63  H    0.040545
    64  H    0.038373
    65  H    0.048238
    66  H    0.046064
    67  H    0.029734
    68  H    0.031751
    69  H    0.025725
    70  H    0.040598
    71  H    0.032178
    72  H    0.041538
    73  H    0.049771
    74  H    0.047510
    75  H    0.057517
    76  H    0.066903
    77  H    0.067229
    78  H    0.052472
    79  H    0.050122
    80  Mg   0.930299
    81  C   -0.012444
    82  C   -0.078726
    83  C   -0.029762
    84  C   -0.055248
    85  N   -0.359288
    86  C   -0.011231
    87  C   -0.090496
    88  C   -0.100352
    89  C    0.079405
    90  C    0.033002
    91  C    0.011790
    92  C   -0.106996
    93  H    0.041725
    94  N   -0.446476
    95  C    0.131634
    96  C   -0.166312
    97  C   -0.071340
    98  C    0.121510
    99  C    0.092405
   100  C   -0.000444
   101  O   -0.245893
   102  C    0.011332
   103  N   -0.354176
   104  C    0.049186
   105  C   -0.068727
   106  C   -0.054135
   107  C    0.053359
   108  C    0.028807
   109  C   -0.008416
   110  C   -0.059099
   111  N   -0.367780
   112  C    0.038775
   113  C   -0.158722
   114  C   -0.038392
   115  C    0.117455
   116  C    0.062081
   117  C    0.094551
   118  O   -0.225709
   119  C   -0.017654
   120  C    0.221516
   121  O   -0.212583
   122  O   -0.366508
   123  C    0.139990
   124  H    0.006057
   125  H   -0.031089
   126  H   -0.001355
   127  H    0.038055
   128  H    0.035484
   129  H    0.032287
   130  H    0.046110
   131  H    0.040163
   132  H    0.042479
   133  H    0.036093
   134  H    0.065965
   135  H    0.053264
   136  H    0.070750
   137  H    0.039803
   138  H    0.017331
   139  H    0.051111
   140  H    0.064326
   141  H    0.052282
   142  H    0.047995
   143  H    0.037676
   144  H    0.035133
   145  H    0.041419
   146  H    0.037074
   147  H    0.041966
   148  H    0.039582
   149  H    0.042341
   150  H    0.030766
   151  H    0.032994
   152  H    0.064842
   153  H    0.051570
   154  H    0.065772
   155  H    0.062070
   156  H    0.046740
   157  H    0.053355
   158  H    0.057679
 Sum of Mulliken charges =  -0.00000

 Dipole moment (field-independent basis, Debye):
    X=              1.7888    Y=              0.8054    Z=             -5.7672  Tot=              6.0917
 Quadrupole moment (field-independent basis, Debye-Ang):
   XX=           -115.9519   YY=           -563.2226   ZZ=           -468.3048
   XY=            -39.8526   XZ=             19.0936   YZ=            -10.6791

 Normal termination of Gaussian 16 at Sun Sep 19 22:09:56 2021.
