 Gaussian 16, Revision A.03,
 Gaussian 16:  ES64L-G16RevA.03 25-Dec-2016

 --------------------------------
 #p wB97XD/Def2SVP td=(nstates=5)
 --------------------------------

 --------------------------------
 TDDFT excited states in gaussian
 --------------------------------
 Symbolic Z-matrix:
 Charge =  0 Multiplicity = 1

                         Standard orientation:
 ---------------------------------------------------------------------
 Center     Atomic      Atomic             Coordinates (Angstroms)
 Number     Number       Type             X           Y           Z
 ---------------------------------------------------------------------
      1         12           0      -11.786728    0.783841   -0.119858
      2          6           0      -10.016851   -2.024416   -1.144731
      3          6           0      -12.984440   -1.240968    2.577767
      4          6           0      -13.117278    3.462066    1.244705
      5          6           0       -9.924612    2.699150   -2.404993
      6          7           0      -11.420288   -1.337906    0.673377
      7          6           0      -10.712983   -2.301581   -0.009870
      8          6           0      -10.739143   -3.622257    0.764338
      9          6           0      -11.906540   -3.380784    1.760884
     10          6           0      -12.109888   -1.889112    1.717654
     11          6           0      -13.278228   -4.121755    1.509470
     12          6           0       -9.402757   -3.944466    1.453007
     13          6           0       -9.308760   -5.285183    2.074934
     14          1           0       -7.863038   -5.867072    2.312401
     15          7           0      -12.905399    1.099843    1.691715
     16          6           0      -13.311345    0.145842    2.637859
     17          6           0      -14.076583    0.820228    3.649153
     18          6           0      -14.012526    2.231070    3.349926
     19          6           0      -13.331216    2.311954    2.011774
     20          6           0      -14.664013    0.092689    4.889923
     21          6           0      -14.635406    3.298297    4.255487
     22          8           0      -15.346570    3.005581    5.202363
     23          6           0      -14.372825    4.726994    3.966757
     24          7           0      -11.708870    2.769844   -0.683407
     25          6           0      -12.389111    3.673643    0.029962
     26          6           0      -12.039255    5.129859   -0.480711
     27          6           0      -10.968681    4.941363   -1.623315
     28          6           0      -10.798000    3.326747   -1.546997
     29          6           0      -13.221299    6.060268   -0.859874
     30          6           0       -9.660369    5.673702   -1.255892
     31          6           0       -8.836359    6.176264   -2.447585
     32          7           0      -10.261674    0.483660   -1.531823
     33          6           0       -9.697072    1.307830   -2.464613
     34          6           0       -8.862908    0.494836   -3.357745
     35          6           0       -9.040516   -0.794074   -2.931665
     36          6           0       -9.824864   -0.771056   -1.800774
     37          6           0       -8.099796    0.999071   -4.586876
     38          6           0       -8.641502   -2.149388   -3.165211
     39          8           0       -7.951066   -2.654668   -4.015723
     40          6           0       -9.272975   -3.009005   -2.019635
     41          6           0      -10.239260   -3.951853   -2.647151
     42          8           0      -11.102810   -3.687344   -3.436940
     43          8           0      -10.076962   -5.216490   -2.055305
     44          6           0      -10.993942   -6.229479   -2.494557
     45          1           0      -13.369499   -1.959835    3.303362
     46          1           0      -13.510486    4.428932    1.567087
     47          1           0       -9.382247    3.253188   -3.174140
     48          1           0      -11.061108   -4.378045    0.049223
     49          1           0      -11.684403   -3.572663    2.810034
     50          1           0      -13.499094   -4.594463    2.466242
     51          1           0      -13.410840   -4.640251    0.559524
     52          1           0      -14.034525   -3.341689    1.423467
     53          1           0       -9.151252   -3.318611    2.309680
     54          1           0       -8.583097   -3.818901    0.745467
     55          1           0       -9.874459   -5.964221    1.436975
     56          1           0       -9.845570   -5.270999    3.023317
     57          1           0      -13.936486    0.459492    5.614683
     58          1           0      -14.532330   -0.989191    4.916504
     59          1           0      -15.679933    0.247620    5.253715
     60          1           0      -13.291148    4.786664    3.846341
     61          1           0      -14.639831    5.310006    4.848327
     62          1           0      -14.939323    4.907428    3.052848
     63          1           0      -11.573527    5.628824    0.369601
     64          1           0      -11.301256    5.222724   -2.621975
     65          1           0      -13.323590    6.810335   -0.074987
     66          1           0      -14.103484    5.445356   -1.034901
     67          1           0      -12.962780    6.640328   -1.745739
     68          1           0       -9.093638    4.950964   -0.669444
     69          1           0       -9.793333    6.496492   -0.553155
     70          1           0       -8.754325    7.245800   -2.251012
     71          1           0       -9.255211    5.933101   -3.424156
     72          1           0       -7.824672    5.772696   -2.404325
     73          1           0       -7.082476    0.629292   -4.710684
     74          1           0       -8.137194    2.079144   -4.442981
     75          1           0       -8.771704    0.857949   -5.433618
     76          1           0       -8.447014   -3.541156   -1.547567
     77          1           0      -10.412366   -6.929827   -3.094113
     78          1           0      -11.882012   -5.940883   -3.057338
     79          1           0      -11.380559   -6.722844   -1.603217
     80         12           0       11.747858    0.351476    0.323463
     81          6           0        8.899681   -1.619002   -0.323070
     82          6           0       11.661364    1.450467   -2.888302
     83          6           0       14.550660    2.132319    0.965991
     84          6           0       12.011517   -1.166405    3.435546
     85          7           0       10.516618   -0.102972   -1.409122
     86          6           0        9.335859   -0.850591   -1.415445
     87          6           0        8.645363   -0.678222   -2.734944
     88          6           0        9.776482   -0.123395   -3.633001
     89          6           0       10.732893    0.458523   -2.560324
     90          6           0       10.550556   -1.140752   -4.529430
     91          6           0        7.362358    0.235432   -2.725473
     92          6           0        6.182964   -0.346099   -3.437973
     93          1           0        5.410469    0.600340   -4.375785
     94          7           0       12.836380    1.660458   -0.762095
     95          6           0       12.596251    2.077394   -2.081963
     96          6           0       13.536634    3.056431   -2.457622
     97          6           0       14.434748    3.303646   -1.315430
     98          6           0       13.961871    2.381983   -0.322218
     99          6           0       13.695745    3.638996   -3.831531
    100          6           0       15.710879    4.234483   -1.131252
    101          8           0       16.289991    4.290869   -0.072409
    102          6           0       16.176318    5.156416   -2.249275
    103          7           0       13.151555    0.379127    1.934155
    104          6           0       14.233639    1.199851    1.931543
    105          6           0       15.093173    0.985206    3.267765
    106          6           0       14.107525    0.144954    4.192204
    107          6           0       13.001305   -0.258227    3.126687
    108          6           0       16.467419    0.280603    3.097176
    109          6           0       13.515503    0.949883    5.403504
    110          6           0       13.734862    0.244029    6.675253
    111          7           0       10.722814   -1.126433    1.347016
    112          6           0       10.882228   -1.565484    2.660484
    113          6           0        9.852015   -2.513568    2.986762
    114          6           0        9.078834   -2.582807    1.845811
    115          6           0        9.594725   -1.740289    0.912222
    116          6           0        9.720695   -3.151471    4.394380
    117          6           0        7.929336   -3.227985    1.238417
    118          8           0        7.262229   -4.135971    1.683169
    119          6           0        7.776901   -2.626662   -0.246047
    120          6           0        7.877563   -3.728321   -1.220767
    121          8           0        8.865636   -4.501827   -1.323237
    122          8           0        6.718312   -3.774580   -1.938275
    123          6           0        6.509470   -5.044254   -2.683479
    124          1           0       11.595608    1.725844   -3.942922
    125          1           0       15.465472    2.656391    1.249869
    126          1           0       12.149130   -1.684851    4.386190
    127          1           0        8.376118   -1.616804   -3.220884
    128          1           0        9.441502    0.644983   -4.329981
    129          1           0        9.935570   -1.962883   -4.897812
    130          1           0       11.386463   -1.512158   -3.936061
    131          1           0       11.079119   -0.714617   -5.381767
    132          1           0        7.688335    1.181143   -3.158032
    133          1           0        7.071240    0.507518   -1.710498
    134          1           0        5.581113   -0.688584   -2.596053
    135          1           0        6.514592   -1.145083   -4.100981
    136          1           0       13.358892    4.669080   -3.950026
    137          1           0       13.056965    3.094165   -4.525503
    138          1           0       14.686176    3.630847   -4.285802
    139          1           0       16.961549    5.771914   -1.812039
    140          1           0       15.340970    5.686878   -2.707271
    141          1           0       16.458868    4.564228   -3.120158
    142          1           0       15.383870    1.951442    3.680376
    143          1           0       14.638819   -0.742199    4.540066
    144          1           0       16.707016   -0.081674    2.096911
    145          1           0       16.584669   -0.590114    3.742797
    146          1           0       17.227165    1.006214    3.388866
    147          1           0       12.435033    1.024003    5.274735
    148          1           0       13.945207    1.941583    5.543373
    149          1           0       14.594724    0.690754    7.175121
    150          1           0       13.827283   -0.841462    6.670875
    151          1           0       12.846542    0.342186    7.299332
    152          1           0       10.303025   -2.563269    5.104013
    153          1           0        9.932690   -4.221373    4.370587
    154          1           0        8.674038   -3.000090    4.655734
    155          1           0        6.827877   -2.105123   -0.372907
    156          1           0        5.511038   -5.066364   -3.119910
    157          1           0        6.490248   -5.818526   -1.916207
    158          1           0        7.342610   -5.139197   -3.380434
 ---------------------------------------------------------------------

 SCF Done:  E(RwB97XD) =  -4070.63368010     A.U. after   19 cycles

 Excitation energies and oscillator strengths:

 Excited State   1:      Singlet-A      1.6892 eV  733.99 nm  f=0.4001  <S**2>=0.000
     310 -> 316       -0.18336
     312 -> 314        0.68245
     310 <- 316       -0.11553
 This state for optimization and/or second-order correction.
 Total Energy, E(TD-HF/TD-DFT) =  -4070.57160385
 Copying the excited state density for this state as the 1-particle RhoCI density.

 Excited State   2:      Singlet-A      1.7224 eV  719.83 nm  f=0.3867  <S**2>=0.000
     309 -> 315       -0.17617
     311 -> 313        0.68535
     309 <- 315       -0.11109

 Excited State   3:      Singlet-A      2.1430 eV  578.56 nm  f=0.1548  <S**2>=0.000
     310 -> 314        0.65154
     312 -> 316        0.25238

 Excited State   4:      Singlet-A      2.2425 eV  552.89 nm  f=0.1139  <S**2>=0.000
     309 -> 313        0.63523
     311 -> 315        0.29252

 Excited State   5:      Singlet-A      3.2006 eV  387.38 nm  f=0.0020  <S**2>=0.000
     306 -> 314       -0.29884
     308 -> 314        0.62202

 The electronic state is 1-A.
 Alpha  occ. eigenvalues --  -46.95997 -46.93501 -19.30788 -19.30162 -19.25394
 Alpha  occ. eigenvalues --  -19.24901 -19.24401 -19.24014 -19.23751 -19.23521
 Alpha  occ. eigenvalues --  -14.47224 -14.46958 -14.46628 -14.46051 -14.44858
 Alpha  occ. eigenvalues --  -14.43927 -14.43646 -14.43103 -10.43324 -10.43205
 Alpha  occ. eigenvalues --  -10.40324 -10.38983 -10.38853 -10.38108 -10.36447
 Alpha  occ. eigenvalues --  -10.35809 -10.35712 -10.35330 -10.35183 -10.35053
 Alpha  occ. eigenvalues --  -10.35021 -10.34939 -10.34692 -10.34649 -10.34601
 Alpha  occ. eigenvalues --  -10.34534 -10.34382 -10.33962 -10.33786 -10.33156
 Alpha  occ. eigenvalues --  -10.33110 -10.33039 -10.32525 -10.32509 -10.32306
 Alpha  occ. eigenvalues --  -10.32275 -10.32263 -10.32239 -10.32227 -10.32132
 Alpha  occ. eigenvalues --  -10.32090 -10.32004 -10.31995 -10.31940 -10.31895
 Alpha  occ. eigenvalues --  -10.31801 -10.31768 -10.31758 -10.31757 -10.31665
 Alpha  occ. eigenvalues --  -10.31640 -10.31605 -10.31435 -10.31428 -10.31160
 Alpha  occ. eigenvalues --  -10.30984 -10.30887 -10.30694 -10.30598 -10.30484
 Alpha  occ. eigenvalues --  -10.30400 -10.30352 -10.30309 -10.30295 -10.30150
 Alpha  occ. eigenvalues --  -10.29977 -10.29935 -10.29895 -10.29878 -10.29811
 Alpha  occ. eigenvalues --  -10.29579 -10.29442 -10.29153 -10.28416 -10.28293
 Alpha  occ. eigenvalues --  -10.27922  -3.21875  -3.19636  -1.95467  -1.95000
 Alpha  occ. eigenvalues --   -1.94827  -1.93237  -1.92754  -1.92636  -1.18751
 Alpha  occ. eigenvalues --   -1.17850  -1.13924  -1.12522  -1.12490  -1.12372
 Alpha  occ. eigenvalues --   -1.11009  -1.08439  -1.06902  -1.06589  -1.05830
 Alpha  occ. eigenvalues --   -1.05725  -1.05304  -1.04858  -1.04529  -1.03467
 Alpha  occ. eigenvalues --   -0.95209  -0.94490  -0.91264  -0.91172  -0.91010
 Alpha  occ. eigenvalues --   -0.90708  -0.90516  -0.90010  -0.89900  -0.88919
 Alpha  occ. eigenvalues --   -0.88416  -0.88342  -0.87895  -0.87724  -0.87137
 Alpha  occ. eigenvalues --   -0.86157  -0.85916  -0.85662  -0.85070  -0.84756
 Alpha  occ. eigenvalues --   -0.84519  -0.84015  -0.83232  -0.83093  -0.82815
 Alpha  occ. eigenvalues --   -0.82581  -0.80191  -0.79706  -0.79257  -0.79183
 Alpha  occ. eigenvalues --   -0.79056  -0.78638  -0.78122  -0.77598  -0.77488
 Alpha  occ. eigenvalues --   -0.76786  -0.75204  -0.74821  -0.74027  -0.72869
 Alpha  occ. eigenvalues --   -0.71297  -0.70984  -0.70553  -0.69992  -0.69743
 Alpha  occ. eigenvalues --   -0.69460  -0.68745  -0.68479  -0.67988  -0.67543
 Alpha  occ. eigenvalues --   -0.67406  -0.67064  -0.66955  -0.66606  -0.66539
 Alpha  occ. eigenvalues --   -0.65999  -0.64659  -0.63868  -0.62300  -0.62295
 Alpha  occ. eigenvalues --   -0.62048  -0.61866  -0.61282  -0.61206  -0.60777
 Alpha  occ. eigenvalues --   -0.60441  -0.60098  -0.59642  -0.59561  -0.59539
 Alpha  occ. eigenvalues --   -0.58490  -0.58149  -0.57819  -0.57591  -0.57440
 Alpha  occ. eigenvalues --   -0.57353  -0.56825  -0.56816  -0.56301  -0.55941
 Alpha  occ. eigenvalues --   -0.55686  -0.55513  -0.55494  -0.55328  -0.55267
 Alpha  occ. eigenvalues --   -0.55092  -0.54565  -0.54516  -0.54442  -0.53841
 Alpha  occ. eigenvalues --   -0.53790  -0.53697  -0.53650  -0.53611  -0.53475
 Alpha  occ. eigenvalues --   -0.52923  -0.52801  -0.52760  -0.52643  -0.52411
 Alpha  occ. eigenvalues --   -0.52297  -0.52188  -0.52007  -0.51791  -0.51701
 Alpha  occ. eigenvalues --   -0.51316  -0.51303  -0.51237  -0.51072  -0.50963
 Alpha  occ. eigenvalues --   -0.50823  -0.50589  -0.50228  -0.50058  -0.49837
 Alpha  occ. eigenvalues --   -0.49540  -0.49476  -0.49322  -0.49125  -0.49083
 Alpha  occ. eigenvalues --   -0.48988  -0.48716  -0.48529  -0.48409  -0.48338
 Alpha  occ. eigenvalues --   -0.48324  -0.48064  -0.48019  -0.47772  -0.47733
 Alpha  occ. eigenvalues --   -0.47615  -0.47292  -0.47275  -0.47023  -0.46942
 Alpha  occ. eigenvalues --   -0.46640  -0.46624  -0.46540  -0.46364  -0.46240
 Alpha  occ. eigenvalues --   -0.46069  -0.45856  -0.45638  -0.45307  -0.45279
 Alpha  occ. eigenvalues --   -0.45225  -0.45158  -0.44872  -0.44815  -0.44724
 Alpha  occ. eigenvalues --   -0.44626  -0.44531  -0.44325  -0.44266  -0.44229
 Alpha  occ. eigenvalues --   -0.44082  -0.43814  -0.43810  -0.43741  -0.43406
 Alpha  occ. eigenvalues --   -0.43092  -0.42834  -0.42489  -0.42318  -0.42139
 Alpha  occ. eigenvalues --   -0.41912  -0.41762  -0.41600  -0.41002  -0.40727
 Alpha  occ. eigenvalues --   -0.40681  -0.40236  -0.40110  -0.39844  -0.39713
 Alpha  occ. eigenvalues --   -0.39657  -0.38862  -0.38698  -0.38518  -0.38346
 Alpha  occ. eigenvalues --   -0.38014  -0.37873  -0.37187  -0.36266  -0.36195
 Alpha  occ. eigenvalues --   -0.36039  -0.35915  -0.35330  -0.33981  -0.33712
 Alpha  occ. eigenvalues --   -0.33440  -0.33050  -0.32779  -0.32603  -0.32254
 Alpha  occ. eigenvalues --   -0.32121  -0.32118  -0.31710  -0.26602  -0.25842
 Alpha  occ. eigenvalues --   -0.23477  -0.23299
 Alpha virt. eigenvalues --   -0.07365  -0.07331  -0.00018   0.00682   0.02824
 Alpha virt. eigenvalues --    0.02996   0.04834   0.04914   0.05213   0.06518
 Alpha virt. eigenvalues --    0.06757   0.06987   0.07594   0.08125   0.08552

 Mulliken charges:
               1
     1  Mg   0.953681
     2  C   -0.018729
     3  C   -0.078062
     4  C   -0.102405
     5  C   -0.070935
     6  N   -0.331614
     7  C   -0.062244
     8  C    0.031551
     9  C   -0.153783
    10  C    0.038873
    11  C    0.036055
    12  C    0.038092
    13  C   -0.109657
    14  H    0.041958
    15  N   -0.434365
    16  C    0.181926
    17  C   -0.135758
    18  C   -0.121021
    19  C    0.236129
    20  C    0.063041
    21  C    0.024987
    22  O   -0.229576
    23  C    0.001918
    24  N   -0.396463
    25  C    0.068747
    26  C   -0.119397
    27  C   -0.096999
    28  C    0.094315
    29  C    0.022101
    30  C   -0.030758
    31  C   -0.043111
    32  N   -0.425108
    33  C    0.086025
    34  C   -0.233629
    35  C    0.018397
    36  C    0.142819
    37  C    0.107285
    38  C    0.094436
    39  O   -0.186699
    40  C   -0.073628
    41  C    0.259923
    42  O   -0.213197
    43  O   -0.378324
    44  C    0.124750
    45  H   -0.006293
    46  H   -0.019741
    47  H   -0.006170
    48  H    0.020814
    49  H    0.031503
    50  H    0.043515
    51  H    0.049262
    52  H    0.029039
    53  H    0.029945
    54  H    0.035497
    55  H    0.036326
    56  H    0.039806
    57  H    0.058655
    58  H    0.019660
    59  H    0.074486
    60  H    0.052453
    61  H    0.058020
    62  H    0.078952
    63  H    0.040404
    64  H    0.042102
    65  H    0.035887
    66  H    0.050041
    67  H    0.035287
    68  H    0.033200
    69  H    0.029979
    70  H    0.038183
    71  H    0.042232
    72  H    0.038906
    73  H    0.070490
    74  H    0.005351
    75  H    0.058058
    76  H    0.073025
    77  H    0.057117
    78  H    0.062154
    79  H    0.040310
    80  Mg   0.978802
    81  C   -0.032914
    82  C   -0.099676
    83  C   -0.063834
    84  C   -0.089611
    85  N   -0.322120
    86  C    0.015430
    87  C   -0.082633
    88  C   -0.128171
    89  C    0.030408
    90  C    0.020636
    91  C    0.045014
    92  C   -0.121378
    93  H    0.031125
    94  N   -0.523170
    95  C    0.241921
    96  C   -0.149198
    97  C   -0.081439
    98  C    0.154580
    99  C    0.041682
   100  C    0.076108
   101  O   -0.213848
   102  C   -0.007568
   103  N   -0.359376
   104  C    0.071790
   105  C   -0.108467
   106  C   -0.079593
   107  C    0.063658
   108  C    0.008349
   109  C    0.027492
   110  C   -0.074043
   111  N   -0.443882
   112  C    0.130003
   113  C   -0.214758
   114  C    0.007984
   115  C    0.121588
   116  C    0.094298
   117  C    0.108386
   118  O   -0.190684
   119  C   -0.041821
   120  C    0.275559
   121  O   -0.282049
   122  O   -0.371937
   123  C    0.141416
   124  H   -0.011113
   125  H    0.021596
   126  H   -0.003704
   127  H    0.026913
   128  H    0.025692
   129  H    0.045253
   130  H    0.043160
   131  H    0.033100
   132  H    0.029925
   133  H    0.029971
   134  H    0.065488
   135  H    0.054285
   136  H    0.051032
   137  H    0.023135
   138  H    0.045351
   139  H    0.070745
   140  H    0.046572
   141  H    0.048671
   142  H    0.037749
   143  H    0.037744
   144  H    0.044182
   145  H    0.029688
   146  H    0.036934
   147  H    0.035346
   148  H    0.037452
   149  H    0.038830
   150  H    0.028212
   151  H    0.026604
   152  H    0.030706
   153  H    0.066463
   154  H    0.049388
   155  H    0.057838
   156  H    0.061039
   157  H    0.064136
   158  H    0.067556
 Sum of Mulliken charges =  -0.00000

 Dipole moment (field-independent basis, Debye):
    X=             -0.9283    Y=              5.2481    Z=             -1.4304  Tot=              5.5182
 Quadrupole moment (field-independent basis, Debye-Ang):
   XX=           -491.3482   YY=           -486.7982   ZZ=           -501.1746
   XY=             26.3521   XZ=            -23.2902   YZ=            -27.1099

 Normal termination of Gaussian 16 at Mon Sep 20 15:45:49 2021.
