 Gaussian 16, Revision A.03,
 Gaussian 16:  ES64L-G16RevA.03 25-Dec-2016

 --------------------------------
 #p wB97XD/Def2SVP td=(nstates=5)
 --------------------------------

 --------------------------------
 TDDFT excited states in gaussian
 --------------------------------
 Symbolic Z-matrix:
 Charge =  0 Multiplicity = 1

                         Standard orientation:
 ---------------------------------------------------------------------
 Center     Atomic      Atomic             Coordinates (Angstroms)
 Number     Number       Type             X           Y           Z
 ---------------------------------------------------------------------
      1         12           0       -8.975775    0.622505   -0.062872
      2          6           0       -6.822520   -1.797819    1.376659
      3          6           0       -6.835784    3.011905    1.050153
      4          6           0      -10.574038    2.807018   -2.120259
      5          6           0      -10.731629   -1.972246   -1.545096
      6          7           0       -6.964815    0.471336    0.956811
      7          6           0       -6.304655   -0.571225    1.551232
      8          6           0       -5.116915   -0.115702    2.314594
      9          6           0       -5.359658    1.460173    2.457341
     10          6           0       -6.422804    1.678931    1.435736
     11          6           0       -5.766126    1.845479    3.870602
     12          6           0       -3.872251   -0.571564    1.537020
     13          6           0       -2.790759   -1.429466    2.319511
     14          1           0       -1.295573   -0.993382    2.373873
     15          7           0       -8.816349    2.634174   -0.485153
     16          6           0       -7.898650    3.466921    0.170115
     17          6           0       -8.216659    4.820019   -0.174769
     18          6           0       -9.288237    4.818251   -1.130457
     19          6           0       -9.653997    3.379475   -1.223641
     20          6           0       -7.465985    5.983967    0.459352
     21          6           0       -9.930861    5.988538   -1.840894
     22          8           0       -9.515533    7.112923   -1.436248
     23          6           0      -10.922032    5.974526   -3.038891
     24          7           0      -10.476966    0.465389   -1.637599
     25          6           0      -10.991511    1.519474   -2.308462
     26          6           0      -12.035341    1.110618   -3.381296
     27          6           0      -12.161268   -0.428145   -3.109222
     28          6           0      -10.990598   -0.671956   -2.044807
     29          6           0      -13.320610    1.889581   -3.166255
     30          6           0      -11.981914   -1.309421   -4.307535
     31          6           0      -13.236203   -2.025279   -4.729707
     32          7           0       -8.986670   -1.404140    0.004080
     33          6           0       -9.779015   -2.390639   -0.596564
     34          6           0       -9.544422   -3.634910   -0.064749
     35          6           0       -8.408686   -3.450970    0.750046
     36          6           0       -8.067506   -2.101586    0.693608
     37          6           0      -10.460565   -4.822666   -0.270349
     38          6           0       -7.506851   -4.144780    1.707574
     39          8           0       -7.521506   -5.279679    2.071264
     40          6           0       -6.425671   -3.046463    2.034723
     41          6           0       -6.119643   -3.155617    3.512584
     42          8           0       -5.103137   -3.668417    3.980771
     43          8           0       -7.141865   -2.538287    4.273646
     44          6           0       -6.831192   -2.506242    5.702522
     45          1           0       -6.289676    3.794938    1.580800
     46          1           0      -11.181183    3.484367   -2.725421
     47          1           0      -11.081925   -2.825023   -2.129254
     48          1           0       -5.111161   -0.592932    3.294634
     49          1           0       -4.424738    1.969149    2.224409
     50          1           0       -6.419199    1.114049    4.344653
     51          1           0       -6.367781    2.753423    3.817087
     52          1           0       -4.924318    2.081899    4.521382
     53          1           0       -3.389824    0.327286    1.153321
     54          1           0       -4.099924   -1.093541    0.607606
     55          1           0       -2.855099   -2.363082    1.760052
     56          1           0       -3.169205   -1.728127    3.296391
     57          1           0       -6.387782    5.845759    0.378718
     58          1           0       -7.728163    5.970508    1.517198
     59          1           0       -7.594649    6.970444    0.011809
     60          1           0      -11.836171    5.578053   -2.598161
     61          1           0      -10.531205    5.303694   -3.804054
     62          1           0      -11.053489    6.960471   -3.485478
     63          1           0      -11.722053    1.310729   -4.405634
     64          1           0      -13.073129   -0.632112   -2.548553
     65          1           0      -13.058836    2.945563   -3.097239
     66          1           0      -13.765920    1.555815   -2.228476
     67          1           0      -14.154578    1.746022   -3.852227
     68          1           0      -11.261987   -2.113542   -4.155217
     69          1           0      -11.600079   -0.836122   -5.211916
     70          1           0      -13.409331   -1.802904   -5.781922
     71          1           0      -14.125995   -1.654599   -4.220817
     72          1           0      -13.224849   -3.098769   -4.538056
     73          1           0      -10.209786   -5.533984    0.517226
     74          1           0      -10.318032   -5.291805   -1.243552
     75          1           0      -11.466562   -4.413010   -0.182276
     76          1           0       -5.534947   -3.464918    1.564675
     77          1           0       -7.333197   -1.666787    6.183759
     78          1           0       -5.782445   -2.269394    5.876081
     79          1           0       -7.054128   -3.445253    6.209885
     80         12           0        9.279880    0.170099   -0.067765
     81          6           0        6.485936   -2.097009    0.059915
     82          6           0        7.505394    2.212400    2.014074
     83          6           0       11.752278    2.406875   -0.435936
     84          6           0       10.631402   -1.786388   -2.496078
     85          7           0        7.157240    0.011391    0.993774
     86          6           0        6.288448   -1.035473    0.885563
     87          6           0        5.203284   -0.805927    1.867942
     88          6           0        5.434511    0.633417    2.405705
     89          6           0        6.774381    1.076376    1.756851
     90          6           0        4.276590    1.599693    1.999521
     91          6           0        5.078925   -1.834073    2.964393
     92          6           0        3.858152   -1.808960    3.869944
     93          1           0        3.149374   -3.083193    4.064608
     94          7           0        9.630890    1.974108    0.762099
     95          6           0        8.709700    2.722290    1.545948
     96          6           0        9.426019    3.931913    1.992393
     97          6           0       10.579525    4.000789    1.215489
     98          6           0       10.665311    2.771546    0.406319
     99          6           0        8.792530    4.905760    2.963892
    100          6           0       11.690470    5.072844    1.194916
    101          8           0       12.561994    5.158124    0.309537
    102          6           0       11.717179    6.025560    2.319622
    103          7           0       10.957982    0.350595   -1.348667
    104          6           0       11.852729    1.317278   -1.340932
    105          6           0       12.972977    1.130673   -2.400785
    106          6           0       12.709808   -0.311661   -2.839096
    107          6           0       11.392933   -0.619277   -2.163868
    108          6           0       12.833793    2.159487   -3.573193
    109          6           0       13.775748   -1.331990   -2.508824
    110          6           0       14.121785   -2.349833   -3.610126
    111          7           0        8.731183   -1.609564   -0.943778
    112          6           0        9.414994   -2.289473   -1.927847
    113          6           0        8.736567   -3.575457   -2.271709
    114          6           0        7.600396   -3.448363   -1.498249
    115          6           0        7.594414   -2.257132   -0.762566
    116          6           0        9.253265   -4.713336   -3.092229
    117          6           0        6.363904   -4.144508   -1.174301
    118          8           0        5.998991   -5.245072   -1.572174
    119          6           0        5.572786   -3.307325   -0.143230
    120          6           0        4.233022   -3.183417   -0.658212
    121          8           0        3.848057   -2.431854   -1.586155
    122          8           0        3.362466   -3.884772    0.119412
    123          6           0        1.943053   -3.672047   -0.061468
    124          1           0        6.988650    2.836156    2.746088
    125          1           0       12.466333    3.195549   -0.681424
    126          1           0       11.019115   -2.207220   -3.425945
    127          1           0        4.309974   -0.823470    1.244986
    128          1           0        5.509066    0.664253    3.492854
    129          1           0        3.746676    2.235684    2.709312
    130          1           0        3.525333    0.941483    1.563374
    131          1           0        4.491005    2.245491    1.147586
    132          1           0        5.885866   -1.735452    3.690689
    133          1           0        5.341688   -2.833149    2.617785
    134          1           0        3.108440   -1.118840    3.485856
    135          1           0        4.253146   -1.662749    4.874946
    136          1           0        8.878005    5.951576    2.669561
    137          1           0        9.172645    4.827085    3.982233
    138          1           0        7.711585    4.810547    3.069732
    139          1           0       11.686561    5.459366    3.250637
    140          1           0       10.789127    6.577605    2.175214
    141          1           0       12.689301    6.515772    2.281961
    142          1           0       13.916250    1.238083   -1.864157
    143          1           0       12.511248   -0.461742   -3.899915
    144          1           0       12.559958    1.669130   -4.506890
    145          1           0       13.781684    2.657331   -3.777598
    146          1           0       12.038595    2.838703   -3.265528
    147          1           0       13.538211   -1.886352   -1.601438
    148          1           0       14.587446   -0.735503   -2.093610
    149          1           0       15.158242   -2.644199   -3.448073
    150          1           0       13.880307   -1.994571   -4.612388
    151          1           0       13.414732   -3.147637   -3.383758
    152          1           0        9.647472   -5.544829   -2.507704
    153          1           0        9.924755   -4.258172   -3.819702
    154          1           0        8.474226   -5.036725   -3.783721
    155          1           0        5.462457   -3.971848    0.713659
    156          1           0        1.687997   -2.864925   -0.748716
    157          1           0        1.444866   -3.564356    0.901635
    158          1           0        1.448188   -4.550354   -0.476763
 ---------------------------------------------------------------------

 SCF Done:  E(RwB97XD) =  -4070.61679483     A.U. after   20 cycles

 Excitation energies and oscillator strengths:

 Excited State   1:      Singlet-A      1.6244 eV  763.25 nm  f=0.3045  <S**2>=0.000
     309 -> 315       -0.17935
     311 -> 313        0.68302
     309 <- 315       -0.11728
 This state for optimization and/or second-order correction.
 Total Energy, E(TD-HF/TD-DFT) =  -4070.55709842
 Copying the excited state density for this state as the 1-particle RhoCI density.

 Excited State   2:      Singlet-A      1.6937 eV  732.05 nm  f=0.4137  <S**2>=0.000
     310 -> 316       -0.20412
     312 -> 314        0.67749
     310 <- 316       -0.12224

 Excited State   3:      Singlet-A      2.1639 eV  572.97 nm  f=0.1624  <S**2>=0.000
     309 -> 313        0.64626
     311 -> 315        0.27035

 Excited State   4:      Singlet-A      2.2624 eV  548.02 nm  f=0.0719  <S**2>=0.000
     310 -> 314        0.61582
     312 -> 316        0.33973

 Excited State   5:      Singlet-A      3.2554 eV  380.85 nm  f=0.0000  <S**2>=0.000
     312 -> 313        0.70688

 The electronic state is 1-A.
 Alpha  occ. eigenvalues --  -46.95420 -46.94774 -19.30964 -19.30225 -19.26079
 Alpha  occ. eigenvalues --  -19.24947 -19.24027 -19.23678 -19.23579 -19.23407
 Alpha  occ. eigenvalues --  -14.47056 -14.46878 -14.46412 -14.45645 -14.44754
 Alpha  occ. eigenvalues --  -14.44326 -14.44123 -14.43671 -10.44357 -10.42852
 Alpha  occ. eigenvalues --  -10.39719 -10.39560 -10.39173 -10.38383 -10.36133
 Alpha  occ. eigenvalues --  -10.35510 -10.35170 -10.34933 -10.34795 -10.34762
 Alpha  occ. eigenvalues --  -10.34720 -10.34707 -10.34634 -10.34548 -10.34521
 Alpha  occ. eigenvalues --  -10.34491 -10.34395 -10.34380 -10.34013 -10.33135
 Alpha  occ. eigenvalues --  -10.33128 -10.32923 -10.32878 -10.32760 -10.32707
 Alpha  occ. eigenvalues --  -10.32493 -10.32474 -10.32457 -10.32406 -10.32381
 Alpha  occ. eigenvalues --  -10.32307 -10.32105 -10.32073 -10.32066 -10.31982
 Alpha  occ. eigenvalues --  -10.31911 -10.31904 -10.31642 -10.31637 -10.31454
 Alpha  occ. eigenvalues --  -10.31452 -10.31369 -10.31288 -10.31170 -10.31142
 Alpha  occ. eigenvalues --  -10.31115 -10.31059 -10.30970 -10.30902 -10.30866
 Alpha  occ. eigenvalues --  -10.30583 -10.30402 -10.30214 -10.30107 -10.30021
 Alpha  occ. eigenvalues --  -10.29920 -10.29886 -10.29790 -10.29788 -10.29781
 Alpha  occ. eigenvalues --  -10.29719 -10.29527 -10.29377 -10.29192 -10.29011
 Alpha  occ. eigenvalues --  -10.28573  -3.21425  -3.20811  -1.94995  -1.94554
 Alpha  occ. eigenvalues --   -1.94412  -1.94398  -1.93929  -1.93792  -1.18137
 Alpha  occ. eigenvalues --   -1.17862  -1.14347  -1.11616  -1.11230  -1.10282
 Alpha  occ. eigenvalues --   -1.09898  -1.08006  -1.07708  -1.07310  -1.06548
 Alpha  occ. eigenvalues --   -1.06361  -1.05461  -1.05019  -1.04871  -1.04168
 Alpha  occ. eigenvalues --   -0.95366  -0.95071  -0.91897  -0.91808  -0.91318
 Alpha  occ. eigenvalues --   -0.91097  -0.91071  -0.90348  -0.89885  -0.89479
 Alpha  occ. eigenvalues --   -0.89023  -0.88948  -0.88510  -0.87972  -0.86837
 Alpha  occ. eigenvalues --   -0.86528  -0.86263  -0.85883  -0.84742  -0.84656
 Alpha  occ. eigenvalues --   -0.84472  -0.83932  -0.83110  -0.82784  -0.82737
 Alpha  occ. eigenvalues --   -0.82533  -0.80574  -0.79833  -0.79571  -0.79438
 Alpha  occ. eigenvalues --   -0.79269  -0.78957  -0.78506  -0.78375  -0.77531
 Alpha  occ. eigenvalues --   -0.77120  -0.75587  -0.74919  -0.74289  -0.73862
 Alpha  occ. eigenvalues --   -0.71460  -0.71401  -0.71146  -0.70965  -0.69946
 Alpha  occ. eigenvalues --   -0.69817  -0.69330  -0.68457  -0.68285  -0.68265
 Alpha  occ. eigenvalues --   -0.67768  -0.67453  -0.67298  -0.67021  -0.67021
 Alpha  occ. eigenvalues --   -0.66488  -0.65202  -0.64390  -0.62588  -0.62333
 Alpha  occ. eigenvalues --   -0.62168  -0.61826  -0.61668  -0.61414  -0.61032
 Alpha  occ. eigenvalues --   -0.60695  -0.60247  -0.60147  -0.59547  -0.58906
 Alpha  occ. eigenvalues --   -0.58411  -0.58288  -0.57872  -0.57708  -0.57582
 Alpha  occ. eigenvalues --   -0.57443  -0.56936  -0.56410  -0.56228  -0.55915
 Alpha  occ. eigenvalues --   -0.55884  -0.55757  -0.55578  -0.55371  -0.55246
 Alpha  occ. eigenvalues --   -0.55060  -0.54793  -0.54707  -0.54304  -0.54061
 Alpha  occ. eigenvalues --   -0.53816  -0.53739  -0.53726  -0.53546  -0.53139
 Alpha  occ. eigenvalues --   -0.53041  -0.52937  -0.52641  -0.52516  -0.52400
 Alpha  occ. eigenvalues --   -0.52310  -0.52152  -0.52071  -0.51907  -0.51781
 Alpha  occ. eigenvalues --   -0.51685  -0.51486  -0.50927  -0.50901  -0.50644
 Alpha  occ. eigenvalues --   -0.50520  -0.50334  -0.50216  -0.50194  -0.50049
 Alpha  occ. eigenvalues --   -0.49807  -0.49715  -0.49695  -0.49235  -0.49225
 Alpha  occ. eigenvalues --   -0.49088  -0.48905  -0.48900  -0.48610  -0.48494
 Alpha  occ. eigenvalues --   -0.48409  -0.48079  -0.48047  -0.47912  -0.47882
 Alpha  occ. eigenvalues --   -0.47765  -0.47525  -0.47454  -0.47352  -0.47209
 Alpha  occ. eigenvalues --   -0.47011  -0.46947  -0.46943  -0.46389  -0.46051
 Alpha  occ. eigenvalues --   -0.45946  -0.45811  -0.45751  -0.45714  -0.45566
 Alpha  occ. eigenvalues --   -0.45283  -0.45271  -0.45002  -0.44716  -0.44520
 Alpha  occ. eigenvalues --   -0.44440  -0.44383  -0.44355  -0.44260  -0.44035
 Alpha  occ. eigenvalues --   -0.43899  -0.43761  -0.43578  -0.43552  -0.43520
 Alpha  occ. eigenvalues --   -0.43460  -0.43421  -0.43171  -0.43148  -0.42898
 Alpha  occ. eigenvalues --   -0.42710  -0.42101  -0.41969  -0.41754  -0.41105
 Alpha  occ. eigenvalues --   -0.40769  -0.40652  -0.40216  -0.39894  -0.39776
 Alpha  occ. eigenvalues --   -0.39572  -0.39380  -0.39155  -0.38520  -0.37884
 Alpha  occ. eigenvalues --   -0.37839  -0.37497  -0.37487  -0.36741  -0.35795
 Alpha  occ. eigenvalues --   -0.35540  -0.35399  -0.35073  -0.34053  -0.33713
 Alpha  occ. eigenvalues --   -0.33191  -0.32938  -0.32689  -0.32599  -0.32442
 Alpha  occ. eigenvalues --   -0.32363  -0.32222  -0.32012  -0.26389  -0.25937
 Alpha  occ. eigenvalues --   -0.23524  -0.22660
 Alpha virt. eigenvalues --   -0.07754  -0.06444   0.00018   0.00163   0.02254
 Alpha virt. eigenvalues --    0.02857   0.04364   0.04692   0.04933   0.06168
 Alpha virt. eigenvalues --    0.06198   0.06799   0.07098   0.07863   0.08215

 Mulliken charges:
               1
     1  Mg   0.972395
     2  C    0.037862
     3  C   -0.077590
     4  C   -0.047059
     5  C   -0.092706
     6  N   -0.359144
     7  C   -0.051986
     8  C   -0.054171
     9  C   -0.081830
    10  C    0.068465
    11  C    0.030643
    12  C    0.005335
    13  C   -0.115381
    14  H    0.043567
    15  N   -0.473454
    16  C    0.150853
    17  C   -0.148717
    18  C   -0.062979
    19  C    0.180113
    20  C    0.070598
    21  C    0.021632
    22  O   -0.276236
    23  C    0.023573
    24  N   -0.303475
    25  C    0.005202
    26  C   -0.045756
    27  C   -0.064942
    28  C    0.055553
    29  C    0.009376
    30  C   -0.003194
    31  C   -0.061558
    32  N   -0.466402
    33  C    0.108593
    34  C   -0.190346
    35  C   -0.079753
    36  C    0.147839
    37  C    0.086657
    38  C    0.122478
    39  O   -0.159190
    40  C   -0.057805
    41  C    0.245546
    42  O   -0.242046
    43  O   -0.390469
    44  C    0.140229
    45  H    0.005325
    46  H   -0.060180
    47  H    0.007347
    48  H    0.035007
    49  H    0.038022
    50  H    0.038219
    51  H    0.024785
    52  H    0.046748
    53  H    0.031941
    54  H    0.048565
    55  H    0.049926
    56  H    0.055656
    57  H    0.034155
    58  H    0.046533
    59  H    0.065155
    60  H    0.062853
    61  H    0.064502
    62  H    0.063679
    63  H    0.043811
    64  H    0.043106
    65  H    0.033459
    66  H    0.024332
    67  H    0.040379
    68  H    0.031219
    69  H    0.027005
    70  H    0.031563
    71  H    0.020796
    72  H    0.040065
    73  H    0.062384
    74  H    0.052518
    75  H    0.046536
    76  H    0.069358
    77  H    0.047307
    78  H    0.043451
    79  H    0.064386
    80  Mg   0.974300
    81  C    0.002953
    82  C   -0.073960
    83  C   -0.058915
    84  C   -0.108811
    85  N   -0.330478
    86  C   -0.063462
    87  C    0.015468
    88  C   -0.121400
    89  C    0.063703
    90  C    0.011500
    91  C    0.011985
    92  C   -0.120874
    93  H    0.038322
    94  N   -0.515629
    95  C    0.189628
    96  C   -0.128961
    97  C   -0.091842
    98  C    0.167046
    99  C    0.036712
   100  C    0.055216
   101  O   -0.254910
   102  C    0.008635
   103  N   -0.326264
   104  C   -0.014251
   105  C   -0.060012
   106  C   -0.104887
   107  C    0.037637
   108  C    0.034264
   109  C    0.005203
   110  C   -0.035276
   111  N   -0.421119
   112  C    0.133177
   113  C   -0.209147
   114  C   -0.008917
   115  C    0.152794
   116  C    0.108991
   117  C    0.073426
   118  O   -0.208676
   119  C   -0.032044
   120  C    0.264651
   121  O   -0.284152
   122  O   -0.351229
   123  C    0.134050
   124  H   -0.012717
   125  H    0.030480
   126  H    0.003526
   127  H    0.034163
   128  H    0.037439
   129  H    0.040142
   130  H    0.017442
   131  H    0.035706
   132  H    0.013991
   133  H    0.026024
   134  H    0.055675
   135  H    0.056315
   136  H    0.040150
   137  H    0.053857
   138  H    0.038693
   139  H    0.053119
   140  H    0.060364
   141  H    0.061785
   142  H    0.043686
   143  H    0.028079
   144  H    0.033486
   145  H    0.047893
   146  H    0.054484
   147  H    0.023123
   148  H    0.008793
   149  H    0.052116
   150  H    0.038481
   151  H    0.041205
   152  H    0.077580
   153  H    0.016965
   154  H    0.049555
   155  H    0.081387
   156  H    0.065832
   157  H    0.049475
   158  H    0.047022
 Sum of Mulliken charges =  -0.00000

 Dipole moment (field-independent basis, Debye):
    X=             -2.3168    Y=              3.9493    Z=              2.3654  Tot=              5.1536
 Quadrupole moment (field-independent basis, Debye-Ang):
   XX=           -409.6862   YY=           -578.8401   ZZ=           -472.8797
   XY=             -2.5214   XZ=             33.6599   YZ=             23.8622

 Normal termination of Gaussian 16 at Sun Sep 19 20:42:38 2021.
