 Gaussian 16, Revision A.03,
 Gaussian 16:  ES64L-G16RevA.03 25-Dec-2016

 --------------------------------
 #p wB97XD/Def2SVP td=(nstates=5)
 --------------------------------

 --------------------------------
 TDDFT excited states in gaussian
 --------------------------------
 Symbolic Z-matrix:
 Charge =  0 Multiplicity = 1

                         Standard orientation:
 ---------------------------------------------------------------------
 Center     Atomic      Atomic             Coordinates (Angstroms)
 Number     Number       Type             X           Y           Z
 ---------------------------------------------------------------------
      1         12           0       26.724300   -0.863476    0.313495
      2          6           0       27.365490    2.204418   -1.049896
      3          6           0       26.157490    0.494702    3.302874
      4          6           0       26.373043   -3.890399    1.469736
      5          6           0       27.932170   -2.231128   -2.748062
      6          7           0       26.924315    1.146331    1.107688
      7          6           0       26.932678    2.236890    0.301073
      8          6           0       26.474653    3.473496    1.024739
      9          6           0       26.369873    2.928869    2.505684
     10          6           0       26.573930    1.439073    2.335259
     11          6           0       27.330989    3.605381    3.512435
     12          6           0       25.124617    4.173084    0.388054
     13          6           0       25.121950    5.692780    0.162745
     14          1           0       26.096526    6.538946    1.040869
     15          7           0       26.172512   -1.558817    2.017364
     16          6           0       25.973942   -0.889180    3.182635
     17          6           0       25.718522   -1.760597    4.303627
     18          6           0       25.576281   -2.999137    3.754693
     19          6           0       26.166061   -2.863253    2.386653
     20          6           0       25.704748   -1.129226    5.683754
     21          6           0       25.141154   -4.313101    4.433504
     22          8           0       25.102691   -5.384275    3.874194
     23          6           0       24.796098   -4.161312    5.885563
     24          7           0       27.279298   -2.780748   -0.505963
     25          6           0       26.883534   -3.868958    0.178678
     26          6           0       27.116917   -5.143758   -0.638124
     27          6           0       27.312805   -4.595578   -2.092392
     28          6           0       27.553564   -3.103851   -1.782494
     29          6           0       28.273035   -6.132263   -0.182077
     30          6           0       26.082131   -4.736988   -3.065311
     31          6           0       24.734733   -4.132423   -2.769912
     32          7           0       27.426248   -0.241610   -1.597483
     33          6           0       27.969353   -0.879252   -2.717571
     34          6           0       28.369987    0.086602   -3.748587
     35          6           0       28.139326    1.326758   -3.134547
     36          6           0       27.571727    1.036277   -1.854057
     37          6           0       28.851447   -0.186960   -5.150331
     38          6           0       28.232359    2.707535   -3.276087
     39          8           0       28.671656    3.428522   -4.158296
     40          6           0       27.526137    3.341093   -2.049542
     41          6           0       28.488004    4.386999   -1.632424
     42          8           0       29.511498    4.195036   -0.971490
     43          8           0       28.163566    5.598300   -2.171124
     44          6           0       29.140373    6.691094   -2.129204
     45          1           0       25.791660    0.983969    4.208242
     46          1           0       26.223970   -4.929220    1.769079
     47          1           0       28.236870   -2.785213   -3.639190
     48          1           0       27.271941    4.216048    1.058873
     49          1           0       25.341683    3.041109    2.848987
     50          1           0       28.163865    2.931161    3.711669
     51          1           0       26.793159    3.768344    4.446410
     52          1           0       27.674587    4.526072    3.040722
     53          1           0       24.326950    3.913192    1.084065
     54          1           0       24.912922    3.764060   -0.599360
     55          1           0       24.152864    6.111304    0.433125
     56          1           0       25.239606    5.908111   -0.899209
     57          1           0       26.640526   -0.660382    5.988468
     58          1           0       25.636680   -1.751748    6.575704
     59          1           0       24.840335   -0.470736    5.598186
     60          1           0       24.019300   -3.408927    6.019886
     61          1           0       25.772804   -3.959923    6.325061
     62          1           0       24.345282   -5.003361    6.409532
     63          1           0       26.179126   -5.677764   -0.480778
     64          1           0       28.243018   -4.998052   -2.494028
     65          1           0       28.755554   -5.737477    0.711703
     66          1           0       29.081498   -6.143324   -0.912116
     67          1           0       27.988510   -7.173473   -0.022848
     68          1           0       26.025638   -5.824284   -3.123197
     69          1           0       26.297647   -4.349026   -4.060360
     70          1           0       24.722570   -3.751599   -1.747838
     71          1           0       23.954515   -4.891166   -2.828550
     72          1           0       24.448252   -3.267853   -3.368368
     73          1           0       29.915738    0.010645   -5.270220
     74          1           0       28.282405    0.414930   -5.859068
     75          1           0       28.724288   -1.265688   -5.244699
     76          1           0       26.528025    3.703107   -2.296840
     77          1           0       28.985705    7.412772   -2.932171
     78          1           0       30.159265    6.323549   -2.017257
     79          1           0       29.077801    7.272559   -1.209558
     80         12           0      -27.339520   -0.523885   -0.289917
     81          6           0      -25.472517    2.567801    0.083924
     82          6           0      -28.595557    0.142090    2.766836
     83          6           0      -28.926318   -3.277032   -0.614013
     84          6           0      -25.605871   -1.113392   -3.320398
     85          7           0      -27.046514    1.278844    1.281026
     86          6           0      -26.334787    2.411820    1.151939
     87          6           0      -26.639824    3.368714    2.320220
     88          6           0      -27.273483    2.285954    3.312511
     89          6           0      -27.714618    1.210245    2.411505
     90          6           0      -26.514174    1.939176    4.582221
     91          6           0      -27.578959    4.478847    1.817680
     92          6           0      -27.461931    5.791797    2.646595
     93          1           0      -26.285797    6.062440    3.694628
     94          7           0      -28.662675   -1.466327    0.904966
     95          6           0      -29.014189   -1.099941    2.190011
     96          6           0      -29.902469   -2.128528    2.722738
     97          6           0      -30.071885   -3.104314    1.709649
     98          6           0      -29.189398   -2.623035    0.609248
     99          6           0      -30.478087   -2.106087    4.068513
    100          6           0      -31.008412   -4.422714    1.681369
    101          8           0      -31.171631   -5.055725    0.674365
    102          6           0      -31.964439   -4.755046    2.841031
    103          7           0      -27.055041   -2.107665   -1.646053
    104          6           0      -27.971362   -3.072416   -1.636008
    105          6           0      -27.892847   -4.016392   -2.805631
    106          6           0      -27.140729   -3.103342   -3.804501
    107          6           0      -26.436025   -2.126312   -2.801523
    108          6           0      -27.083175   -5.363890   -2.511004
    109          6           0      -28.030638   -2.390467   -4.907289
    110          6           0      -29.336451   -3.071706   -5.410566
    111          7           0      -25.787861    0.407249   -1.356799
    112          6           0      -25.227168    0.130391   -2.560015
    113          6           0      -24.392971    1.157985   -2.992767
    114          6           0      -24.435371    2.068520   -1.975811
    115          6           0      -25.298167    1.620922   -0.994945
    116          6           0      -23.677967    1.228442   -4.339306
    117          6           0      -23.900504    3.388421   -1.609051
    118          8           0      -23.008755    4.084606   -2.070734
    119          6           0      -24.656174    3.768301   -0.261547
    120          6           0      -23.646863    4.146900    0.711866
    121          8           0      -22.922615    3.388780    1.364730
    122          8           0      -23.457823    5.476721    0.582768
    123          6           0      -22.229548    5.927868    1.211967
    124          1           0      -28.853201    0.269340    3.820418
    125          1           0      -29.454510   -4.230437   -0.672090
    126          1           0      -25.169626   -1.293678   -4.304916
    127          1           0      -25.725973    3.736212    2.787210
    128          1           0      -28.182278    2.743475    3.701104
    129          1           0      -27.034908    2.278421    5.477170
    130          1           0      -25.521070    2.387563    4.561315
    131          1           0      -26.299330    0.876588    4.695799
    132          1           0      -28.600554    4.140491    1.992197
    133          1           0      -27.499180    4.678782    0.749306
    134          1           0      -28.406820    6.053186    3.124083
    135          1           0      -27.502112    6.549262    1.863946
    136          1           0      -30.529623   -1.094078    4.469551
    137          1           0      -29.820140   -2.735780    4.667670
    138          1           0      -31.496096   -2.492380    4.123433
    139          1           0      -32.767805   -4.029981    2.971143
    140          1           0      -31.306801   -4.931671    3.692439
    141          1           0      -32.404146   -5.740665    2.686116
    142          1           0      -28.941180   -4.233655   -3.008916
    143          1           0      -26.360155   -3.625935   -4.356865
    144          1           0      -27.746922   -6.113658   -2.940964
    145          1           0      -26.935439   -5.578720   -1.452063
    146          1           0      -26.117134   -5.454283   -3.006220
    147          1           0      -27.396992   -2.145498   -5.758504
    148          1           0      -28.386998   -1.527239   -4.344914
    149          1           0      -30.174042   -2.811227   -4.763955
    150          1           0      -29.064547   -4.126762   -5.457933
    151          1           0      -29.574259   -2.798264   -6.437980
    152          1           0      -24.322094    0.669624   -5.018632
    153          1           0      -22.718143    0.712724   -4.344083
    154          1           0      -23.587680    2.276964   -4.622552
    155          1           0      -25.304438    4.611969   -0.501676
    156          1           0      -22.051485    6.996621    1.096435
    157          1           0      -21.337108    5.330100    1.025968
    158          1           0      -22.308006    5.847693    2.296728
 ---------------------------------------------------------------------

 SCF Done:  E(RwB97XD) =  -4070.57814771     A.U. after   19 cycles

 Excitation energies and oscillator strengths:

 Excited State   1:      Singlet-A      1.7218 eV  720.10 nm  f=0.3731  <S**2>=0.000
     309 -> 315       -0.19590
     312 -> 314        0.67981
     309 <- 315       -0.11419
 This state for optimization and/or second-order correction.
 Total Energy, E(TD-HF/TD-DFT) =  -4070.51487448
 Copying the excited state density for this state as the 1-particle RhoCI density.

 Excited State   2:      Singlet-A      1.7990 eV  689.18 nm  f=0.3721  <S**2>=0.000
     310 -> 316       -0.19147
     311 -> 313        0.67946
     310 <- 316       -0.11149

 Excited State   3:      Singlet-A      2.1925 eV  565.49 nm  f=0.1523  <S**2>=0.000
     310 -> 313        0.65247
     311 -> 316        0.25642

 Excited State   4:      Singlet-A      2.2243 eV  557.41 nm  f=0.0566  <S**2>=0.000
     309 -> 314        0.61466
     312 -> 315        0.33874

 Excited State   5:      Singlet-A      3.6150 eV  342.97 nm  f=0.0031  <S**2>=0.000
     301 -> 313       -0.10432
     304 -> 313       -0.21311
     308 -> 313        0.64328

 The electronic state is 1-A.
 Alpha  occ. eigenvalues --  -46.95695 -46.94286 -19.30104 -19.29101 -19.25595
 Alpha  occ. eigenvalues --  -19.24968 -19.23861 -19.23700 -19.23256 -19.22663
 Alpha  occ. eigenvalues --  -14.46263 -14.46081 -14.45669 -14.45616 -14.44625
 Alpha  occ. eigenvalues --  -14.44567 -14.43307 -14.43203 -10.42074 -10.42032
 Alpha  occ. eigenvalues --  -10.41030 -10.39938 -10.38802 -10.37499 -10.35426
 Alpha  occ. eigenvalues --  -10.34920 -10.34862 -10.34851 -10.34703 -10.34601
 Alpha  occ. eigenvalues --  -10.34433 -10.34365 -10.34274 -10.34261 -10.34217
 Alpha  occ. eigenvalues --  -10.33659 -10.33571 -10.33566 -10.33207 -10.33098
 Alpha  occ. eigenvalues --  -10.32971 -10.32885 -10.32715 -10.32647 -10.32359
 Alpha  occ. eigenvalues --  -10.32052 -10.31995 -10.31987 -10.31974 -10.31889
 Alpha  occ. eigenvalues --  -10.31871 -10.31727 -10.31701 -10.31665 -10.31638
 Alpha  occ. eigenvalues --  -10.31627 -10.31584 -10.31540 -10.31515 -10.31453
 Alpha  occ. eigenvalues --  -10.31438 -10.31367 -10.31336 -10.31311 -10.31284
 Alpha  occ. eigenvalues --  -10.31132 -10.31053 -10.30557 -10.30518 -10.30396
 Alpha  occ. eigenvalues --  -10.30167 -10.30135 -10.29954 -10.29888 -10.29886
 Alpha  occ. eigenvalues --  -10.29876 -10.29718 -10.29600 -10.29461 -10.29428
 Alpha  occ. eigenvalues --  -10.29366 -10.29044 -10.28991 -10.28987 -10.28035
 Alpha  occ. eigenvalues --  -10.27685  -3.21648  -3.20545  -1.95238  -1.94789
 Alpha  occ. eigenvalues --   -1.94597  -1.94107  -1.93690  -1.93555  -1.18652
 Alpha  occ. eigenvalues --   -1.16980  -1.14890  -1.13760  -1.11645  -1.11190
 Alpha  occ. eigenvalues --   -1.08803  -1.08075  -1.07805  -1.07623  -1.07229
 Alpha  occ. eigenvalues --   -1.06736  -1.06730  -1.06090  -1.05421  -1.04993
 Alpha  occ. eigenvalues --   -0.94294  -0.94290  -0.91588  -0.91178  -0.90613
 Alpha  occ. eigenvalues --   -0.90333  -0.89957  -0.89872  -0.89833  -0.89507
 Alpha  occ. eigenvalues --   -0.89373  -0.88829  -0.88465  -0.87487  -0.86298
 Alpha  occ. eigenvalues --   -0.86269  -0.85455  -0.85003  -0.84618  -0.84477
 Alpha  occ. eigenvalues --   -0.84263  -0.83889  -0.82971  -0.82666  -0.82464
 Alpha  occ. eigenvalues --   -0.82068  -0.80991  -0.80630  -0.79357  -0.78874
 Alpha  occ. eigenvalues --   -0.78735  -0.78533  -0.77642  -0.77609  -0.77200
 Alpha  occ. eigenvalues --   -0.77118  -0.74714  -0.74596  -0.73647  -0.73635
 Alpha  occ. eigenvalues --   -0.71598  -0.71539  -0.70991  -0.70714  -0.70103
 Alpha  occ. eigenvalues --   -0.69575  -0.69295  -0.68819  -0.67398  -0.67324
 Alpha  occ. eigenvalues --   -0.67048  -0.66886  -0.66729  -0.66614  -0.65727
 Alpha  occ. eigenvalues --   -0.65663  -0.63779  -0.63676  -0.63141  -0.62877
 Alpha  occ. eigenvalues --   -0.61479  -0.61270  -0.61246  -0.61228  -0.60374
 Alpha  occ. eigenvalues --   -0.59857  -0.59857  -0.59772  -0.59510  -0.59475
 Alpha  occ. eigenvalues --   -0.58589  -0.58308  -0.57402  -0.57214  -0.57148
 Alpha  occ. eigenvalues --   -0.57071  -0.56566  -0.56525  -0.56379  -0.55987
 Alpha  occ. eigenvalues --   -0.55768  -0.55574  -0.55549  -0.55099  -0.54952
 Alpha  occ. eigenvalues --   -0.54858  -0.54573  -0.54541  -0.54315  -0.54183
 Alpha  occ. eigenvalues --   -0.54156  -0.53675  -0.53582  -0.53214  -0.53174
 Alpha  occ. eigenvalues --   -0.53067  -0.52637  -0.52514  -0.52411  -0.52399
 Alpha  occ. eigenvalues --   -0.52114  -0.51937  -0.51648  -0.51473  -0.51236
 Alpha  occ. eigenvalues --   -0.51064  -0.50990  -0.50885  -0.50700  -0.50698
 Alpha  occ. eigenvalues --   -0.50526  -0.50466  -0.50278  -0.49995  -0.49920
 Alpha  occ. eigenvalues --   -0.49799  -0.49695  -0.49423  -0.49318  -0.49075
 Alpha  occ. eigenvalues --   -0.48935  -0.48725  -0.48668  -0.48557  -0.48411
 Alpha  occ. eigenvalues --   -0.48161  -0.47680  -0.47599  -0.47379  -0.47354
 Alpha  occ. eigenvalues --   -0.47124  -0.46817  -0.46747  -0.46556  -0.46442
 Alpha  occ. eigenvalues --   -0.46432  -0.46225  -0.46054  -0.45993  -0.45853
 Alpha  occ. eigenvalues --   -0.45784  -0.45749  -0.45745  -0.45487  -0.45259
 Alpha  occ. eigenvalues --   -0.45186  -0.45050  -0.44900  -0.44820  -0.44778
 Alpha  occ. eigenvalues --   -0.44589  -0.44380  -0.44354  -0.44221  -0.44046
 Alpha  occ. eigenvalues --   -0.43989  -0.43761  -0.43489  -0.43350  -0.43224
 Alpha  occ. eigenvalues --   -0.43134  -0.42962  -0.42671  -0.42429  -0.42291
 Alpha  occ. eigenvalues --   -0.41632  -0.41472  -0.41230  -0.41093  -0.40601
 Alpha  occ. eigenvalues --   -0.40359  -0.40168  -0.40076  -0.40010  -0.39414
 Alpha  occ. eigenvalues --   -0.39007  -0.38660  -0.38399  -0.38286  -0.37911
 Alpha  occ. eigenvalues --   -0.37648  -0.37120  -0.36321  -0.36150  -0.35668
 Alpha  occ. eigenvalues --   -0.35418  -0.34928  -0.34694  -0.34619  -0.33964
 Alpha  occ. eigenvalues --   -0.33748  -0.33388  -0.32911  -0.32840  -0.32314
 Alpha  occ. eigenvalues --   -0.32043  -0.31841  -0.31593  -0.25743  -0.25310
 Alpha  occ. eigenvalues --   -0.23218  -0.22411
 Alpha virt. eigenvalues --   -0.06596  -0.06147   0.00174   0.00831   0.02318
 Alpha virt. eigenvalues --    0.02611   0.04602   0.04759   0.05564   0.05894
 Alpha virt. eigenvalues --    0.06756   0.07590   0.07906   0.08508   0.08636

 Mulliken charges:
               1
     1  Mg   0.993002
     2  C    0.010888
     3  C   -0.117843
     4  C   -0.080759
     5  C   -0.116952
     6  N   -0.330607
     7  C   -0.016971
     8  C   -0.037150
     9  C   -0.154018
    10  C    0.076291
    11  C    0.047326
    12  C    0.007263
    13  C   -0.126066
    14  H    0.026397
    15  N   -0.509685
    16  C    0.180132
    17  C   -0.131426
    18  C   -0.119652
    19  C    0.182747
    20  C    0.046375
    21  C    0.071607
    22  O   -0.201870
    23  C   -0.025104
    24  N   -0.321293
    25  C    0.020788
    26  C   -0.085975
    27  C   -0.050196
    28  C   -0.008292
    29  C    0.024206
    30  C   -0.010746
    31  C   -0.046783
    32  N   -0.398836
    33  C    0.159877
    34  C   -0.186991
    35  C    0.034841
    36  C    0.091526
    37  C    0.104730
    38  C    0.050714
    39  O   -0.214265
    40  C   -0.074702
    41  C    0.264526
    42  O   -0.268198
    43  O   -0.355816
    44  C    0.151808
    45  H   -0.008435
    46  H    0.016509
    47  H   -0.010544
    48  H    0.043144
    49  H    0.031892
    50  H    0.045721
    51  H    0.038578
    52  H    0.045932
    53  H    0.033234
    54  H    0.041175
    55  H    0.049133
    56  H    0.062537
    57  H    0.060500
    58  H    0.029660
    59  H    0.066536
    60  H    0.061465
    61  H    0.069362
    62  H    0.048033
    63  H    0.035059
    64  H    0.029193
    65  H    0.038289
    66  H    0.025917
    67  H    0.050232
    68  H    0.032274
    69  H    0.032299
    70  H    0.028539
    71  H    0.041177
    72  H    0.043838
    73  H    0.059444
    74  H    0.063963
    75  H    0.019685
    76  H    0.072662
    77  H    0.061568
    78  H    0.057159
    79  H    0.029421
    80  Mg   0.963266
    81  C   -0.002802
    82  C   -0.069674
    83  C   -0.087048
    84  C   -0.078765
    85  N   -0.252485
    86  C   -0.062551
    87  C   -0.061957
    88  C   -0.088912
    89  C    0.000056
    90  C    0.039643
    91  C    0.010081
    92  C   -0.092291
    93  H    0.048506
    94  N   -0.472780
    95  C    0.161627
    96  C   -0.161861
    97  C   -0.088125
    98  C    0.122033
    99  C    0.059489
   100  C    0.076525
   101  O   -0.197366
   102  C   -0.024027
   103  N   -0.321717
   104  C    0.065157
   105  C   -0.102445
   106  C   -0.113641
   107  C    0.058335
   108  C    0.030257
   109  C   -0.010614
   110  C   -0.052904
   111  N   -0.410059
   112  C    0.090421
   113  C   -0.219128
   114  C   -0.051291
   115  C    0.154969
   116  C    0.095825
   117  C    0.138619
   118  O   -0.197807
   119  C   -0.092907
   120  C    0.252577
   121  O   -0.272146
   122  O   -0.331223
   123  C    0.153324
   124  H   -0.010542
   125  H    0.011903
   126  H    0.003406
   127  H    0.040478
   128  H    0.017730
   129  H    0.039847
   130  H    0.042825
   131  H    0.036615
   132  H    0.031800
   133  H    0.048028
   134  H    0.038531
   135  H    0.037353
   136  H    0.044151
   137  H    0.065930
   138  H    0.040878
   139  H    0.086371
   140  H    0.045185
   141  H    0.050808
   142  H    0.043771
   143  H    0.017526
   144  H    0.041948
   145  H    0.045896
   146  H    0.042518
   147  H    0.037405
   148  H    0.027794
   149  H    0.050443
   150  H    0.034811
   151  H    0.039891
   152  H    0.025444
   153  H    0.053045
   154  H    0.055810
   155  H    0.073335
   156  H    0.049837
   157  H    0.060885
   158  H    0.024154
 Sum of Mulliken charges =  -0.00000

 Dipole moment (field-independent basis, Debye):
    X=             -9.1910    Y=             -1.9415    Z=              7.0661  Tot=             11.7547
 Quadrupole moment (field-independent basis, Debye-Ang):
   XX=           -432.8441   YY=           -502.3682   ZZ=           -464.2327
   XY=            -28.6224   XZ=             18.3238   YZ=             32.4280

 Normal termination of Gaussian 16 at Sat Sep 18 11:58:10 2021.
