 Gaussian 16, Revision A.03,
 Gaussian 16:  ES64L-G16RevA.03 25-Dec-2016

 --------------------------------
 #p wB97XD/Def2SVP td=(nstates=5)
 --------------------------------

 --------------------------------
 TDDFT excited states in gaussian
 --------------------------------
 Symbolic Z-matrix:
 Charge =  0 Multiplicity = 1

                         Standard orientation:
 ---------------------------------------------------------------------
 Center     Atomic      Atomic             Coordinates (Angstroms)
 Number     Number       Type             X           Y           Z
 ---------------------------------------------------------------------
      1         12           0       26.097559   -0.910301    0.194008
      2          6           0       26.991484    2.381209   -0.760385
      3          6           0       25.658982    0.398111    3.405597
      4          6           0       25.136389   -3.874981    1.226655
      5          6           0       27.366640   -2.099798   -2.816716
      6          7           0       26.280934    1.158553    1.146500
      7          6           0       26.510212    2.360166    0.547595
      8          6           0       26.504564    3.587256    1.475291
      9          6           0       26.177956    2.818709    2.854216
     10          6           0       26.054181    1.388508    2.419023
     11          6           0       27.304880    2.947723    3.954016
     12          6           0       25.413779    4.639561    1.091277
     13          6           0       25.709545    6.030724    0.544492
     14          1           0       24.837557    7.225101    0.908630
     15          7           0       25.402181   -1.655883    2.037809
     16          6           0       25.359288   -0.980390    3.265994
     17          6           0       24.977960   -1.943497    4.274746
     18          6           0       24.663779   -3.148169    3.650500
     19          6           0       25.011760   -2.913210    2.235564
     20          6           0       24.763060   -1.463616    5.669556
     21          6           0       24.196384   -4.489228    4.215113
     22          8           0       23.984335   -5.500328    3.538817
     23          6           0       23.842730   -4.526671    5.649683
     24          7           0       26.310138   -2.765127   -0.601444
     25          6           0       25.645268   -3.851270   -0.103456
     26          6           0       25.543232   -4.989562   -1.174572
     27          6           0       26.327539   -4.423128   -2.351039
     28          6           0       26.773584   -3.010144   -1.882588
     29          6           0       26.009635   -6.386548   -0.649128
     30          6           0       25.438012   -4.403694   -3.603439
     31          6           0       26.020672   -4.860548   -4.891234
     32          7           0       27.092977   -0.105245   -1.437096
     33          6           0       27.523872   -0.692275   -2.599865
     34          6           0       28.089323    0.273018   -3.494385
     35          6           0       27.832096    1.595266   -2.880266
     36          6           0       27.205877    1.268578   -1.613418
     37          6           0       28.761096   -0.034480   -4.843646
     38          6           0       27.958162    3.070093   -2.995221
     39          8           0       28.309890    3.772397   -3.958248
     40          6           0       27.405203    3.615191   -1.614409
     41          6           0       28.611656    4.355447   -1.127731
     42          8           0       29.564782    3.925052   -0.489701
     43          8           0       28.495605    5.634277   -1.360091
     44          6           0       29.646385    6.535295   -1.108161
     45          1           0       25.415508    0.965231    4.306094
     46          1           0       24.888306   -4.914978    1.447252
     47          1           0       27.694254   -2.483393   -3.784832
     48          1           0       27.518154    3.989606    1.495805
     49          1           0       25.236140    3.038782    3.357813
     50          1           0       28.283626    3.294991    3.624146
     51          1           0       27.481779    1.977621    4.417139
     52          1           0       26.951041    3.629591    4.727507
     53          1           0       24.835162    4.822688    1.996833
     54          1           0       24.749940    4.232770    0.329488
     55          1           0       25.493556    5.873569   -0.512374
     56          1           0       26.758598    6.152834    0.814270
     57          1           0       23.733531   -1.606584    5.994873
     58          1           0       24.992553   -0.401540    5.759386
     59          1           0       25.377014   -1.984374    6.403758
     60          1           0       23.171295   -3.699372    5.879934
     61          1           0       24.690311   -4.292942    6.294107
     62          1           0       23.319949   -5.430392    5.961246
     63          1           0       24.468095   -5.025806   -1.349499
     64          1           0       27.160892   -5.072831   -2.617936
     65          1           0       26.188501   -6.424093    0.425340
     66          1           0       26.932818   -6.742219   -1.105155
     67          1           0       25.315665   -7.156277   -0.986483
     68          1           0       25.168548   -3.351106   -3.680400
     69          1           0       24.539504   -5.016286   -3.533396
     70          1           0       25.861481   -4.025803   -5.573443
     71          1           0       25.584693   -5.815366   -5.184918
     72          1           0       27.104732   -4.976209   -4.889830
     73          1           0       29.827613   -0.186086   -4.681475
     74          1           0       28.563694    0.797417   -5.519553
     75          1           0       28.392782   -0.960546   -5.285603
     76          1           0       26.595647    4.304510   -1.853631
     77          1           0       29.977215    6.552677   -0.070302
     78          1           0       29.484918    7.564716   -1.427437
     79          1           0       30.561190    6.331037   -1.663656
     80         12           0      -26.954251   -0.425667   -0.217908
     81          6           0      -24.994287    2.413129   -0.804784
     82          6           0      -28.356408    1.111567    2.493453
     83          6           0      -28.514091   -3.260132    0.470495
     84          6           0      -25.269116   -1.980960   -2.959770
     85          7           0      -26.644266    1.544712    0.748165
     86          6           0      -25.858485    2.595974    0.330924
     87          6           0      -26.208335    3.858197    1.097314
     88          6           0      -27.067088    3.312871    2.306050
     89          6           0      -27.443684    1.902227    1.737712
     90          6           0      -26.291896    3.222199    3.614322
     91          6           0      -26.825355    4.925388    0.121473
     92          6           0      -27.408827    6.166379    0.852379
     93          1           0      -26.752490    6.555859    2.160611
     94          7           0      -28.224172   -0.968592    1.216327
     95          6           0      -28.622037   -0.239356    2.329765
     96          6           0      -29.501704   -1.026515    3.211668
     97          6           0      -29.565481   -2.302504    2.571769
     98          6           0      -28.737375   -2.210505    1.372214
     99          6           0      -30.147866   -0.467969    4.423785
    100          6           0      -30.330255   -3.504565    3.062825
    101          8           0      -30.369652   -4.583905    2.409543
    102          6           0      -31.152174   -3.446807    4.321868
    103          7           0      -26.934044   -2.348933   -1.168827
    104          6           0      -27.688233   -3.318421   -0.650348
    105          6           0      -27.419363   -4.693251   -1.406441
    106          6           0      -26.307429   -4.280934   -2.523823
    107          6           0      -26.142543   -2.795457   -2.199952
    108          6           0      -26.926159   -5.761618   -0.346611
    109          6           0      -26.791992   -4.449636   -4.027116
    110          6           0      -26.600471   -5.864092   -4.645889
    111          7           0      -25.428583    0.016641   -1.558518
    112          6           0      -24.909280   -0.646792   -2.701502
    113          6           0      -23.907184    0.264289   -3.409313
    114          6           0      -23.849400    1.440402   -2.668419
    115          6           0      -24.860493    1.264187   -1.594869
    116          6           0      -23.158839   -0.005354   -4.677059
    117          6           0      -23.287996    2.767116   -2.566736
    118          8           0      -22.452841    3.368250   -3.249779
    119          6           0      -24.146819    3.538589   -1.446291
    120          6           0      -23.281266    4.279213   -0.452752
    121          8           0      -22.818594    3.782179    0.538292
    122          8           0      -23.285520    5.668895   -0.709595
    123          6           0      -22.883777    6.558457    0.390408
    124          1           0      -28.671307    1.715129    3.347696
    125          1           0      -29.019852   -4.197488    0.712023
    126          1           0      -24.644299   -2.425555   -3.737323
    127          1           0      -25.275971    4.286642    1.462849
    128          1           0      -28.004207    3.838298    2.492815
    129          1           0      -26.855883    3.819295    4.330749
    130          1           0      -25.264388    3.533907    3.428207
    131          1           0      -26.363243    2.239571    4.080030
    132          1           0      -27.426118    4.293041   -0.531483
    133          1           0      -25.997607    5.246833   -0.509779
    134          1           0      -28.454262    5.894608    0.998623
    135          1           0      -27.329226    7.020445    0.179971
    136          1           0      -29.691732   -1.054381    5.221199
    137          1           0      -31.235679   -0.525885    4.397356
    138          1           0      -29.955339    0.568044    4.705480
    139          1           0      -31.959085   -2.728432    4.183847
    140          1           0      -30.360132   -3.158088    5.013940
    141          1           0      -31.550185   -4.393710    4.685592
    142          1           0      -28.405207   -4.862758   -1.841177
    143          1           0      -25.280655   -4.609839   -2.358097
    144          1           0      -26.834343   -5.381013    0.670500
    145          1           0      -25.942816   -6.137332   -0.630681
    146          1           0      -27.714124   -6.513059   -0.305659
    147          1           0      -26.453179   -3.634066   -4.665345
    148          1           0      -27.870848   -4.299329   -4.004157
    149          1           0      -27.579489   -6.183767   -5.001108
    150          1           0      -26.145785   -6.510642   -3.895221
    151          1           0      -25.933149   -5.846758   -5.507891
    152          1           0      -23.623245    0.619360   -5.440363
    153          1           0      -23.213141   -1.065024   -4.929479
    154          1           0      -22.103199    0.263128   -4.711827
    155          1           0      -24.802521    4.219286   -1.988478
    156          1           0      -21.795522    6.505092    0.406049
    157          1           0      -23.411435    6.300637    1.308893
    158          1           0      -23.243347    7.551446    0.121958
 ---------------------------------------------------------------------

 SCF Done:  E(RwB97XD) =  -4070.61782483     A.U. after   20 cycles

 Excitation energies and oscillator strengths:

 Excited State   1:      Singlet-A      1.6549 eV  749.19 nm  f=0.3797  <S**2>=0.000
     309 -> 315        0.20544
     312 -> 314        0.67803
     309 <- 315        0.12142
 This state for optimization and/or second-order correction.
 Total Energy, E(TD-HF/TD-DFT) =  -4070.55700829
 Copying the excited state density for this state as the 1-particle RhoCI density.

 Excited State   2:      Singlet-A      1.7237 eV  719.29 nm  f=0.3811  <S**2>=0.000
     310 -> 316        0.18637
     311 -> 313        0.68177
     310 <- 316        0.11197

 Excited State   3:      Singlet-A      2.1685 eV  571.75 nm  f=0.1027  <S**2>=0.000
     310 -> 313        0.63396
     311 -> 316       -0.29499

 Excited State   4:      Singlet-A      2.2347 eV  554.81 nm  f=0.0335  <S**2>=0.000
     309 -> 314        0.58749
     312 -> 315       -0.38610

 Excited State   5:      Singlet-A      3.4478 eV  359.60 nm  f=0.0933  <S**2>=0.000
     299 -> 313       -0.10554
     304 -> 313        0.24560
     305 -> 313       -0.18491
     308 -> 313        0.57283
     310 -> 313       -0.10017
     311 -> 316       -0.18490

 The electronic state is 1-A.
 Alpha  occ. eigenvalues --  -46.94862 -46.94429 -19.30452 -19.29228 -19.25235
 Alpha  occ. eigenvalues --  -19.24672 -19.24277 -19.23867 -19.23465 -19.23096
 Alpha  occ. eigenvalues --  -14.47161 -14.46752 -14.46477 -14.46134 -14.44588
 Alpha  occ. eigenvalues --  -14.44519 -14.44456 -14.43538 -10.43291 -10.42441
 Alpha  occ. eigenvalues --  -10.39999 -10.39592 -10.39424 -10.39247 -10.35742
 Alpha  occ. eigenvalues --  -10.35667 -10.35500 -10.35459 -10.35274 -10.34952
 Alpha  occ. eigenvalues --  -10.34885 -10.34860 -10.34770 -10.34672 -10.34483
 Alpha  occ. eigenvalues --  -10.34400 -10.34382 -10.34378 -10.34185 -10.33655
 Alpha  occ. eigenvalues --  -10.33604 -10.33503 -10.33419 -10.33252 -10.33104
 Alpha  occ. eigenvalues --  -10.32805 -10.32767 -10.32703 -10.32640 -10.32628
 Alpha  occ. eigenvalues --  -10.32360 -10.32354 -10.32304 -10.32255 -10.32209
 Alpha  occ. eigenvalues --  -10.32134 -10.32013 -10.31998 -10.31816 -10.31764
 Alpha  occ. eigenvalues --  -10.31742 -10.31710 -10.31580 -10.31519 -10.31125
 Alpha  occ. eigenvalues --  -10.31052 -10.30998 -10.30987 -10.30648 -10.30417
 Alpha  occ. eigenvalues --  -10.30415 -10.30389 -10.30316 -10.30310 -10.30096
 Alpha  occ. eigenvalues --  -10.30065 -10.29891 -10.29720 -10.29692 -10.29630
 Alpha  occ. eigenvalues --  -10.29439 -10.29438 -10.29208 -10.29207 -10.29106
 Alpha  occ. eigenvalues --  -10.28634  -3.20891  -3.20529  -1.94482  -1.94129
 Alpha  occ. eigenvalues --   -1.94017  -1.93867  -1.93641  -1.93531  -1.19938
 Alpha  occ. eigenvalues --   -1.17632  -1.12353  -1.11388  -1.10562  -1.10035
 Alpha  occ. eigenvalues --   -1.09995  -1.08624  -1.07481  -1.06339  -1.06106
 Alpha  occ. eigenvalues --   -1.05490  -1.04836  -1.04768  -1.03414  -1.03321
 Alpha  occ. eigenvalues --   -0.93761  -0.93591  -0.91474  -0.90948  -0.90864
 Alpha  occ. eigenvalues --   -0.90679  -0.90445  -0.89759  -0.89694  -0.89498
 Alpha  occ. eigenvalues --   -0.88668  -0.88655  -0.88250  -0.87031  -0.86196
 Alpha  occ. eigenvalues --   -0.86164  -0.85345  -0.84857  -0.84759  -0.84657
 Alpha  occ. eigenvalues --   -0.84128  -0.83825  -0.82749  -0.82701  -0.82485
 Alpha  occ. eigenvalues --   -0.81971  -0.80951  -0.80781  -0.79397  -0.79357
 Alpha  occ. eigenvalues --   -0.78906  -0.78761  -0.78074  -0.77710  -0.77114
 Alpha  occ. eigenvalues --   -0.76492  -0.74179  -0.74080  -0.73792  -0.73448
 Alpha  occ. eigenvalues --   -0.71355  -0.71214  -0.70523  -0.70300  -0.70100
 Alpha  occ. eigenvalues --   -0.69580  -0.69096  -0.68956  -0.67758  -0.67419
 Alpha  occ. eigenvalues --   -0.67181  -0.67124  -0.66861  -0.66181  -0.65925
 Alpha  occ. eigenvalues --   -0.65775  -0.64353  -0.63284  -0.63003  -0.62671
 Alpha  occ. eigenvalues --   -0.61479  -0.61472  -0.60926  -0.60713  -0.60450
 Alpha  occ. eigenvalues --   -0.59762  -0.59747  -0.59629  -0.59533  -0.58772
 Alpha  occ. eigenvalues --   -0.58734  -0.58142  -0.57830  -0.57530  -0.56917
 Alpha  occ. eigenvalues --   -0.56538  -0.56201  -0.56142  -0.56109  -0.55894
 Alpha  occ. eigenvalues --   -0.55752  -0.55612  -0.55538  -0.55210  -0.54893
 Alpha  occ. eigenvalues --   -0.54574  -0.54477  -0.54455  -0.54156  -0.54038
 Alpha  occ. eigenvalues --   -0.53843  -0.53657  -0.53364  -0.53338  -0.53105
 Alpha  occ. eigenvalues --   -0.52800  -0.52541  -0.52404  -0.52399  -0.52047
 Alpha  occ. eigenvalues --   -0.51960  -0.51849  -0.51657  -0.51470  -0.51387
 Alpha  occ. eigenvalues --   -0.51377  -0.51245  -0.51032  -0.50929  -0.50789
 Alpha  occ. eigenvalues --   -0.50583  -0.50445  -0.50440  -0.50109  -0.50066
 Alpha  occ. eigenvalues --   -0.50031  -0.50000  -0.49718  -0.49368  -0.49319
 Alpha  occ. eigenvalues --   -0.48792  -0.48552  -0.48249  -0.48113  -0.48023
 Alpha  occ. eigenvalues --   -0.47995  -0.47754  -0.47683  -0.47522  -0.47514
 Alpha  occ. eigenvalues --   -0.47381  -0.47148  -0.47105  -0.47050  -0.46957
 Alpha  occ. eigenvalues --   -0.46779  -0.46634  -0.46539  -0.46288  -0.46190
 Alpha  occ. eigenvalues --   -0.46114  -0.45924  -0.45919  -0.45428  -0.45159
 Alpha  occ. eigenvalues --   -0.45078  -0.45009  -0.44991  -0.44847  -0.44736
 Alpha  occ. eigenvalues --   -0.44486  -0.44267  -0.44235  -0.44111  -0.43959
 Alpha  occ. eigenvalues --   -0.43614  -0.43501  -0.43307  -0.43288  -0.43136
 Alpha  occ. eigenvalues --   -0.42835  -0.42686  -0.42307  -0.42264  -0.42095
 Alpha  occ. eigenvalues --   -0.41959  -0.41716  -0.41394  -0.41128  -0.40967
 Alpha  occ. eigenvalues --   -0.40477  -0.40337  -0.40113  -0.39907  -0.39861
 Alpha  occ. eigenvalues --   -0.39265  -0.38837  -0.38691  -0.38353  -0.38264
 Alpha  occ. eigenvalues --   -0.37817  -0.37761  -0.36496  -0.36404  -0.36150
 Alpha  occ. eigenvalues --   -0.35511  -0.35421  -0.35134  -0.34117  -0.33810
 Alpha  occ. eigenvalues --   -0.33489  -0.33077  -0.32607  -0.32595  -0.32476
 Alpha  occ. eigenvalues --   -0.32460  -0.32244  -0.30813  -0.25923  -0.25850
 Alpha  occ. eigenvalues --   -0.22999  -0.22231
 Alpha virt. eigenvalues --   -0.06849  -0.06249  -0.00251   0.00069   0.01824
 Alpha virt. eigenvalues --    0.01866   0.04179   0.04245   0.05791   0.06302
 Alpha virt. eigenvalues --    0.06692   0.07687   0.07712   0.08350   0.08473

 Mulliken charges:
               1
     1  Mg   0.972860
     2  C    0.039377
     3  C   -0.094846
     4  C   -0.084698
     5  C   -0.089035
     6  N   -0.280166
     7  C   -0.033650
     8  C   -0.039363
     9  C   -0.125373
    10  C    0.009603
    11  C    0.001846
    12  C   -0.006468
    13  C   -0.125587
    14  H    0.045876
    15  N   -0.445466
    16  C    0.189223
    17  C   -0.135393
    18  C   -0.078190
    19  C    0.174073
    20  C    0.050839
    21  C    0.084368
    22  O   -0.232483
    23  C   -0.007025
    24  N   -0.424737
    25  C    0.030585
    26  C   -0.065406
    27  C   -0.064753
    28  C    0.113719
    29  C    0.012639
    30  C   -0.040740
    31  C   -0.047852
    32  N   -0.454896
    33  C    0.145744
    34  C   -0.198975
    35  C   -0.045489
    36  C    0.123328
    37  C    0.077634
    38  C    0.112900
    39  O   -0.226553
    40  C   -0.112749
    41  C    0.233024
    42  O   -0.268654
    43  O   -0.310168
    44  C    0.148254
    45  H    0.001890
    46  H    0.016049
    47  H   -0.006144
    48  H    0.060576
    49  H    0.045621
    50  H    0.052681
    51  H    0.037779
    52  H    0.037490
    53  H    0.038514
    54  H    0.032744
    55  H    0.062039
    56  H    0.051812
    57  H    0.054606
    58  H    0.035440
    59  H    0.048309
    60  H    0.039691
    61  H    0.049856
    62  H    0.061305
    63  H    0.053992
    64  H    0.031661
    65  H    0.057286
    66  H    0.025260
    67  H    0.035176
    68  H    0.036546
    69  H    0.031264
    70  H    0.037272
    71  H    0.043620
    72  H    0.025465
    73  H    0.056346
    74  H    0.061415
    75  H    0.025367
    76  H    0.075585
    77  H    0.050757
    78  H    0.052458
    79  H    0.053094
    80  Mg   0.985095
    81  C   -0.029927
    82  C   -0.097641
    83  C   -0.088010
    84  C   -0.091742
    85  N   -0.320842
    86  C   -0.001375
    87  C   -0.052484
    88  C   -0.133825
    89  C    0.011171
    90  C    0.044514
    91  C   -0.023173
    92  C   -0.099799
    93  H    0.046651
    94  N   -0.499804
    95  C    0.214668
    96  C   -0.158573
    97  C   -0.076607
    98  C    0.175284
    99  C    0.073515
   100  C    0.037572
   101  O   -0.272493
   102  C    0.020924
   103  N   -0.348977
   104  C    0.045633
   105  C   -0.087846
   106  C   -0.049397
   107  C    0.040773
   108  C    0.013506
   109  C   -0.039910
   110  C   -0.032195
   111  N   -0.451860
   112  C    0.125114
   113  C   -0.194119
   114  C   -0.009008
   115  C    0.139028
   116  C    0.070683
   117  C    0.151146
   118  O   -0.215003
   119  C   -0.144204
   120  C    0.289181
   121  O   -0.219307
   122  O   -0.405863
   123  C    0.143367
   124  H   -0.011152
   125  H    0.021197
   126  H    0.001206
   127  H    0.028685
   128  H    0.029455
   129  H    0.028584
   130  H    0.059093
   131  H    0.036160
   132  H    0.041275
   133  H    0.036870
   134  H    0.058423
   135  H    0.059628
   136  H    0.054136
   137  H    0.057894
   138  H    0.036141
   139  H    0.065571
   140  H    0.039158
   141  H    0.055175
   142  H    0.050630
   143  H    0.044463
   144  H    0.052645
   145  H    0.038271
   146  H    0.049598
   147  H    0.034809
   148  H    0.019208
   149  H    0.041762
   150  H    0.039428
   151  H    0.036825
   152  H    0.060604
   153  H    0.027127
   154  H    0.060455
   155  H    0.091821
   156  H    0.068532
   157  H    0.050148
   158  H    0.052331
 Sum of Mulliken charges =  -0.00000

 Dipole moment (field-independent basis, Debye):
    X=             -6.5514    Y=              0.8679    Z=              6.7724  Tot=              9.4625
 Quadrupole moment (field-independent basis, Debye-Ang):
   XX=           -469.1527   YY=           -494.7282   ZZ=           -472.8604
   XY=            -67.9789   XZ=             54.8670   YZ=             50.7379

 Normal termination of Gaussian 16 at Mon Sep 20 13:47:00 2021.
