 Gaussian 16, Revision A.03,
 Gaussian 16:  ES64L-G16RevA.03 25-Dec-2016

 --------------------------------
 #p wB97XD/Def2SVP td=(nstates=5)
 --------------------------------

 --------------------------------
 TDDFT excited states in gaussian
 --------------------------------
 Symbolic Z-matrix:
 Charge =  0 Multiplicity = 1

                         Standard orientation:
 ---------------------------------------------------------------------
 Center     Atomic      Atomic             Coordinates (Angstroms)
 Number     Number       Type             X           Y           Z
 ---------------------------------------------------------------------
      1         12           0      -29.685542    0.107617    0.379242
      2          6           0      -26.952681   -1.454206   -0.865305
      3          6           0      -31.079109    0.203492   -2.800934
      4          6           0      -32.416105    1.675316    1.623355
      5          6           0      -28.098497    0.451812    3.436343
      6          7           0      -29.093353   -0.648019   -1.494759
      7          6           0      -27.917167   -1.236268   -1.829328
      8          6           0      -27.926735   -1.785045   -3.232237
      9          6           0      -29.121047   -1.013017   -3.911281
     10          6           0      -29.837828   -0.465741   -2.633599
     11          6           0      -28.840148    0.065395   -5.039503
     12          6           0      -28.209320   -3.354606   -3.251685
     13          6           0      -27.654928   -4.044541   -4.532886
     14          1           0      -27.492825   -3.283870   -5.859629
     15          7           0      -31.503036    0.934007   -0.458716
     16          6           0      -31.862612    0.833985   -1.828349
     17          6           0      -33.148612    1.431195   -2.027949
     18          6           0      -33.570217    1.896390   -0.731494
     19          6           0      -32.463805    1.477694    0.201486
     20          6           0      -33.886564    1.444018   -3.320618
     21          6           0      -34.852734    2.618676   -0.334211
     22          8           0      -35.104795    3.100852    0.808922
     23          6           0      -35.945269    2.820442   -1.370483
     24          7           0      -30.167178    1.003050    2.224594
     25          6           0      -31.448738    1.432392    2.573083
     26          6           0      -31.675848    1.622783    4.100644
     27          6           0      -30.209785    1.147442    4.632140
     28          6           0      -29.442816    0.820035    3.403620
     29          6           0      -32.005889    3.095019    4.378198
     30          6           0      -30.248164    0.048231    5.652526
     31          6           0      -29.544290    0.394692    6.933340
     32          7           0      -27.931862   -0.241530    1.174910
     33          6           0      -27.378558   -0.095937    2.440978
     34          6           0      -26.052152   -0.591335    2.454189
     35          6           0      -25.777959   -1.113622    1.161640
     36          6           0      -26.981056   -0.981430    0.436643
     37          6           0      -25.084876   -0.640596    3.573952
     38          6           0      -24.749604   -1.654700    0.300156
     39          8           0      -23.565562   -1.900478    0.423026
     40          6           0      -25.556086   -1.955999   -1.050894
     41          6           0      -24.765266   -1.630812   -2.266645
     42          8           0      -24.091204   -0.648651   -2.445013
     43          8           0      -24.823118   -2.584812   -3.208848
     44          6           0      -24.050243   -2.276970   -4.445744
     45          1           0      -31.342533    0.335764   -3.852514
     46          1           0      -33.240059    2.295993    1.981327
     47          1           0      -27.571246    0.418236    4.391950
     48          1           0      -27.051679   -1.478701   -3.805168
     49          1           0      -29.812837   -1.748461   -4.320694
     50          1           0      -27.772490    0.033672   -5.257074
     51          1           0      -29.130272    1.095369   -4.838078
     52          1           0      -29.447039   -0.221817   -5.898371
     53          1           0      -29.292201   -3.431513   -3.152372
     54          1           0      -27.726017   -3.778869   -2.371531
     55          1           0      -28.350430   -4.873476   -4.665477
     56          1           0      -26.722068   -4.524123   -4.237632
     57          1           0      -34.436169    0.534286   -3.562529
     58          1           0      -33.136510    1.675174   -4.075943
     59          1           0      -34.521306    2.321065   -3.443541
     60          1           0      -35.662668    3.711763   -1.930442
     61          1           0      -36.844084    3.027998   -0.790356
     62          1           0      -36.059668    1.987240   -2.064098
     63          1           0      -32.552035    1.024095    4.349869
     64          1           0      -29.729579    1.996294    5.120088
     65          1           0      -31.890736    3.776331    3.534936
     66          1           0      -31.478254    3.410468    5.277994
     67          1           0      -33.076834    3.123546    4.581176
     68          1           0      -29.745016   -0.861367    5.324276
     69          1           0      -31.249332   -0.289869    5.920128
     70          1           0      -30.138167    0.177198    7.820634
     71          1           0      -29.294306    1.454488    6.974991
     72          1           0      -28.590486   -0.128739    6.860927
     73          1           0      -25.164672    0.158476    4.311585
     74          1           0      -24.146967   -0.345911    3.102339
     75          1           0      -25.111987   -1.622274    4.047017
     76          1           0      -25.565959   -3.041701   -0.950398
     77          1           0      -22.979316   -2.434683   -4.310236
     78          1           0      -24.319922   -1.307245   -4.864417
     79          1           0      -24.352723   -2.984555   -5.218099
     80         12           0       29.767772    0.124823   -0.564387
     81          6           0       26.852484   -1.184390    0.795795
     82          6           0       28.148021    3.265979   -0.825358
     83          6           0       32.736249    1.645770   -0.761926
     84          6           0       31.400173   -2.848857    0.395384
     85          7           0       27.767749    1.038124    0.282891
     86          6           0       26.707191    0.204458    0.544717
     87          6           0       25.432736    0.971928    0.706980
     88          6           0       25.780231    2.332473   -0.054955
     89          6           0       27.341244    2.266888   -0.205687
     90          6           0       25.041831    2.557024   -1.469529
     91          6           0       25.010625    1.052175    2.263522
     92          6           0       23.595794    1.222389    2.499094
     93          1           0       23.257297    2.449817    3.371417
     94          7           0       30.376123    2.115555   -0.942270
     95          6           0       29.550895    3.271995   -1.023915
     96          6           0       30.410157    4.400657   -1.339319
     97          6           0       31.757421    3.964641   -1.351755
     98          6           0       31.666661    2.488290   -1.093171
     99          6           0       29.886693    5.785231   -1.434457
    100          6           0       33.005395    4.922984   -1.550437
    101          8           0       32.767263    6.117441   -1.722350
    102          6           0       34.401885    4.382992   -1.839054
    103          7           0       31.731551   -0.524091   -0.124947
    104          6           0       32.772476    0.294590   -0.421759
    105          6           0       34.236591   -0.366924   -0.034207
    106          6           0       33.802819   -1.901697    0.132848
    107          6           0       32.243572   -1.819695    0.118837
    108          6           0       35.365400   -0.223534   -1.124094
    109          6           0       34.319186   -2.535069    1.426151
    110          6           0       35.224606   -3.789522    1.388814
    111          7           0       29.201895   -1.738560    0.122216
    112          6           0       29.960090   -2.832929    0.422034
    113          6           0       29.092402   -3.930060    0.751070
    114          6           0       27.827983   -3.261652    0.961678
    115          6           0       27.997138   -1.915469    0.595462
    116          6           0       29.513131   -5.328106    1.101365
    117          6           0       26.484734   -3.461530    1.464227
    118          8           0       25.905325   -4.471945    1.724487
    119          6           0       25.705695   -2.094825    1.335802
    120          6           0       24.537869   -2.109514    0.324961
    121          8           0       24.618674   -2.512921   -0.815345
    122          8           0       23.355541   -1.680613    0.962694
    123          6           0       22.140157   -1.799186    0.215199
    124          1           0       27.574058    4.185978   -0.948078
    125          1           0       33.702524    2.120833   -0.580982
    126          1           0       31.945647   -3.756384    0.660546
    127          1           0       24.636667    0.596254    0.063306
    128          1           0       25.522713    3.161946    0.604636
    129          1           0       24.468090    3.475621   -1.347302
    130          1           0       24.398695    1.723273   -1.749492
    131          1           0       25.833084    2.708573   -2.204301
    132          1           0       25.535799    1.938646    2.618743
    133          1           0       25.498682    0.159456    2.655547
    134          1           0       23.262143    0.311185    2.994118
    135          1           0       23.075777    1.380548    1.554322
    136          1           0       28.798648    5.800625   -1.495344
    137          1           0       30.211100    6.241739   -2.369917
    138          1           0       30.169069    6.376282   -0.562922
    139          1           0       34.840257    3.830810   -1.007177
    140          1           0       35.029979    5.232343   -2.109756
    141          1           0       34.325684    3.747588   -2.721486
    142          1           0       34.457665    0.074740    0.937086
    143          1           0       34.013353   -2.535093   -0.729162
    144          1           0       36.154187    0.429682   -0.752100
    145          1           0       34.942543    0.214747   -2.028881
    146          1           0       35.748644   -1.227740   -1.308350
    147          1           0       33.511240   -2.718141    2.134172
    148          1           0       34.870392   -1.856489    2.076953
    149          1           0       34.800828   -4.727540    1.748504
    150          1           0       36.041626   -3.563598    2.074466
    151          1           0       35.591183   -3.982894    0.379965
    152          1           0       28.632675   -5.961564    0.990726
    153          1           0       29.642789   -5.518710    2.166245
    154          1           0       30.403587   -5.685291    0.584730
    155          1           0       25.294335   -1.957061    2.336147
    156          1           0       21.555491   -1.000917    0.673551
    157          1           0       21.591813   -2.706613    0.467566
    158          1           0       22.334183   -1.743088   -0.855178
 ---------------------------------------------------------------------

 SCF Done:  E(RwB97XD) =  -4070.58357862     A.U. after   18 cycles

 Excitation energies and oscillator strengths:

 Excited State   1:      Singlet-A      1.5874 eV  781.04 nm  f=0.3903  <S**2>=0.000
     310 -> 316       -0.17576
     312 -> 313        0.68654
     310 <- 316       -0.11663
 This state for optimization and/or second-order correction.
 Total Energy, E(TD-HF/TD-DFT) =  -4070.52524205
 Copying the excited state density for this state as the 1-particle RhoCI density.

 Excited State   2:      Singlet-A      1.6351 eV  758.25 nm  f=0.3883  <S**2>=0.000
     309 -> 315       -0.17851
     311 -> 314        0.68608
     309 <- 315       -0.11657

 Excited State   3:      Singlet-A      2.1692 eV  571.57 nm  f=0.1100  <S**2>=0.000
     310 -> 313        0.63604
     312 -> 316        0.29410

 Excited State   4:      Singlet-A      2.1961 eV  564.55 nm  f=0.1041  <S**2>=0.000
     309 -> 314        0.63441
     311 -> 315        0.29408

 Excited State   5:      Singlet-A      3.3098 eV  374.60 nm  f=0.0147  <S**2>=0.000
     305 -> 313        0.10126
     307 -> 313        0.67089
     312 -> 316       -0.11074

 The electronic state is 1-A.
 Alpha  occ. eigenvalues --  -46.96137 -46.93505 -19.30370 -19.30331 -19.25642
 Alpha  occ. eigenvalues --  -19.24751 -19.24280 -19.23693 -19.23552 -19.23233
 Alpha  occ. eigenvalues --  -14.47462 -14.46915 -14.46604 -14.46294 -14.44822
 Alpha  occ. eigenvalues --  -14.44112 -14.43608 -14.43405 -10.43927 -10.42416
 Alpha  occ. eigenvalues --  -10.40406 -10.39220 -10.39173 -10.37962 -10.35893
 Alpha  occ. eigenvalues --  -10.35813 -10.35695 -10.35381 -10.35286 -10.35160
 Alpha  occ. eigenvalues --  -10.35104 -10.34950 -10.34716 -10.34515 -10.34515
 Alpha  occ. eigenvalues --  -10.34442 -10.34121 -10.33897 -10.33587 -10.33343
 Alpha  occ. eigenvalues --  -10.33329 -10.32963 -10.32891 -10.32835 -10.32700
 Alpha  occ. eigenvalues --  -10.32685 -10.32548 -10.32537 -10.32333 -10.32305
 Alpha  occ. eigenvalues --  -10.32242 -10.32187 -10.32099 -10.32083 -10.32011
 Alpha  occ. eigenvalues --  -10.31983 -10.31913 -10.31908 -10.31808 -10.31758
 Alpha  occ. eigenvalues --  -10.31695 -10.31671 -10.31598 -10.31589 -10.31541
 Alpha  occ. eigenvalues --  -10.31141 -10.30939 -10.30732 -10.30679 -10.30571
 Alpha  occ. eigenvalues --  -10.30483 -10.30352 -10.30349 -10.30194 -10.29970
 Alpha  occ. eigenvalues --  -10.29709 -10.29656 -10.29631 -10.29515 -10.29497
 Alpha  occ. eigenvalues --  -10.29442 -10.29415 -10.29326 -10.29280 -10.28915
 Alpha  occ. eigenvalues --  -10.28619  -3.22021  -3.19756  -1.95552  -1.95195
 Alpha  occ. eigenvalues --   -1.94952  -1.93345  -1.92870  -1.92777  -1.19476
 Alpha  occ. eigenvalues --   -1.18213  -1.12975  -1.12544  -1.12385  -1.10907
 Alpha  occ. eigenvalues --   -1.09624  -1.09450  -1.06883  -1.06519  -1.05602
 Alpha  occ. eigenvalues --   -1.04957  -1.04727  -1.04372  -1.03622  -1.03422
 Alpha  occ. eigenvalues --   -0.95357  -0.94179  -0.91582  -0.91091  -0.90727
 Alpha  occ. eigenvalues --   -0.90445  -0.90255  -0.90056  -0.89594  -0.89170
 Alpha  occ. eigenvalues --   -0.88793  -0.88374  -0.88359  -0.87752  -0.86235
 Alpha  occ. eigenvalues --   -0.85984  -0.85721  -0.85229  -0.84605  -0.84378
 Alpha  occ. eigenvalues --   -0.84150  -0.83589  -0.83087  -0.83002  -0.82465
 Alpha  occ. eigenvalues --   -0.82211  -0.80308  -0.79741  -0.79707  -0.79288
 Alpha  occ. eigenvalues --   -0.79271  -0.78678  -0.78462  -0.78038  -0.77155
 Alpha  occ. eigenvalues --   -0.76881  -0.74877  -0.74640  -0.73815  -0.73319
 Alpha  occ. eigenvalues --   -0.71131  -0.71075  -0.70590  -0.70400  -0.70143
 Alpha  occ. eigenvalues --   -0.69393  -0.68680  -0.68465  -0.67838  -0.67786
 Alpha  occ. eigenvalues --   -0.67303  -0.66823  -0.66774  -0.66441  -0.66087
 Alpha  occ. eigenvalues --   -0.66082  -0.64781  -0.64327  -0.62332  -0.61887
 Alpha  occ. eigenvalues --   -0.61686  -0.61424  -0.60971  -0.60936  -0.60513
 Alpha  occ. eigenvalues --   -0.60364  -0.59967  -0.59964  -0.59719  -0.59443
 Alpha  occ. eigenvalues --   -0.58321  -0.58078  -0.57355  -0.57271  -0.57155
 Alpha  occ. eigenvalues --   -0.56986  -0.56931  -0.56673  -0.55916  -0.55857
 Alpha  occ. eigenvalues --   -0.55281  -0.55169  -0.54957  -0.54808  -0.54665
 Alpha  occ. eigenvalues --   -0.54486  -0.54455  -0.54400  -0.54363  -0.54105
 Alpha  occ. eigenvalues --   -0.54028  -0.53904  -0.53681  -0.53576  -0.53245
 Alpha  occ. eigenvalues --   -0.53084  -0.52945  -0.52694  -0.52237  -0.52147
 Alpha  occ. eigenvalues --   -0.52014  -0.52003  -0.51927  -0.51669  -0.51598
 Alpha  occ. eigenvalues --   -0.51568  -0.51136  -0.51034  -0.50945  -0.50795
 Alpha  occ. eigenvalues --   -0.50699  -0.50352  -0.50309  -0.50134  -0.49911
 Alpha  occ. eigenvalues --   -0.49902  -0.49788  -0.49752  -0.49254  -0.49209
 Alpha  occ. eigenvalues --   -0.49127  -0.48981  -0.48909  -0.48632  -0.48541
 Alpha  occ. eigenvalues --   -0.48340  -0.48298  -0.48064  -0.47870  -0.47840
 Alpha  occ. eigenvalues --   -0.47563  -0.47156  -0.47145  -0.46868  -0.46850
 Alpha  occ. eigenvalues --   -0.46725  -0.46709  -0.46475  -0.46415  -0.46010
 Alpha  occ. eigenvalues --   -0.45995  -0.45883  -0.45826  -0.45463  -0.45437
 Alpha  occ. eigenvalues --   -0.45341  -0.45206  -0.45121  -0.45061  -0.44709
 Alpha  occ. eigenvalues --   -0.44604  -0.44411  -0.44365  -0.44253  -0.44160
 Alpha  occ. eigenvalues --   -0.43980  -0.43838  -0.43373  -0.43330  -0.42952
 Alpha  occ. eigenvalues --   -0.42937  -0.42869  -0.42834  -0.42501  -0.42345
 Alpha  occ. eigenvalues --   -0.42324  -0.42277  -0.41923  -0.41697  -0.40598
 Alpha  occ. eigenvalues --   -0.40205  -0.40163  -0.39883  -0.39679  -0.39633
 Alpha  occ. eigenvalues --   -0.39170  -0.39024  -0.38985  -0.38658  -0.38642
 Alpha  occ. eigenvalues --   -0.38221  -0.37554  -0.36732  -0.36620  -0.36229
 Alpha  occ. eigenvalues --   -0.36206  -0.35522  -0.35430  -0.33682  -0.33569
 Alpha  occ. eigenvalues --   -0.33437  -0.32815  -0.32643  -0.32417  -0.32135
 Alpha  occ. eigenvalues --   -0.31924  -0.31755  -0.31280  -0.26244  -0.26232
 Alpha  occ. eigenvalues --   -0.22968  -0.22836
 Alpha virt. eigenvalues --   -0.07323  -0.07106   0.00269   0.00297   0.02169
 Alpha virt. eigenvalues --    0.02529   0.04272   0.04338   0.04511   0.06124
 Alpha virt. eigenvalues --    0.06747   0.07104   0.07438   0.07850   0.08030

 Mulliken charges:
               1
     1  Mg   0.985505
     2  C    0.012774
     3  C   -0.095370
     4  C   -0.062392
     5  C   -0.128226
     6  N   -0.378480
     7  C   -0.008463
     8  C   -0.043390
     9  C   -0.122001
    10  C    0.057968
    11  C    0.021175
    12  C    0.005332
    13  C   -0.092391
    14  H    0.043452
    15  N   -0.389511
    16  C    0.164053
    17  C   -0.155441
    18  C   -0.073774
    19  C    0.099989
    20  C    0.064832
    21  C    0.052946
    22  O   -0.274740
    23  C   -0.022199
    24  N   -0.391846
    25  C    0.058002
    26  C   -0.092135
    27  C   -0.027171
    28  C    0.108859
    29  C    0.008977
    30  C   -0.008532
    31  C   -0.062950
    32  N   -0.527687
    33  C    0.190067
    34  C   -0.191404
    35  C   -0.055006
    36  C    0.141348
    37  C    0.072767
    38  C    0.153172
    39  O   -0.183115
    40  C   -0.107208
    41  C    0.224594
    42  O   -0.229896
    43  O   -0.358865
    44  C    0.140850
    45  H   -0.003565
    46  H    0.017275
    47  H   -0.016856
    48  H    0.024533
    49  H    0.035443
    50  H    0.042333
    51  H    0.048432
    52  H    0.037243
    53  H    0.035719
    54  H    0.041471
    55  H    0.044237
    56  H    0.060595
    57  H    0.073839
    58  H    0.034872
    59  H    0.031898
    60  H    0.066654
    61  H    0.059205
    62  H    0.050458
    63  H    0.056037
    64  H    0.035255
    65  H    0.060720
    66  H    0.037233
    67  H    0.041376
    68  H    0.033229
    69  H    0.028297
    70  H    0.043812
    71  H    0.022317
    72  H    0.037629
    73  H    0.026943
    74  H    0.061482
    75  H    0.068397
    76  H    0.069235
    77  H    0.070824
    78  H    0.058556
    79  H    0.040407
    80  Mg   0.961143
    81  C   -0.078363
    82  C   -0.075626
    83  C   -0.093952
    84  C   -0.091065
    85  N   -0.325396
    86  C   -0.039384
    87  C   -0.084407
    88  C   -0.134184
    89  C    0.034869
    90  C    0.014958
    91  C    0.053050
    92  C   -0.094449
    93  H    0.019890
    94  N   -0.466714
    95  C    0.174622
    96  C   -0.161829
    97  C   -0.102839
    98  C    0.203837
    99  C    0.095474
   100  C    0.076019
   101  O   -0.234459
   102  C   -0.028075
   103  N   -0.403850
   104  C    0.073532
   105  C   -0.123934
   106  C   -0.024144
   107  C    0.034610
   108  C    0.024334
   109  C   -0.029726
   110  C   -0.054240
   111  N   -0.416175
   112  C    0.139435
   113  C   -0.160953
   114  C   -0.085609
   115  C    0.221765
   116  C    0.066591
   117  C    0.108966
   118  O   -0.181734
   119  C   -0.079806
   120  C    0.276505
   121  O   -0.220993
   122  O   -0.387258
   123  C    0.130547
   124  H    0.011406
   125  H   -0.019724
   126  H   -0.007331
   127  H    0.027300
   128  H    0.037147
   129  H    0.043877
   130  H    0.052446
   131  H    0.042163
   132  H    0.036898
   133  H    0.036989
   134  H    0.063469
   135  H    0.049733
   136  H    0.010716
   137  H    0.056774
   138  H    0.066352
   139  H    0.071045
   140  H    0.057611
   141  H    0.067760
   142  H    0.055943
   143  H    0.043564
   144  H    0.039923
   145  H    0.046118
   146  H    0.045221
   147  H    0.031550
   148  H    0.018909
   149  H    0.040056
   150  H    0.034065
   151  H    0.032250
   152  H    0.049876
   153  H    0.043566
   154  H    0.043533
   155  H    0.072498
   156  H    0.046063
   157  H    0.054219
   158  H    0.067033
 Sum of Mulliken charges =  -0.00000

 Dipole moment (field-independent basis, Debye):
    X=             -0.8880    Y=             -1.2966    Z=             -2.9437  Tot=              3.3369
 Quadrupole moment (field-independent basis, Debye-Ang):
   XX=           -145.0716   YY=           -542.5261   ZZ=           -467.6181
   XY=             83.3780   XZ=             65.3386   YZ=              7.1803

 Normal termination of Gaussian 16 at Sun Sep 19 22:45:31 2021.
