 Gaussian 16, Revision A.03,
 Gaussian 16:  ES64L-G16RevA.03 25-Dec-2016

 --------------------------------
 #p wB97XD/Def2SVP td=(nstates=5)
 --------------------------------

 --------------------------------
 TDDFT excited states in gaussian
 --------------------------------
 Symbolic Z-matrix:
 Charge =  0 Multiplicity = 1

                         Standard orientation:
 ---------------------------------------------------------------------
 Center     Atomic      Atomic             Coordinates (Angstroms)
 Number     Number       Type             X           Y           Z
 ---------------------------------------------------------------------
      1         12           0      -12.247779    0.098172   -0.695931
      2          6           0       -8.990552   -1.225543   -0.954432
      3          6           0      -13.317429   -3.031372    0.121973
      4          6           0      -15.206808    1.497291    0.287973
      5          6           0      -10.739077    3.306057   -1.061039
      6          7           0      -11.214630   -1.906843   -0.303074
      7          6           0       -9.936615   -2.281292   -0.604595
      8          6           0       -9.650323   -3.742371   -0.217082
      9          6           0      -11.169996   -4.262752   -0.265255
     10          6           0      -11.961400   -2.984296   -0.143499
     11          6           0      -11.570411   -5.056251   -1.537873
     12          6           0       -9.019680   -3.932581    1.235326
     13          6           0       -8.208892   -5.185882    1.526817
     14          1           0       -8.714361   -6.288585    2.481318
     15          7           0      -14.116778   -0.618994    0.088997
     16          6           0      -14.355495   -1.957522    0.205512
     17          6           0      -15.703620   -2.206562    0.468296
     18          6           0      -16.323235   -0.900775    0.502632
     19          6           0      -15.227953    0.093767    0.323207
     20          6           0      -16.322675   -3.588718    0.638067
     21          6           0      -17.807307   -0.710340    0.720196
     22          8           0      -18.546911   -1.716944    0.870019
     23          6           0      -18.523898    0.684600    0.662188
     24          7           0      -12.813751    2.085630   -0.452515
     25          6           0      -14.138851    2.416577   -0.059579
     26          6           0      -14.397884    3.876416   -0.308719
     27          6           0      -12.990735    4.506666   -0.392236
     28          6           0      -12.115664    3.265140   -0.732405
     29          6           0      -15.170348    4.315911   -1.573050
     30          6           0      -12.518912    5.147815    1.017161
     31          6           0      -12.964604    6.562016    1.357215
     32          7           0      -10.279932    0.850245   -1.139244
     33          6           0       -9.832422    2.156840   -1.264799
     34          6           0       -8.464780    2.212309   -1.456761
     35          6           0       -8.061089    0.867348   -1.399106
     36          6           0       -9.206966    0.084521   -1.179055
     37          6           0       -7.672610    3.463952   -1.667354
     38          6           0       -6.996682    0.027252   -1.571449
     39          8           0       -5.864318    0.263357   -1.944013
     40          6           0       -7.508692   -1.326827   -1.036907
     41          6           0       -6.806932   -1.513055    0.275203
     42          8           0       -6.875688   -0.745565    1.184216
     43          8           0       -6.013540   -2.661130    0.239225
     44          6           0       -5.199129   -2.790622    1.397215
     45          1           0      -13.738578   -4.037279    0.182953
     46          1           0      -16.177810    1.986608    0.393272
     47          1           0      -10.375507    4.306759   -1.302738
     48          1           0       -9.134107   -4.289231   -1.005403
     49          1           0      -11.282907   -4.953624    0.569776
     50          1           0      -11.484270   -6.091001   -1.205062
     51          1           0      -10.871430   -4.900543   -2.359541
     52          1           0      -12.603244   -4.859142   -1.825574
     53          1           0       -9.806202   -3.963189    1.989405
     54          1           0       -8.458228   -3.022408    1.447293
     55          1           0       -7.262653   -4.800692    1.909525
     56          1           0       -7.988000   -5.654728    0.568051
     57          1           0      -17.329781   -3.779253    0.265697
     58          1           0      -16.206869   -3.673275    1.718343
     59          1           0      -15.756720   -4.321798    0.063233
     60          1           0      -18.412704    1.107570   -0.335861
     61          1           0      -18.009732    1.239513    1.446676
     62          1           0      -19.561740    0.706238    0.994363
     63          1           0      -14.882983    4.257035    0.589533
     64          1           0      -12.926251    5.274801   -1.162978
     65          1           0      -14.583491    4.869756   -2.305611
     66          1           0      -16.195885    4.597730   -1.333498
     67          1           0      -15.351577    3.380079   -2.101463
     68          1           0      -11.437799    5.093450    0.890934
     69          1           0      -12.818943    4.513169    1.851225
     70          1           0      -13.429303    6.562272    2.342825
     71          1           0      -13.690647    6.897430    0.616114
     72          1           0      -12.114732    7.242011    1.421227
     73          1           0       -6.835264    3.407028   -0.972464
     74          1           0       -8.225929    4.363174   -1.393735
     75          1           0       -7.272563    3.547970   -2.677948
     76          1           0       -7.208825   -2.101386   -1.741926
     77          1           0       -4.227736   -2.332233    1.213830
     78          1           0       -4.903669   -3.819149    1.607894
     79          1           0       -5.646275   -2.325609    2.274149
     80         12           0       11.082704    0.880529   -0.231463
     81          6           0       12.724335   -2.280325   -0.032108
     82          6           0        8.670676   -0.487736    1.591161
     83          6           0        9.962039    3.982807    0.504390
     84          6           0       14.236004    2.161479   -1.287904
     85          7           0       10.697201   -1.106631    0.539398
     86          6           0       11.449242   -2.297528    0.443409
     87          6           0       10.761130   -3.515345    1.136790
     88          6           0        9.418731   -2.880602    1.598383
     89          6           0        9.542638   -1.410849    1.144032
     90          6           0        8.280215   -3.708554    0.979517
     91          6           0       11.536685   -4.218047    2.333270
     92          6           0       11.998005   -5.652485    2.102853
     93          1           0       11.528779   -6.720138    3.112216
     94          7           0        9.520891    1.653671    0.783025
     95          6           0        8.606588    0.882957    1.500877
     96          6           0        7.557832    1.685754    1.985930
     97          6           0        7.789261    2.986106    1.576870
     98          6           0        9.095073    2.960291    0.949528
     99          6           0        6.288707    1.257207    2.812098
    100          6           0        6.822380    4.116684    1.839980
    101          8           0        5.733923    3.974134    2.312311
    102          6           0        7.286412    5.560324    1.306818
    103          7           0       11.983299    2.804246   -0.297519
    104          6           0       11.276296    3.929502    0.028071
    105          6           0       12.285389    5.147157   -0.051624
    106          6           0       13.571322    4.635705   -0.722156
    107          6           0       13.271728    3.088823   -0.766820
    108          6           0       11.706377    6.412853   -0.617085
    109          6           0       14.759714    4.892572    0.196101
    110          6           0       16.122450    4.960927   -0.440498
    111          7           0       13.024707    0.089066   -0.835123
    112          6           0       14.165459    0.729652   -1.256489
    113          6           0       15.167753   -0.218090   -1.584052
    114          6           0       14.667469   -1.484572   -1.199400
    115          6           0       13.392696   -1.192738   -0.637114
    116          6           0       16.537416    0.050083   -2.064530
    117          6           0       14.878071   -2.932083   -1.062410
    118          8           0       15.840815   -3.611552   -1.443155
    119          6           0       13.621899   -3.532493   -0.322011
    120          6           0       12.879068   -4.351749   -1.242167
    121          8           0       12.171558   -3.838635   -2.141120
    122          8           0       13.157404   -5.637326   -0.949493
    123          6           0       12.371118   -6.707360   -1.622396
    124          1           0        7.840291   -0.914249    2.158345
    125          1           0        9.536723    4.969865    0.698065
    126          1           0       15.181577    2.483854   -1.728092
    127          1           0       10.554759   -4.289895    0.398218
    128          1           0        9.295916   -2.860947    2.680839
    129          1           0        7.356228   -3.163667    1.170854
    130          1           0        8.160935   -4.719981    1.367731
    131          1           0        8.389538   -3.823420   -0.099472
    132          1           0       10.777460   -4.321070    3.108583
    133          1           0       12.352507   -3.581349    2.675718
    134          1           0       13.087846   -5.639128    2.066195
    135          1           0       11.621741   -5.998187    1.139390
    136          1           0        6.284085    1.898039    3.694045
    137          1           0        6.337657    0.213928    3.123599
    138          1           0        5.342251    1.270675    2.271661
    139          1           0        6.435047    6.220026    1.471681
    140          1           0        7.521446    5.368232    0.259666
    141          1           0        8.160691    5.756787    1.927341
    142          1           0       12.493946    5.362616    0.996912
    143          1           0       13.809717    5.042682   -1.704777
    144          1           0       12.508484    6.968198   -1.102443
    145          1           0       11.291343    6.955379    0.232567
    146          1           0       10.844589    6.263937   -1.266612
    147          1           0       14.829131    4.177639    1.016463
    148          1           0       14.643698    5.811133    0.771292
    149          1           0       16.080940    5.010962   -1.528405
    150          1           0       16.668754    4.062826   -0.151565
    151          1           0       16.723065    5.746985    0.017082
    152          1           0       16.591593    0.981613   -2.628821
    153          1           0       16.792410   -0.796887   -2.701955
    154          1           0       17.144595    0.148772   -1.164408
    155          1           0       13.841431   -4.021163    0.627268
    156          1           0       13.135375   -7.482016   -1.700164
    157          1           0       11.940741   -6.408123   -2.577628
    158          1           0       11.658271   -7.169475   -0.938630
 ---------------------------------------------------------------------

 SCF Done:  E(RwB97XD) =  -4070.58682080     A.U. after   20 cycles

 Excitation energies and oscillator strengths:

 Excited State   1:      Singlet-A      1.6452 eV  753.63 nm  f=0.5278  <S**2>=0.000
     309 -> 315       -0.18798
     311 -> 313        0.66984
     312 -> 314       -0.12178
     309 <- 315       -0.11609
 This state for optimization and/or second-order correction.
 Total Energy, E(TD-HF/TD-DFT) =  -4070.52636234
 Copying the excited state density for this state as the 1-particle RhoCI density.

 Excited State   2:      Singlet-A      1.6741 eV  740.59 nm  f=0.2771  <S**2>=0.000
     310 -> 316        0.17318
     311 -> 313        0.12019
     312 -> 314        0.67447
     310 <- 316        0.11046

 Excited State   3:      Singlet-A      2.0912 eV  592.88 nm  f=0.1228  <S**2>=0.000
     309 -> 313        0.64849
     311 -> 315        0.26309

 Excited State   4:      Singlet-A      2.2047 eV  562.35 nm  f=0.1135  <S**2>=0.000
     310 -> 314        0.63530
     312 -> 316       -0.29126

 Excited State   5:      Singlet-A      3.4775 eV  356.53 nm  f=0.0000  <S**2>=0.000
     312 -> 313        0.70691

 The electronic state is 1-A.
 Alpha  occ. eigenvalues --  -46.96653 -46.94802 -19.31649 -19.30638 -19.25846
 Alpha  occ. eigenvalues --  -19.24606 -19.24527 -19.23707 -19.23163 -19.22927
 Alpha  occ. eigenvalues --  -14.47782 -14.47274 -14.47112 -14.46710 -14.44406
 Alpha  occ. eigenvalues --  -14.44097 -14.43816 -14.42974 -10.43562 -10.43270
 Alpha  occ. eigenvalues --  -10.39388 -10.39340 -10.39024 -10.37351 -10.36530
 Alpha  occ. eigenvalues --  -10.36471 -10.36371 -10.35689 -10.35644 -10.35440
 Alpha  occ. eigenvalues --  -10.35033 -10.34991 -10.34755 -10.34728 -10.34537
 Alpha  occ. eigenvalues --  -10.34454 -10.34285 -10.33979 -10.33631 -10.33332
 Alpha  occ. eigenvalues --  -10.33103 -10.32960 -10.32563 -10.32476 -10.32372
 Alpha  occ. eigenvalues --  -10.32369 -10.32353 -10.32338 -10.32137 -10.32116
 Alpha  occ. eigenvalues --  -10.32094 -10.32035 -10.31910 -10.31901 -10.31898
 Alpha  occ. eigenvalues --  -10.31864 -10.31740 -10.31710 -10.31646 -10.31582
 Alpha  occ. eigenvalues --  -10.31530 -10.31498 -10.31317 -10.31267 -10.31215
 Alpha  occ. eigenvalues --  -10.31062 -10.31009 -10.30917 -10.30888 -10.30482
 Alpha  occ. eigenvalues --  -10.30425 -10.30348 -10.30259 -10.30235 -10.30182
 Alpha  occ. eigenvalues --  -10.30150 -10.29986 -10.29945 -10.29798 -10.29630
 Alpha  occ. eigenvalues --  -10.29598 -10.29457 -10.29205 -10.28920 -10.28785
 Alpha  occ. eigenvalues --  -10.28193  -3.22424  -3.20841  -1.96004  -1.95533
 Alpha  occ. eigenvalues --   -1.95382  -1.94406  -1.93945  -1.93833  -1.19804
 Alpha  occ. eigenvalues --   -1.18749  -1.14133  -1.12264  -1.11741  -1.10812
 Alpha  occ. eigenvalues --   -1.09532  -1.09495  -1.07782  -1.06715  -1.06083
 Alpha  occ. eigenvalues --   -1.05979  -1.05168  -1.04776  -1.03906  -1.03691
 Alpha  occ. eigenvalues --   -0.96375  -0.94095  -0.91451  -0.91150  -0.90872
 Alpha  occ. eigenvalues --   -0.90639  -0.90613  -0.90558  -0.89523  -0.89216
 Alpha  occ. eigenvalues --   -0.89030  -0.88556  -0.88352  -0.87868  -0.86654
 Alpha  occ. eigenvalues --   -0.86306  -0.86065  -0.85532  -0.85125  -0.84842
 Alpha  occ. eigenvalues --   -0.83819  -0.83763  -0.83035  -0.82655  -0.82303
 Alpha  occ. eigenvalues --   -0.82183  -0.80020  -0.79585  -0.79311  -0.79259
 Alpha  occ. eigenvalues --   -0.78903  -0.78542  -0.78103  -0.77910  -0.77650
 Alpha  occ. eigenvalues --   -0.77026  -0.75607  -0.74658  -0.74244  -0.73640
 Alpha  occ. eigenvalues --   -0.71479  -0.71174  -0.70456  -0.70416  -0.70401
 Alpha  occ. eigenvalues --   -0.69653  -0.69169  -0.69169  -0.68261  -0.67587
 Alpha  occ. eigenvalues --   -0.67433  -0.67328  -0.66934  -0.66713  -0.66498
 Alpha  occ. eigenvalues --   -0.66241  -0.64812  -0.64150  -0.62509  -0.62161
 Alpha  occ. eigenvalues --   -0.62109  -0.61589  -0.61542  -0.61321  -0.61192
 Alpha  occ. eigenvalues --   -0.61034  -0.60396  -0.60126  -0.60087  -0.59075
 Alpha  occ. eigenvalues --   -0.58496  -0.58306  -0.57925  -0.57699  -0.57288
 Alpha  occ. eigenvalues --   -0.57080  -0.56892  -0.56563  -0.56138  -0.55814
 Alpha  occ. eigenvalues --   -0.55704  -0.55514  -0.55123  -0.55034  -0.54749
 Alpha  occ. eigenvalues --   -0.54737  -0.54528  -0.54353  -0.54280  -0.54222
 Alpha  occ. eigenvalues --   -0.53787  -0.53558  -0.53364  -0.53331  -0.53156
 Alpha  occ. eigenvalues --   -0.53078  -0.52793  -0.52551  -0.52391  -0.52203
 Alpha  occ. eigenvalues --   -0.52066  -0.52009  -0.51851  -0.51784  -0.51689
 Alpha  occ. eigenvalues --   -0.51662  -0.51338  -0.51084  -0.50939  -0.50817
 Alpha  occ. eigenvalues --   -0.50742  -0.50419  -0.50309  -0.50099  -0.49904
 Alpha  occ. eigenvalues --   -0.49876  -0.49376  -0.49348  -0.49281  -0.49161
 Alpha  occ. eigenvalues --   -0.48965  -0.48821  -0.48546  -0.48346  -0.48291
 Alpha  occ. eigenvalues --   -0.48258  -0.48164  -0.47973  -0.47961  -0.47726
 Alpha  occ. eigenvalues --   -0.47509  -0.47244  -0.47174  -0.46999  -0.46988
 Alpha  occ. eigenvalues --   -0.46808  -0.46666  -0.46613  -0.46512  -0.46177
 Alpha  occ. eigenvalues --   -0.45989  -0.45819  -0.45719  -0.45652  -0.45370
 Alpha  occ. eigenvalues --   -0.45287  -0.45182  -0.45175  -0.44922  -0.44898
 Alpha  occ. eigenvalues --   -0.44647  -0.44558  -0.44444  -0.44442  -0.44159
 Alpha  occ. eigenvalues --   -0.44159  -0.43770  -0.43519  -0.43485  -0.43457
 Alpha  occ. eigenvalues --   -0.43298  -0.43180  -0.42922  -0.42441  -0.42391
 Alpha  occ. eigenvalues --   -0.42202  -0.42043  -0.41935  -0.41372  -0.41022
 Alpha  occ. eigenvalues --   -0.40443  -0.40326  -0.40055  -0.39826  -0.39581
 Alpha  occ. eigenvalues --   -0.39512  -0.39187  -0.39139  -0.38911  -0.38708
 Alpha  occ. eigenvalues --   -0.38635  -0.37872  -0.37494  -0.37062  -0.36170
 Alpha  occ. eigenvalues --   -0.36074  -0.35672  -0.35124  -0.33946  -0.33657
 Alpha  occ. eigenvalues --   -0.32900  -0.32657  -0.32584  -0.32459  -0.32156
 Alpha  occ. eigenvalues --   -0.31983  -0.31640  -0.30992  -0.26237  -0.26139
 Alpha  occ. eigenvalues --   -0.23839  -0.22995
 Alpha virt. eigenvalues --   -0.07955  -0.07018  -0.00584   0.00300   0.02005
 Alpha virt. eigenvalues --    0.02726   0.04561   0.04696   0.04869   0.05529
 Alpha virt. eigenvalues --    0.06744   0.06820   0.07284   0.07437   0.07975

 Mulliken charges:
               1
     1  Mg   0.948207
     2  C    0.000597
     3  C   -0.064854
     4  C   -0.087401
     5  C   -0.085754
     6  N   -0.297824
     7  C   -0.038138
     8  C   -0.036639
     9  C   -0.151805
    10  C    0.082466
    11  C    0.029926
    12  C   -0.001074
    13  C   -0.097619
    14  H    0.043606
    15  N   -0.425783
    16  C    0.122548
    17  C   -0.157911
    18  C   -0.085135
    19  C    0.168959
    20  C    0.086301
    21  C    0.032016
    22  O   -0.271744
    23  C   -0.011393
    24  N   -0.428289
    25  C    0.087204
    26  C   -0.091965
    27  C   -0.113473
    28  C    0.082487
    29  C    0.055264
    30  C   -0.033219
    31  C   -0.022718
    32  N   -0.388541
    33  C    0.120842
    34  C   -0.174805
    35  C    0.039060
    36  C    0.121414
    37  C    0.098357
    38  C    0.026008
    39  O   -0.206122
    40  C   -0.074555
    41  C    0.254127
    42  O   -0.209590
    43  O   -0.358204
    44  C    0.118770
    45  H   -0.004435
    46  H   -0.015927
    47  H    0.010114
    48  H    0.028121
    49  H    0.041378
    50  H    0.039038
    51  H    0.042924
    52  H    0.043411
    53  H    0.044073
    54  H    0.047835
    55  H    0.049584
    56  H    0.042992
    57  H    0.069564
    58  H    0.065439
    59  H    0.029143
    60  H    0.067700
    61  H    0.050348
    62  H    0.051407
    63  H    0.031770
    64  H    0.027938
    65  H    0.049154
    66  H    0.044370
    67  H    0.015789
    68  H    0.025014
    69  H    0.036991
    70  H    0.036019
    71  H    0.032809
    72  H    0.043176
    73  H    0.056061
    74  H    0.023810
    75  H    0.063763
    76  H    0.047805
    77  H    0.049017
    78  H    0.048056
    79  H    0.062143
    80  Mg   0.984812
    81  C   -0.043578
    82  C   -0.132024
    83  C   -0.102529
    84  C   -0.063394
    85  N   -0.377802
    86  C    0.011531
    87  C   -0.047306
    88  C   -0.123675
    89  C    0.121456
    90  C    0.014112
    91  C    0.012242
    92  C   -0.135541
    93  H    0.033647
    94  N   -0.505048
    95  C    0.212813
    96  C   -0.172068
    97  C   -0.054699
    98  C    0.150160
    99  C    0.105872
   100  C    0.008406
   101  O   -0.194774
   102  C   -0.027985
   103  N   -0.393509
   104  C    0.110800
   105  C   -0.081211
   106  C   -0.082561
   107  C    0.107987
   108  C    0.029337
   109  C   -0.045254
   110  C   -0.025427
   111  N   -0.385701
   112  C    0.093475
   113  C   -0.223168
   114  C    0.000554
   115  C    0.116297
   116  C    0.079596
   117  C    0.128888
   118  O   -0.222620
   119  C   -0.072462
   120  C    0.292463
   121  O   -0.279877
   122  O   -0.349515
   123  C    0.124724
   124  H   -0.016661
   125  H   -0.040229
   126  H   -0.013055
   127  H    0.028269
   128  H    0.045342
   129  H    0.027917
   130  H    0.042590
   131  H    0.043161
   132  H    0.040958
   133  H    0.048428
   134  H    0.069415
   135  H    0.033015
   136  H    0.061706
   137  H    0.011337
   138  H    0.063450
   139  H    0.058377
   140  H    0.066330
   141  H    0.068268
   142  H    0.046724
   143  H    0.038372
   144  H    0.041214
   145  H    0.031623
   146  H    0.038709
   147  H    0.030348
   148  H    0.021416
   149  H    0.036030
   150  H    0.029989
   151  H    0.032814
   152  H    0.030553
   153  H    0.066706
   154  H    0.060660
   155  H    0.055619
   156  H    0.061617
   157  H    0.085185
   158  H    0.056356
 Sum of Mulliken charges =  -0.00000

 Dipole moment (field-independent basis, Debye):
    X=             -2.3887    Y=              1.8474    Z=              0.5189  Tot=              3.0640
 Quadrupole moment (field-independent basis, Debye-Ang):
   XX=           -574.0766   YY=           -443.1121   ZZ=           -516.7397
   XY=              8.1924   XZ=             48.9690   YZ=            -12.1669

 Normal termination of Gaussian 16 at Sun Sep 19 12:04:35 2021.
