 Gaussian 16, Revision A.03,
 Gaussian 16:  ES64L-G16RevA.03 25-Dec-2016

 --------------------------------
 #p wB97XD/Def2SVP td=(nstates=5)
 --------------------------------

 --------------------------------
 TDDFT excited states in gaussian
 --------------------------------
 Symbolic Z-matrix:
 Charge =  0 Multiplicity = 1

                         Standard orientation:
 ---------------------------------------------------------------------
 Center     Atomic      Atomic             Coordinates (Angstroms)
 Number     Number       Type             X           Y           Z
 ---------------------------------------------------------------------
      1         12           0      -18.329927   -0.773538    0.170233
      2          6           0      -17.321900    2.691041   -0.720887
      3          6           0      -17.206441    0.044261    3.251288
      4          6           0      -18.955986   -3.827685    0.742822
      5          6           0      -18.580496   -1.345171   -3.334673
      6          7           0      -17.339927    1.126126    1.095253
      7          6           0      -17.219796    2.411542    0.594808
      8          6           0      -16.875663    3.475389    1.643534
      9          6           0      -16.401915    2.529899    2.790250
     10          6           0      -16.998043    1.125436    2.388845
     11          6           0      -14.920579    2.462702    2.990337
     12          6           0      -17.999188    4.498212    2.020934
     13          6           0      -17.588212    5.869805    2.441114
     14          1           0      -18.433088    6.493712    3.547342
     15          7           0      -18.157265   -1.794530    1.828982
     16          6           0      -17.719430   -1.280611    3.067532
     17          6           0      -17.942944   -2.290675    4.061352
     18          6           0      -18.607033   -3.365058    3.324226
     19          6           0      -18.586302   -3.002415    1.953135
     20          6           0      -17.685020   -2.115361    5.603619
     21          6           0      -19.179338   -4.607085    3.935905
     22          8           0      -19.682030   -5.522117    3.239182
     23          6           0      -19.246713   -4.835651    5.401789
     24          7           0      -18.560065   -2.420220   -1.064878
     25          6           0      -18.842863   -3.631727   -0.581945
     26          6           0      -19.108262   -4.707165   -1.683789
     27          6           0      -19.413402   -3.741899   -2.889242
     28          6           0      -18.770940   -2.403836   -2.431684
     29          6           0      -17.851741   -5.594426   -1.958968
     30          6           0      -20.969813   -3.545254   -3.125089
     31          6           0      -21.871983   -4.784302   -3.304659
     32          7           0      -18.067853    0.406682   -1.665201
     33          6           0      -18.278444    0.019979   -2.983853
     34          6           0      -17.982701    1.124439   -3.866136
     35          6           0      -17.644535    2.191950   -3.024669
     36          6           0      -17.621178    1.700002   -1.690720
     37          6           0      -18.160448    1.160230   -5.346831
     38          6           0      -17.268099    3.599462   -3.014360
     39          8           0      -17.153785    4.454958   -3.882123
     40          6           0      -17.144791    3.947457   -1.441117
     41          6           0      -15.853866    4.595348   -1.284707
     42          8           0      -14.738394    4.096116   -1.500966
     43          8           0      -16.063590    5.944605   -1.291029
     44          6           0      -14.944244    6.827680   -1.215501
     45          1           0      -16.966073    0.420668    4.247959
     46          1           0      -19.181826   -4.885009    0.894956
     47          1           0      -18.689582   -1.577503   -4.396438
     48          1           0      -16.016074    4.029612    1.266047
     49          1           0      -16.920700    2.765561    3.718986
     50          1           0      -14.592043    1.497472    2.604931
     51          1           0      -14.693801    2.465992    4.056383
     52          1           0      -14.315541    3.231499    2.510134
     53          1           0      -18.527383    4.081706    2.878152
     54          1           0      -18.704256    4.524313    1.190524
     55          1           0      -17.703254    6.458270    1.531075
     56          1           0      -16.511726    5.958370    2.588168
     57          1           0      -18.576603   -1.999019    6.219061
     58          1           0      -16.977988   -1.309580    5.799085
     59          1           0      -17.172437   -3.048983    5.838679
     60          1           0      -18.246908   -5.091724    5.753320
     61          1           0      -19.926875   -5.677258    5.535658
     62          1           0      -19.683197   -3.936074    5.834500
     63          1           0      -19.946565   -5.302665   -1.320658
     64          1           0      -18.957990   -4.015619   -3.840483
     65          1           0      -18.103304   -6.597715   -1.614222
     66          1           0      -16.915126   -5.240413   -1.529463
     67          1           0      -17.811754   -5.579626   -3.049059
     68          1           0      -21.109087   -2.990614   -4.052727
     69          1           0      -21.313057   -2.886516   -2.327572
     70          1           0      -22.608907   -4.705204   -2.505559
     71          1           0      -21.207310   -5.625909   -3.107606
     72          1           0      -22.373540   -4.801670   -4.272137
     73          1           0      -18.757772    0.275036   -5.566521
     74          1           0      -17.160538    1.069624   -5.771087
     75          1           0      -18.589562    2.089470   -5.721587
     76          1           0      -17.953957    4.617875   -1.152052
     77          1           0      -14.004340    6.282822   -1.124416
     78          1           0      -15.092673    7.391886   -0.294687
     79          1           0      -14.964818    7.562428   -2.019115
     80         12           0       18.278898   -0.752996    0.022841
     81          6           0       16.350596    2.193607    0.543665
     82          6           0       21.118326    1.179479    0.183393
     83          6           0       19.898051   -3.579547   -0.531986
     84          6           0       15.236999   -2.555293   -0.623611
     85          7           0       18.712656    1.519798    0.270052
     86          6           0       17.731996    2.448970    0.565444
     87          6           0       18.479148    3.802340    0.822776
     88          6           0       20.060402    3.484667    0.662433
     89          6           0       19.957221    1.990285    0.340774
     90          6           0       20.829458    4.357330   -0.351221
     91          6           0       18.084106    4.606747    2.129552
     92          6           0       17.574265    6.000787    1.906027
     93          1           0       17.964358    6.853827    0.727914
     94          7           0       20.334323   -1.183124   -0.029162
     95          6           0       21.317238   -0.247214    0.046645
     96          6           0       22.554089   -0.981036    0.125743
     97          6           0       22.244875   -2.324461   -0.177931
     98          6           0       20.756345   -2.457769   -0.295603
     99          6           0       23.882781   -0.231123    0.319823
    100          6           0       23.211848   -3.429219   -0.479016
    101          8           0       22.820346   -4.559957   -0.853725
    102          6           0       24.669096   -3.165416   -0.388051
    103          7           0       17.588565   -2.779257   -0.573700
    104          6           0       18.445050   -3.737428   -0.651009
    105          6           0       17.860381   -5.226607   -0.911159
    106          6           0       16.367099   -4.868573   -0.956685
    107          6           0       16.367272   -3.379121   -0.713963
    108          6           0       18.456821   -5.800739   -2.248235
    109          6           0       15.426398   -5.623036    0.047379
    110          6           0       15.539943   -5.221245    1.537143
    111          7           0       16.298823   -0.272870   -0.149728
    112          6           0       15.206000   -1.122333   -0.442590
    113          6           0       13.974598   -0.332475   -0.306575
    114          6           0       14.377788    0.966369    0.086238
    115          6           0       15.808025    0.944094    0.211305
    116          6           0       12.527577   -0.870443   -0.517114
    117          6           0       13.871381    2.191508    0.416572
    118          8           0       12.740798    2.634180    0.420438
    119          6           0       15.091821    3.074814    0.798638
    120          6           0       15.047634    4.282700    0.007321
    121          8           0       15.548055    4.409242   -1.115951
    122          8           0       14.162334    5.196674    0.591056
    123          6           0       13.892262    6.398810   -0.235996
    124          1           0       22.056139    1.695220   -0.035093
    125          1           0       20.447119   -4.460118   -0.872190
    126          1           0       14.283832   -3.055606   -0.806691
    127          1           0       18.022503    4.381463    0.021201
    128          1           0       20.558777    3.704531    1.605517
    129          1           0       21.680155    4.844389    0.127137
    130          1           0       20.253693    5.113152   -0.885114
    131          1           0       21.182487    3.641673   -1.093725
    132          1           0       18.931849    4.645945    2.813863
    133          1           0       17.257308    4.048747    2.569099
    134          1           0       18.064670    6.628014    2.651316
    135          1           0       16.488658    5.975499    1.993586
    136          1           0       23.731541    0.784143    0.687234
    137          1           0       24.425628   -0.196848   -0.623892
    138          1           0       24.422119   -0.824317    1.057593
    139          1           0       24.865649   -2.828786    0.629881
    140          1           0       24.969453   -2.356138   -1.054706
    141          1           0       25.238224   -4.043464   -0.690715
    142          1           0       18.075815   -5.889709   -0.072951
    143          1           0       16.011424   -4.923854   -1.985794
    144          1           0       18.662203   -4.957984   -2.908239
    145          1           0       17.689767   -6.411138   -2.726135
    146          1           0       19.364235   -6.402136   -2.187511
    147          1           0       15.486877   -6.696913   -0.126497
    148          1           0       14.400279   -5.438678   -0.269186
    149          1           0       16.522045   -4.905012    1.887076
    150          1           0       15.126404   -6.032081    2.137902
    151          1           0       14.834151   -4.399731    1.658933
    152          1           0       11.853430   -0.619218    0.301798
    153          1           0       12.489053   -1.943490   -0.701277
    154          1           0       12.032281   -0.263162   -1.275155
    155          1           0       14.885157    3.287682    1.846969
    156          1           0       13.308445    6.134294   -1.117267
    157          1           0       14.784046    6.887732   -0.626459
    158          1           0       13.490066    7.151754    0.442024
 ---------------------------------------------------------------------

 SCF Done:  E(RwB97XD) =  -4070.60535396     A.U. after   19 cycles

 Excitation energies and oscillator strengths:

 Excited State   1:      Singlet-A      1.6008 eV  774.51 nm  f=0.3874  <S**2>=0.000
     309 -> 316       -0.16171
     311 -> 313        0.68933
     309 <- 316       -0.11299
 This state for optimization and/or second-order correction.
 Total Energy, E(TD-HF/TD-DFT) =  -4070.54652512
 Copying the excited state density for this state as the 1-particle RhoCI density.

 Excited State   2:      Singlet-A      1.7176 eV  721.83 nm  f=0.3746  <S**2>=0.000
     310 -> 315        0.19151
     312 -> 314        0.67997
     310 <- 315        0.11532

 Excited State   3:      Singlet-A      2.1247 eV  583.55 nm  f=0.2086  <S**2>=0.000
     309 -> 313        0.66537
     311 -> 316        0.22067

 Excited State   4:      Singlet-A      2.1591 eV  574.24 nm  f=0.1079  <S**2>=0.000
     310 -> 314        0.63944
     312 -> 315       -0.28264

 Excited State   5:      Singlet-A      3.1832 eV  389.49 nm  f=0.0051  <S**2>=0.000
     304 -> 313        0.17880
     305 -> 313        0.66168

 The electronic state is 1-A.
 Alpha  occ. eigenvalues --  -46.96137 -46.95209 -19.30015 -19.29422 -19.24962
 Alpha  occ. eigenvalues --  -19.24361 -19.24156 -19.23866 -19.22479 -19.22416
 Alpha  occ. eigenvalues --  -14.47250 -14.46904 -14.46442 -14.45967 -14.44366
 Alpha  occ. eigenvalues --  -14.44245 -14.44223 -14.44165 -10.42979 -10.42385
 Alpha  occ. eigenvalues --  -10.40020 -10.39078 -10.37896 -10.37188 -10.35973
 Alpha  occ. eigenvalues --  -10.35797 -10.35573 -10.35426 -10.35090 -10.35040
 Alpha  occ. eigenvalues --  -10.34811 -10.34760 -10.34742 -10.34660 -10.34476
 Alpha  occ. eigenvalues --  -10.34449 -10.34414 -10.34136 -10.33811 -10.33784
 Alpha  occ. eigenvalues --  -10.33590 -10.33177 -10.33086 -10.32879 -10.32870
 Alpha  occ. eigenvalues --  -10.32700 -10.32425 -10.32358 -10.32237 -10.32168
 Alpha  occ. eigenvalues --  -10.32153 -10.32135 -10.32111 -10.32094 -10.32051
 Alpha  occ. eigenvalues --  -10.32025 -10.32007 -10.31966 -10.31956 -10.31895
 Alpha  occ. eigenvalues --  -10.31676 -10.31663 -10.31508 -10.31456 -10.31419
 Alpha  occ. eigenvalues --  -10.31383 -10.31174 -10.31139 -10.31135 -10.30959
 Alpha  occ. eigenvalues --  -10.30740 -10.30499 -10.30297 -10.30254 -10.30200
 Alpha  occ. eigenvalues --  -10.30056 -10.29861 -10.29780 -10.29754 -10.29661
 Alpha  occ. eigenvalues --  -10.29609 -10.29588 -10.29519 -10.29410 -10.29351
 Alpha  occ. eigenvalues --  -10.27815  -3.21941  -3.21310  -1.95541  -1.95095
 Alpha  occ. eigenvalues --   -1.94869  -1.94861  -1.94434  -1.94297  -1.18700
 Alpha  occ. eigenvalues --   -1.16431  -1.12480  -1.11385  -1.10720  -1.09608
 Alpha  occ. eigenvalues --   -1.09190  -1.08431  -1.08111  -1.06896  -1.06024
 Alpha  occ. eigenvalues --   -1.05758  -1.05634  -1.05056  -1.04564  -1.03658
 Alpha  occ. eigenvalues --   -0.95678  -0.94201  -0.91580  -0.91382  -0.90650
 Alpha  occ. eigenvalues --   -0.90258  -0.89926  -0.89653  -0.89360  -0.89217
 Alpha  occ. eigenvalues --   -0.88757  -0.88688  -0.88149  -0.87388  -0.86599
 Alpha  occ. eigenvalues --   -0.86205  -0.85944  -0.85207  -0.84995  -0.84422
 Alpha  occ. eigenvalues --   -0.84178  -0.83989  -0.83000  -0.82753  -0.82579
 Alpha  occ. eigenvalues --   -0.82012  -0.80479  -0.80316  -0.79449  -0.79386
 Alpha  occ. eigenvalues --   -0.79185  -0.78326  -0.78137  -0.77598  -0.77352
 Alpha  occ. eigenvalues --   -0.76925  -0.75331  -0.74477  -0.73520  -0.72867
 Alpha  occ. eigenvalues --   -0.72337  -0.71183  -0.71006  -0.70563  -0.70144
 Alpha  occ. eigenvalues --   -0.69792  -0.68918  -0.68883  -0.67621  -0.67230
 Alpha  occ. eigenvalues --   -0.67055  -0.66871  -0.66866  -0.66569  -0.66429
 Alpha  occ. eigenvalues --   -0.66194  -0.64017  -0.63364  -0.62705  -0.62254
 Alpha  occ. eigenvalues --   -0.61752  -0.61467  -0.61465  -0.60807  -0.60588
 Alpha  occ. eigenvalues --   -0.60357  -0.60078  -0.59854  -0.59668  -0.59497
 Alpha  occ. eigenvalues --   -0.58198  -0.57970  -0.57824  -0.57572  -0.57183
 Alpha  occ. eigenvalues --   -0.56890  -0.56827  -0.56583  -0.56070  -0.55630
 Alpha  occ. eigenvalues --   -0.55463  -0.55204  -0.55151  -0.54918  -0.54774
 Alpha  occ. eigenvalues --   -0.54743  -0.54472  -0.54436  -0.54318  -0.53955
 Alpha  occ. eigenvalues --   -0.53667  -0.53446  -0.53318  -0.53208  -0.53152
 Alpha  occ. eigenvalues --   -0.52906  -0.52697  -0.52433  -0.52190  -0.51810
 Alpha  occ. eigenvalues --   -0.51787  -0.51724  -0.51609  -0.51455  -0.51416
 Alpha  occ. eigenvalues --   -0.51170  -0.51127  -0.51112  -0.50935  -0.50766
 Alpha  occ. eigenvalues --   -0.50620  -0.50497  -0.50220  -0.50042  -0.49947
 Alpha  occ. eigenvalues --   -0.49859  -0.49754  -0.49487  -0.49407  -0.49209
 Alpha  occ. eigenvalues --   -0.49140  -0.48630  -0.48523  -0.48422  -0.48419
 Alpha  occ. eigenvalues --   -0.48322  -0.48112  -0.48075  -0.47863  -0.47713
 Alpha  occ. eigenvalues --   -0.47405  -0.47344  -0.47005  -0.46885  -0.46814
 Alpha  occ. eigenvalues --   -0.46707  -0.46468  -0.46266  -0.46097  -0.45887
 Alpha  occ. eigenvalues --   -0.45712  -0.45640  -0.45637  -0.45379  -0.45149
 Alpha  occ. eigenvalues --   -0.45115  -0.45029  -0.44733  -0.44652  -0.44563
 Alpha  occ. eigenvalues --   -0.44359  -0.44246  -0.44005  -0.43881  -0.43765
 Alpha  occ. eigenvalues --   -0.43717  -0.43564  -0.43532  -0.43361  -0.43206
 Alpha  occ. eigenvalues --   -0.43164  -0.43003  -0.42627  -0.42558  -0.42472
 Alpha  occ. eigenvalues --   -0.41970  -0.41714  -0.41666  -0.41341  -0.41199
 Alpha  occ. eigenvalues --   -0.40992  -0.40447  -0.40131  -0.39656  -0.39199
 Alpha  occ. eigenvalues --   -0.38867  -0.38631  -0.38415  -0.38373  -0.38011
 Alpha  occ. eigenvalues --   -0.37821  -0.37438  -0.36593  -0.36234  -0.35890
 Alpha  occ. eigenvalues --   -0.35531  -0.35365  -0.35291  -0.33750  -0.33520
 Alpha  occ. eigenvalues --   -0.33409  -0.33174  -0.32497  -0.32216  -0.32042
 Alpha  occ. eigenvalues --   -0.31914  -0.31741  -0.31637  -0.26144  -0.25720
 Alpha  occ. eigenvalues --   -0.23518  -0.23047
 Alpha virt. eigenvalues --   -0.07993  -0.06867   0.00149   0.01171   0.02218
 Alpha virt. eigenvalues --    0.02388   0.04310   0.04452   0.04971   0.05710
 Alpha virt. eigenvalues --    0.06137   0.07249   0.07678   0.08133   0.08336

 Mulliken charges:
               1
     1  Mg   0.983504
     2  C   -0.013780
     3  C   -0.065854
     4  C   -0.042968
     5  C   -0.083048
     6  N   -0.296796
     7  C   -0.036497
     8  C   -0.083945
     9  C   -0.102291
    10  C   -0.016651
    11  C    0.047851
    12  C    0.043120
    13  C   -0.116547
    14  H    0.053827
    15  N   -0.496857
    16  C    0.190092
    17  C   -0.170688
    18  C   -0.082122
    19  C    0.148152
    20  C    0.071717
    21  C    0.008645
    22  O   -0.274987
    23  C    0.009927
    24  N   -0.391700
    25  C    0.045220
    26  C   -0.110489
    27  C   -0.102361
    28  C    0.088801
    29  C    0.051791
    30  C   -0.033942
    31  C   -0.032740
    32  N   -0.400000
    33  C    0.123249
    34  C   -0.202601
    35  C   -0.040060
    36  C    0.129320
    37  C    0.087838
    38  C    0.156560
    39  O   -0.192237
    40  C   -0.060026
    41  C    0.245452
    42  O   -0.268662
    43  O   -0.350387
    44  C    0.133623
    45  H   -0.007698
    46  H    0.013633
    47  H    0.005014
    48  H    0.033369
    49  H    0.025399
    50  H    0.044516
    51  H    0.034270
    52  H    0.048485
    53  H    0.031995
    54  H    0.031234
    55  H    0.048023
    56  H    0.042981
    57  H    0.067989
    58  H    0.040314
    59  H    0.043067
    60  H    0.063958
    61  H    0.055037
    62  H    0.045481
    63  H    0.047043
    64  H    0.025420
    65  H    0.046335
    66  H    0.060280
    67  H    0.027953
    68  H    0.024658
    69  H    0.033422
    70  H    0.042537
    71  H    0.036225
    72  H    0.048579
    73  H    0.031164
    74  H    0.060065
    75  H    0.065012
    76  H    0.071898
    77  H    0.066183
    78  H    0.033741
    79  H    0.061968
    80  Mg   0.949284
    81  C    0.012622
    82  C   -0.090601
    83  C   -0.048273
    84  C   -0.087786
    85  N   -0.314560
    86  C   -0.013123
    87  C   -0.056002
    88  C   -0.105091
    89  C    0.077730
    90  C    0.018419
    91  C    0.000103
    92  C   -0.139680
    93  H    0.031653
    94  N   -0.486293
    95  C    0.140152
    96  C   -0.180424
    97  C   -0.072235
    98  C    0.161220
    99  C    0.073051
   100  C    0.036440
   101  O   -0.261886
   102  C    0.006561
   103  N   -0.272043
   104  C    0.015802
   105  C   -0.109978
   106  C    0.029134
   107  C   -0.039973
   108  C   -0.003638
   109  C   -0.032794
   110  C   -0.036143
   111  N   -0.476789
   112  C    0.148410
   113  C   -0.175965
   114  C    0.006774
   115  C    0.138731
   116  C    0.087109
   117  C    0.031628
   118  O   -0.201423
   119  C   -0.063158
   120  C    0.266981
   121  O   -0.263237
   122  O   -0.379035
   123  C    0.150036
   124  H    0.007884
   125  H    0.029019
   126  H   -0.009059
   127  H    0.057270
   128  H    0.044886
   129  H    0.035030
   130  H    0.051810
   131  H    0.033496
   132  H    0.031580
   133  H    0.036290
   134  H    0.048452
   135  H    0.062271
   136  H    0.047788
   137  H    0.064144
   138  H    0.046266
   139  H    0.050881
   140  H    0.050389
   141  H    0.058505
   142  H    0.052365
   143  H    0.036506
   144  H    0.045574
   145  H    0.037075
   146  H    0.064044
   147  H    0.030905
   148  H    0.025114
   149  H    0.049771
   150  H    0.041211
   151  H    0.038654
   152  H    0.043759
   153  H    0.031568
   154  H    0.051220
   155  H    0.073511
   156  H    0.064695
   157  H    0.041699
   158  H    0.053713
 Sum of Mulliken charges =  -0.00000

 Dipole moment (field-independent basis, Debye):
    X=              2.8227    Y=             -0.3014    Z=              4.9231  Tot=              5.6829
 Quadrupole moment (field-independent basis, Debye-Ang):
   XX=           -310.7988   YY=           -500.8046   ZZ=           -492.5819
   XY=              0.5980   XZ=              2.5193   YZ=             36.1193

 Normal termination of Gaussian 16 at Sat Sep 18 17:21:50 2021.
