 Gaussian 16, Revision A.03,
 Gaussian 16:  ES64L-G16RevA.03 25-Dec-2016

 --------------------------------
 #p wB97XD/Def2SVP td=(nstates=5)
 --------------------------------

 --------------------------------
 TDDFT excited states in gaussian
 --------------------------------
 Symbolic Z-matrix:
 Charge =  0 Multiplicity = 1

                         Standard orientation:
 ---------------------------------------------------------------------
 Center     Atomic      Atomic             Coordinates (Angstroms)
 Number     Number       Type             X           Y           Z
 ---------------------------------------------------------------------
      1         12           0       27.608146    0.437496    0.176983
      2          6           0       24.438670   -0.258999   -1.018371
      3          6           0       26.293345    0.360998    3.472171
      4          6           0       30.779979    0.546391    1.469182
      5          6           0       28.952100    0.036270   -2.979252
      6          7           0       25.566294    0.216090    1.059109
      7          6           0       24.439910   -0.165371    0.360888
      8          6           0       23.220134   -0.552044    1.278641
      9          6           0       23.708397    0.036847    2.685400
     10          6           0       25.299934    0.284463    2.443776
     11          6           0       22.998502    1.314946    3.274393
     12          6           0       22.914256   -2.006801    1.349546
     13          6           0       21.571911   -2.541188    0.888324
     14          1           0       21.081841   -3.822646    1.581473
     15          7           0       28.422129    0.546785    2.210842
     16          6           0       27.657381    0.552250    3.392584
     17          6           0       28.516426    0.738799    4.518409
     18          6           0       29.889028    0.637453    3.956791
     19          6           0       29.767283    0.554852    2.468325
     20          6           0       28.039781    0.728574    5.974579
     21          6           0       31.129071    0.659409    4.867445
     22          8           0       31.150391    0.728610    6.092958
     23          6           0       32.420918    0.242760    4.258478
     24          7           0       29.684867    0.124296   -0.647009
     25          6           0       30.768409    0.410178    0.087736
     26          6           0       31.979012   -0.025058   -0.736737
     27          6           0       31.456935   -0.122251   -2.245843
     28          6           0       29.895234    0.050535   -1.979133
     29          6           0       33.092137    1.079366   -0.662113
     30          6           0       31.773070   -1.413010   -3.107548
     31          6           0       32.672681   -1.324695   -4.331279
     32          7           0       26.847451    0.050650   -1.701687
     33          6           0       27.511520   -0.052632   -2.927991
     34          6           0       26.578770   -0.385112   -3.961023
     35          6           0       25.326141   -0.490810   -3.281083
     36          6           0       25.585758   -0.156040   -1.895014
     37          6           0       26.839736   -0.605502   -5.417750
     38          6           0       23.943870   -0.708104   -3.404823
     39          8           0       23.313960   -0.962297   -4.411898
     40          6           0       23.321097   -0.651969   -1.956200
     41          6           0       22.091806    0.154931   -2.005370
     42          8           0       20.966596   -0.330106   -1.969758
     43          8           0       22.407442    1.500402   -2.121905
     44          6           0       21.212824    2.368698   -2.221733
     45          1           0       25.999836    0.402389    4.522757
     46          1           0       31.748247    0.672585    1.958868
     47          1           0       29.400760   -0.128765   -3.960920
     48          1           0       22.333461   -0.012617    0.947394
     49          1           0       23.661111   -0.788307    3.396930
     50          1           0       22.087132    1.468146    2.696522
     51          1           0       23.607304    2.219098    3.262271
     52          1           0       22.795333    1.107662    4.324376
     53          1           0       22.950841   -2.275598    2.406325
     54          1           0       23.639303   -2.567854    0.760922
     55          1           0       21.672313   -2.825811   -0.158652
     56          1           0       20.753000   -1.837538    1.036118
     57          1           0       27.000707    0.522294    6.230264
     58          1           0       28.381016    1.701041    6.328639
     59          1           0       28.759732    0.073522    6.464129
     60          1           0       33.063722    0.989080    3.793645
     61          1           0       32.306262   -0.613744    3.593961
     62          1           0       33.041637   -0.102864    5.085967
     63          1           0       32.393245   -0.979173   -0.410095
     64          1           0       31.729846    0.777695   -2.795837
     65          1           0       34.020566    0.570860   -0.402261
     66          1           0       32.902714    1.891136    0.041336
     67          1           0       33.237292    1.607845   -1.604594
     68          1           0       30.788579   -1.775713   -3.402229
     69          1           0       32.296539   -2.084726   -2.425782
     70          1           0       32.385462   -2.172697   -4.953479
     71          1           0       33.706268   -1.478977   -4.020668
     72          1           0       32.625607   -0.451785   -4.981509
     73          1           0       25.870603   -0.833222   -5.862397
     74          1           0       27.570314   -1.410079   -5.495809
     75          1           0       27.233167    0.257433   -5.955320
     76          1           0       23.024318   -1.684188   -1.767288
     77          1           0       20.928414    2.495643   -3.266235
     78          1           0       21.465007    3.283324   -1.685154
     79          1           0       20.366963    1.959527   -1.670017
     80         12           0      -26.843664   -0.672421    0.342560
     81          6           0      -27.715617    2.708578    0.132338
     82          6           0      -24.369889   -0.189425   -1.759082
     83          6           0      -26.522057   -4.076236    0.004303
     84          6           0      -29.794230   -1.279773    2.183972
     85          7           0      -26.114007    1.078544   -0.575619
     86          6           0      -26.539014    2.387307   -0.510580
     87          6           0      -25.554595    3.335568   -1.182839
     88          6           0      -24.636696    2.335624   -1.956602
     89          6           0      -24.976321    1.026486   -1.333554
     90          6           0      -24.627775    2.344293   -3.469996
     91          6           0      -24.828401    4.323561   -0.214979
     92          6           0      -23.856599    5.299513   -0.887203
     93          1           0      -24.050736    6.771308   -0.553095
     94          7           0      -25.588180   -2.015286   -0.837225
     95          6           0      -24.521098   -1.578954   -1.538415
     96          6           0      -23.769725   -2.709779   -2.008132
     97          6           0      -24.455361   -3.862428   -1.587623
     98          6           0      -25.587535   -3.333588   -0.779310
     99          6           0      -22.519977   -2.599373   -2.855782
    100          6           0      -24.108534   -5.303152   -1.774670
    101          8           0      -24.842413   -6.288417   -1.494434
    102          6           0      -22.738012   -5.696213   -2.312392
    103          7           0      -27.994016   -2.387229    0.967601
    104          6           0      -27.679482   -3.662149    0.640047
    105          6           0      -28.627856   -4.685579    1.468601
    106          6           0      -29.327523   -3.723234    2.491511
    107          6           0      -28.992666   -2.379363    1.928438
    108          6           0      -29.597852   -5.418281    0.461334
    109          6           0      -28.637815   -3.809553    3.901960
    110          6           0      -27.129282   -3.646726    4.004788
    111          7           0      -28.472536    0.488839    1.112491
    112          6           0      -29.557908    0.065533    1.829328
    113          6           0      -30.325987    1.189346    2.105693
    114          6           0      -29.712937    2.305004    1.466168
    115          6           0      -28.578088    1.823853    0.867985
    116          6           0      -31.629255    1.280928    2.818038
    117          6           0      -29.770372    3.751471    1.155656
    118          8           0      -30.587983    4.633747    1.391139
    119          6           0      -28.396836    4.080801    0.349764
    120          6           0      -28.680542    4.922546   -0.843029
    121          8           0      -29.717478    4.828728   -1.564764
    122          8           0      -27.747781    5.864511   -0.881126
    123          6           0      -28.110505    7.024309   -1.672941
    124          1           0      -23.467493   -0.070232   -2.362548
    125          1           0      -26.412645   -5.161234   -0.063481
    126          1           0      -30.624502   -1.485005    2.861508
    127          1           0      -26.186670    3.981150   -1.792893
    128          1           0      -23.579295    2.459477   -1.720287
    129          1           0      -25.000503    3.244139   -3.959294
    130          1           0      -25.171909    1.472343   -3.833920
    131          1           0      -23.629730    2.035660   -3.781676
    132          1           0      -24.313855    3.760619    0.564187
    133          1           0      -25.576035    4.908226    0.320041
    134          1           0      -24.105770    5.446457   -1.937968
    135          1           0      -22.821878    4.980506   -0.758524
    136          1           0      -22.286956   -1.591643   -3.199501
    137          1           0      -22.566757   -3.076338   -3.834465
    138          1           0      -21.625272   -2.979336   -2.361636
    139          1           0      -22.691610   -5.394351   -3.358364
    140          1           0      -22.646271   -6.773725   -2.447077
    141          1           0      -21.914437   -5.352415   -1.685546
    142          1           0      -28.013801   -5.457783    1.932026
    143          1           0      -30.390662   -3.946554    2.402500
    144          1           0      -29.307384   -5.304519   -0.583221
    145          1           0      -30.628766   -5.065856    0.498468
    146          1           0      -29.617781   -6.500150    0.584626
    147          1           0      -28.950502   -4.816194    4.179640
    148          1           0      -29.042299   -3.127454    4.649170
    149          1           0      -26.678841   -3.690973    3.012969
    150          1           0      -26.617745   -4.299533    4.711255
    151          1           0      -27.034335   -2.668781    4.476774
    152          1           0      -31.628578    0.838866    3.814688
    153          1           0      -32.321514    0.697782    2.211422
    154          1           0      -32.006338    2.301698    2.871760
    155          1           0      -27.824285    4.681040    1.056399
    156          1           0      -27.826220    7.937687   -1.148927
    157          1           0      -29.171322    7.149673   -1.888535
    158          1           0      -27.533545    6.947015   -2.595063
 ---------------------------------------------------------------------

 SCF Done:  E(RwB97XD) =  -4070.60513816     A.U. after   19 cycles

 Excitation energies and oscillator strengths:

 Excited State   1:      Singlet-A      1.6653 eV  744.51 nm  f=0.3599  <S**2>=0.000
     309 -> 315        0.17819
     311 -> 313        0.68235
     309 <- 315        0.11320
 This state for optimization and/or second-order correction.
 Total Energy, E(TD-HF/TD-DFT) =  -4070.54393887
 Copying the excited state density for this state as the 1-particle RhoCI density.

 Excited State   2:      Singlet-A      1.6681 eV  743.25 nm  f=0.4113  <S**2>=0.000
     310 -> 316        0.17077
     312 -> 314        0.68478
     310 <- 316        0.11129

 Excited State   3:      Singlet-A      2.0912 eV  592.89 nm  f=0.1653  <S**2>=0.000
     310 -> 314        0.66094
     312 -> 316       -0.23076

 Excited State   4:      Singlet-A      2.1184 eV  585.28 nm  f=0.1555  <S**2>=0.000
     309 -> 313        0.64910
     311 -> 315       -0.25655

 Excited State   5:      Singlet-A      3.0725 eV  403.53 nm  f=0.0091  <S**2>=0.000
     308 -> 314        0.67869

 The electronic state is 1-A.
 Alpha  occ. eigenvalues --  -46.96866 -46.95717 -19.31850 -19.30382 -19.24811
 Alpha  occ. eigenvalues --  -19.24236 -19.24219 -19.24016 -19.23456 -19.23334
 Alpha  occ. eigenvalues --  -14.48199 -14.47512 -14.46597 -14.46418 -14.44743
 Alpha  occ. eigenvalues --  -14.44459 -14.44361 -14.42586 -10.43066 -10.43016
 Alpha  occ. eigenvalues --  -10.39800 -10.39344 -10.38824 -10.38189 -10.37318
 Alpha  occ. eigenvalues --  -10.36267 -10.36200 -10.35795 -10.35734 -10.35727
 Alpha  occ. eigenvalues --  -10.35278 -10.35167 -10.35003 -10.34876 -10.34827
 Alpha  occ. eigenvalues --  -10.34742 -10.34594 -10.34140 -10.34126 -10.34053
 Alpha  occ. eigenvalues --  -10.34000 -10.33572 -10.33215 -10.33069 -10.32817
 Alpha  occ. eigenvalues --  -10.32786 -10.32771 -10.32617 -10.32590 -10.32382
 Alpha  occ. eigenvalues --  -10.32381 -10.32364 -10.32353 -10.32350 -10.32348
 Alpha  occ. eigenvalues --  -10.32346 -10.32266 -10.32135 -10.31959 -10.31888
 Alpha  occ. eigenvalues --  -10.31817 -10.31806 -10.31796 -10.31794 -10.31580
 Alpha  occ. eigenvalues --  -10.31365 -10.31023 -10.30997 -10.30912 -10.30884
 Alpha  occ. eigenvalues --  -10.30497 -10.30443 -10.30413 -10.30378 -10.30215
 Alpha  occ. eigenvalues --  -10.30209 -10.30103 -10.30039 -10.29923 -10.29743
 Alpha  occ. eigenvalues --  -10.29528 -10.29373 -10.29242 -10.28937 -10.28699
 Alpha  occ. eigenvalues --  -10.28257  -3.22560  -3.21562  -1.96169  -1.95652
 Alpha  occ. eigenvalues --   -1.95521  -1.95157  -1.94653  -1.94542  -1.20281
 Alpha  occ. eigenvalues --   -1.17733  -1.12374  -1.11995  -1.10986  -1.10640
 Alpha  occ. eigenvalues --   -1.09720  -1.08092  -1.07503  -1.06840  -1.06381
 Alpha  occ. eigenvalues --   -1.06101  -1.05318  -1.04681  -1.04460  -1.03853
 Alpha  occ. eigenvalues --   -0.94583  -0.93784  -0.91514  -0.91485  -0.91299
 Alpha  occ. eigenvalues --   -0.91192  -0.90344  -0.90085  -0.89968  -0.89693
 Alpha  occ. eigenvalues --   -0.89124  -0.89055  -0.87879  -0.87585  -0.86710
 Alpha  occ. eigenvalues --   -0.86486  -0.85765  -0.85666  -0.84866  -0.84765
 Alpha  occ. eigenvalues --   -0.84220  -0.83809  -0.83295  -0.82873  -0.82771
 Alpha  occ. eigenvalues --   -0.82630  -0.80875  -0.79827  -0.79494  -0.79254
 Alpha  occ. eigenvalues --   -0.79181  -0.78984  -0.78191  -0.78054  -0.77501
 Alpha  occ. eigenvalues --   -0.77180  -0.75540  -0.74713  -0.74330  -0.73710
 Alpha  occ. eigenvalues --   -0.71878  -0.71381  -0.71084  -0.71013  -0.70353
 Alpha  occ. eigenvalues --   -0.70033  -0.69683  -0.69142  -0.67582  -0.67498
 Alpha  occ. eigenvalues --   -0.67456  -0.67327  -0.67196  -0.66825  -0.66672
 Alpha  occ. eigenvalues --   -0.66505  -0.65026  -0.64696  -0.63071  -0.62344
 Alpha  occ. eigenvalues --   -0.61772  -0.61737  -0.61497  -0.61219  -0.61113
 Alpha  occ. eigenvalues --   -0.60532  -0.59838  -0.59510  -0.59238  -0.58947
 Alpha  occ. eigenvalues --   -0.58595  -0.58218  -0.57972  -0.57953  -0.57719
 Alpha  occ. eigenvalues --   -0.57450  -0.57375  -0.57283  -0.56736  -0.56334
 Alpha  occ. eigenvalues --   -0.55812  -0.55537  -0.55240  -0.55220  -0.55096
 Alpha  occ. eigenvalues --   -0.54896  -0.54844  -0.54733  -0.54464  -0.54443
 Alpha  occ. eigenvalues --   -0.54087  -0.53883  -0.53641  -0.53511  -0.53305
 Alpha  occ. eigenvalues --   -0.52909  -0.52879  -0.52515  -0.52415  -0.52392
 Alpha  occ. eigenvalues --   -0.52197  -0.52032  -0.51751  -0.51525  -0.51489
 Alpha  occ. eigenvalues --   -0.51217  -0.51069  -0.50883  -0.50815  -0.50594
 Alpha  occ. eigenvalues --   -0.50490  -0.50445  -0.50263  -0.50256  -0.50014
 Alpha  occ. eigenvalues --   -0.49876  -0.49827  -0.49213  -0.49184  -0.49130
 Alpha  occ. eigenvalues --   -0.49003  -0.48688  -0.48651  -0.48558  -0.48442
 Alpha  occ. eigenvalues --   -0.48282  -0.48129  -0.47965  -0.47874  -0.47835
 Alpha  occ. eigenvalues --   -0.47762  -0.47690  -0.47358  -0.47249  -0.47137
 Alpha  occ. eigenvalues --   -0.47079  -0.46693  -0.46616  -0.46537  -0.46348
 Alpha  occ. eigenvalues --   -0.46203  -0.46108  -0.45794  -0.45700  -0.45636
 Alpha  occ. eigenvalues --   -0.45608  -0.45351  -0.45145  -0.45013  -0.44823
 Alpha  occ. eigenvalues --   -0.44785  -0.44564  -0.44379  -0.44312  -0.44198
 Alpha  occ. eigenvalues --   -0.43992  -0.43807  -0.43627  -0.43472  -0.43372
 Alpha  occ. eigenvalues --   -0.43279  -0.43142  -0.42765  -0.42381  -0.42378
 Alpha  occ. eigenvalues --   -0.41928  -0.41666  -0.41515  -0.41416  -0.41132
 Alpha  occ. eigenvalues --   -0.40608  -0.40298  -0.39979  -0.39846  -0.39450
 Alpha  occ. eigenvalues --   -0.39368  -0.39243  -0.38864  -0.38833  -0.38565
 Alpha  occ. eigenvalues --   -0.38334  -0.37880  -0.36561  -0.36370  -0.36122
 Alpha  occ. eigenvalues --   -0.35945  -0.35514  -0.35040  -0.34159  -0.34041
 Alpha  occ. eigenvalues --   -0.33248  -0.33177  -0.32960  -0.32515  -0.32338
 Alpha  occ. eigenvalues --   -0.32073  -0.31881  -0.30627  -0.26584  -0.25986
 Alpha  occ. eigenvalues --   -0.24016  -0.23590
 Alpha virt. eigenvalues --   -0.08131  -0.07718  -0.00459   0.00647   0.01987
 Alpha virt. eigenvalues --    0.02022   0.04286   0.04536   0.04947   0.05431
 Alpha virt. eigenvalues --    0.06622   0.07016   0.07148   0.07385   0.08374

 Mulliken charges:
               1
     1  Mg   0.930293
     2  C    0.060787
     3  C   -0.053562
     4  C   -0.067706
     5  C   -0.064600
     6  N   -0.367876
     7  C   -0.017596
     8  C   -0.066890
     9  C   -0.122669
    10  C    0.087841
    11  C    0.030142
    12  C    0.037203
    13  C   -0.149383
    14  H    0.025259
    15  N   -0.454797
    16  C    0.135224
    17  C   -0.149577
    18  C   -0.136685
    19  C    0.177597
    20  C    0.084110
    21  C    0.092228
    22  O   -0.239764
    23  C   -0.062628
    24  N   -0.335466
    25  C    0.120388
    26  C   -0.138849
    27  C   -0.048744
    28  C    0.022582
    29  C    0.006351
    30  C   -0.011678
    31  C   -0.052419
    32  N   -0.425245
    33  C    0.118348
    34  C   -0.169380
    35  C   -0.018320
    36  C    0.076794
    37  C    0.078421
    38  C    0.069253
    39  O   -0.202398
    40  C   -0.060357
    41  C    0.246551
    42  O   -0.245810
    43  O   -0.384139
    44  C    0.135008
    45  H   -0.012763
    46  H   -0.019742
    47  H   -0.002611
    48  H    0.034859
    49  H    0.040602
    50  H    0.043262
    51  H    0.048397
    52  H    0.043001
    53  H    0.039666
    54  H    0.043321
    55  H    0.068913
    56  H    0.058964
    57  H    0.056942
    58  H    0.057847
    59  H    0.063791
    60  H    0.068487
    61  H    0.055851
    62  H    0.048663
    63  H    0.055236
    64  H    0.030162
    65  H    0.036240
    66  H    0.039798
    67  H    0.031098
    68  H    0.041414
    69  H    0.028846
    70  H    0.036998
    71  H    0.037579
    72  H    0.038392
    73  H    0.062985
    74  H    0.045546
    75  H    0.046951
    76  H    0.066583
    77  H    0.069697
    78  H    0.052472
    79  H    0.054714
    80  Mg   0.940839
    81  C    0.025568
    82  C   -0.076042
    83  C   -0.054399
    84  C   -0.071390
    85  N   -0.396496
    86  C   -0.020174
    87  C   -0.029466
    88  C   -0.089304
    89  C    0.104696
    90  C    0.044311
    91  C    0.022503
    92  C   -0.128885
    93  H    0.030677
    94  N   -0.379741
    95  C    0.094816
    96  C   -0.112132
    97  C   -0.048702
    98  C    0.101565
    99  C    0.053116
   100  C    0.041229
   101  O   -0.259340
   102  C   -0.008999
   103  N   -0.351575
   104  C    0.069118
   105  C   -0.145198
   106  C   -0.029997
   107  C    0.039117
   108  C    0.014269
   109  C   -0.014299
   110  C   -0.051414
   111  N   -0.418276
   112  C    0.151720
   113  C   -0.204265
   114  C   -0.041232
   115  C    0.088498
   116  C    0.077109
   117  C    0.161965
   118  O   -0.201882
   119  C   -0.129235
   120  C    0.263265
   121  O   -0.280596
   122  O   -0.330215
   123  C    0.127202
   124  H   -0.027651
   125  H    0.024852
   126  H   -0.001123
   127  H    0.031506
   128  H    0.031546
   129  H    0.056323
   130  H    0.033596
   131  H    0.025700
   132  H    0.024416
   133  H    0.044922
   134  H    0.046516
   135  H    0.062194
   136  H    0.028555
   137  H    0.048747
   138  H    0.055096
   139  H    0.043752
   140  H    0.044671
   141  H    0.064207
   142  H    0.043789
   143  H    0.030747
   144  H    0.043548
   145  H    0.032449
   146  H    0.040116
   147  H    0.029589
   148  H    0.030943
   149  H    0.055297
   150  H    0.043824
   151  H    0.033822
   152  H    0.035241
   153  H    0.042857
   154  H    0.057942
   155  H    0.082045
   156  H    0.053485
   157  H    0.078566
   158  H    0.049584
 Sum of Mulliken charges =  -0.00000

 Dipole moment (field-independent basis, Debye):
    X=             10.3531    Y=              1.2719    Z=              0.7124  Tot=             10.4552
 Quadrupole moment (field-independent basis, Debye-Ang):
   XX=           -673.4726   YY=           -516.7824   ZZ=           -521.7819
   XY=             84.1652   XZ=            -24.6672   YZ=            -24.7323

 Normal termination of Gaussian 16 at Mon Sep 20 05:44:40 2021.
