 Gaussian 16, Revision A.03,
 Gaussian 16:  ES64L-G16RevA.03 25-Dec-2016

 --------------------------------
 #p wB97XD/Def2SVP td=(nstates=5)
 --------------------------------

 --------------------------------
 TDDFT excited states in gaussian
 --------------------------------
 Symbolic Z-matrix:
 Charge =  0 Multiplicity = 1

                         Standard orientation:
 ---------------------------------------------------------------------
 Center     Atomic      Atomic             Coordinates (Angstroms)
 Number     Number       Type             X           Y           Z
 ---------------------------------------------------------------------
      1         12           0       24.909622   -0.908197    0.082629
      2          6           0       26.423497    2.219739   -0.601632
      3          6           0       23.569758    0.632512    2.919806
      4          6           0       23.342252   -3.700220    0.808911
      5          6           0       26.973075   -2.395818   -2.287830
      6          7           0       24.988749    1.189669    0.984695
      7          6           0       25.534107    2.325064    0.466436
      8          6           0       25.352864    3.602591    1.303979
      9          6           0       24.503240    2.955096    2.511314
     10          6           0       24.376843    1.518435    2.098739
     11          6           0       25.205532    3.046402    3.923622
     12          6           0       24.574184    4.726258    0.545259
     13          6           0       25.185046    6.047035    0.093397
     14          1           0       24.377067    7.337941    0.108604
     15          7           0       23.562071   -1.469540    1.601853
     16          6           0       23.185630   -0.717975    2.724356
     17          6           0       22.387104   -1.576698    3.570239
     18          6           0       22.170053   -2.783220    2.909316
     19          6           0       22.993611   -2.670178    1.689761
     20          6           0       21.772704   -0.993090    4.796566
     21          6           0       21.397986   -4.037073    3.318523
     22          8           0       21.315012   -5.064019    2.637962
     23          6           0       20.584069   -3.952096    4.549287
     24          7           0       25.172159   -2.820603   -0.543538
     25          6           0       24.265168   -3.806848   -0.270705
     26          6           0       24.403103   -4.994994   -1.281988
     27          6           0       25.591744   -4.578499   -2.138563
     28          6           0       26.006936   -3.186977   -1.585202
     29          6           0       24.512406   -6.394064   -0.592171
     30          6           0       25.178828   -4.553948   -3.618104
     31          6           0       26.104389   -5.142369   -4.619963
     32          7           0       26.473627   -0.302556   -1.136618
     33          6           0       27.201188   -0.998387   -2.068702
     34          6           0       28.134243   -0.147588   -2.744898
     35          6           0       27.832421    1.228504   -2.290009
     36          6           0       26.787753    1.041093   -1.301410
     37          6           0       29.180020   -0.599737   -3.778461
     38          6           0       28.149396    2.675104   -2.395353
     39          8           0       28.876553    3.280275   -3.201192
     40          6           0       27.230215    3.354217   -1.298335
     41          6           0       28.278111    4.007375   -0.452368
     42          8           0       28.910841    3.530335    0.481900
     43          8           0       28.386210    5.274530   -0.744767
     44          6           0       29.477809    6.078045   -0.142795
     45          1           0       23.103040    1.274755    3.669139
     46          1           0       22.923114   -4.696774    0.960589
     47          1           0       27.561123   -2.867756   -3.077260
     48          1           0       26.338928    3.909015    1.655337
     49          1           0       23.477264    3.293035    2.660413
     50          1           0       26.269888    3.279571    3.935096
     51          1           0       25.111022    2.094685    4.445327
     52          1           0       24.690344    3.805082    4.513045
     53          1           0       23.750151    5.018546    1.196338
     54          1           0       24.162484    4.336688   -0.384914
     55          1           0       25.318343    5.845362   -0.969558
     56          1           0       26.090631    6.087168    0.698796
     57          1           0       20.684558   -1.018789    4.758104
     58          1           0       22.073254    0.046431    4.930000
     59          1           0       22.045910   -1.522270    5.708985
     60          1           0       19.968594   -3.053002    4.516333
     61          1           0       21.188141   -3.758949    5.435908
     62          1           0       19.892193   -4.781925    4.689906
     63          1           0       23.450792   -4.941472   -1.809313
     64          1           0       26.390400   -5.318516   -2.090097
     65          1           0       24.317276   -6.381300    0.480045
     66          1           0       25.490298   -6.862049   -0.699162
     67          1           0       23.891352   -7.115091   -1.123490
     68          1           0       25.066788   -3.487621   -3.810120
     69          1           0       24.247417   -5.074407   -3.839661
     70          1           0       26.273849   -4.340424   -5.338098
     71          1           0       25.690189   -6.068695   -5.017911
     72          1           0       27.106419   -5.358454   -4.248734
     73          1           0       30.108064   -0.839912   -3.260973
     74          1           0       29.311286    0.203338   -4.503520
     75          1           0       28.881786   -1.513028   -4.293763
     76          1           0       26.627037    4.099923   -1.815895
     77          1           0       29.443170    6.128922    0.944916
     78          1           0       29.545228    7.096205   -0.525574
     79          1           0       30.497532    5.755119   -0.350276
     80         12           0      -25.724544   -0.531644   -0.116864
     81          6           0      -24.219692    2.720131   -0.704546
     82          6           0      -26.104485    0.484496    3.075000
     83          6           0      -26.990162   -3.419975    0.391602
     84          6           0      -24.893118   -1.430356   -3.439200
     85          7           0      -25.206832    1.504597    1.061798
     86          6           0      -24.706924    2.658382    0.586690
     87          6           0      -24.771406    3.752806    1.669119
     88          6           0      -24.951309    2.784680    2.929634
     89          6           0      -25.502236    1.553855    2.342173
     90          6           0      -23.818116    2.694719    3.937974
     91          6           0      -25.943907    4.696094    1.349172
     92          6           0      -25.750317    6.123969    1.939367
     93          1           0      -24.361403    6.642300    2.536999
     94          7           0      -26.516447   -1.386040    1.529215
     95          6           0      -26.519208   -0.859622    2.806719
     96          6           0      -27.081430   -1.863872    3.704615
     97          6           0      -27.419445   -2.991420    2.916205
     98          6           0      -26.961999   -2.612393    1.549319
     99          6           0      -27.237289   -1.685114    5.149158
    100          6           0      -28.156044   -4.369550    3.333626
    101          8           0      -28.528035   -5.157925    2.508103
    102          6           0      -28.684044   -4.598757    4.761187
    103          7           0      -25.658279   -2.273707   -1.295514
    104          6           0      -26.407470   -3.295977   -0.890340
    105          6           0      -26.559847   -4.395955   -1.906265
    106          6           0      -26.248873   -3.586592   -3.188961
    107          6           0      -25.406144   -2.416615   -2.574046
    108          6           0      -25.542044   -5.614769   -1.714711
    109          6           0      -27.501689   -3.121184   -4.043431
    110          6           0      -28.804699   -3.972451   -4.037789
    111          7           0      -24.677116    0.349119   -1.710616
    112          6           0      -24.462891   -0.060067   -2.985539
    113          6           0      -23.922665    0.953939   -3.772341
    114          6           0      -23.776542    2.000865   -2.907665
    115          6           0      -24.254301    1.638604   -1.663731
    116          6           0      -23.646079    0.877731   -5.271359
    117          6           0      -23.322342    3.399368   -2.882665
    118          8           0      -22.695714    4.087050   -3.674796
    119          6           0      -23.691920    3.916227   -1.424110
    120          6           0      -22.496168    4.516388   -0.858811
    121          8           0      -21.526386    3.925443   -0.373197
    122          8           0      -22.516034    5.822417   -1.197513
    123          6           0      -21.221871    6.459724   -1.032996
    124          1           0      -26.056733    0.747925    4.133742
    125          1           0      -27.392411   -4.410340    0.612312
    126          1           0      -24.744827   -1.721392   -4.481024
    127          1           0      -23.812733    4.258173    1.786637
    128          1           0      -25.755570    3.221470    3.520072
    129          1           0      -24.092018    3.122164    4.902056
    130          1           0      -22.936539    3.212670    3.560756
    131          1           0      -23.452080    1.681916    4.106494
    132          1           0      -26.821024    4.307415    1.867044
    133          1           0      -26.204453    4.738643    0.291785
    134          1           0      -26.539042    6.377996    2.648251
    135          1           0      -26.108952    6.749332    1.121927
    136          1           0      -27.291995   -0.631646    5.422767
    137          1           0      -26.361686   -2.162887    5.588986
    138          1           0      -28.140103   -2.138746    5.558703
    139          1           0      -29.496252   -3.928832    5.043256
    140          1           0      -27.790107   -4.592139    5.385216
    141          1           0      -29.026712   -5.628381    4.867207
    142          1           0      -27.587349   -4.724320   -1.751518
    143          1           0      -25.606169   -4.122390   -3.887070
    144          1           0      -26.206208   -6.471277   -1.828103
    145          1           0      -25.066604   -5.655255   -0.734073
    146          1           0      -24.759195   -5.701281   -2.467247
    147          1           0      -27.178854   -2.957361   -5.070575
    148          1           0      -27.780398   -2.214365   -3.506384
    149          1           0      -29.442141   -3.685297   -3.201893
    150          1           0      -28.432440   -4.997507   -4.039643
    151          1           0      -29.363501   -3.876654   -4.968094
    152          1           0      -24.387632    0.173406   -5.649100
    153          1           0      -22.674272    0.445447   -5.507942
    154          1           0      -23.770475    1.875487   -5.691818
    155          1           0      -24.479495    4.659667   -1.553369
    156          1           0      -21.216482    7.509669   -1.324326
    157          1           0      -20.356938    5.913930   -1.410319
    158          1           0      -20.969833    6.537757    0.025152
 ---------------------------------------------------------------------

 SCF Done:  E(RwB97XD) =  -4070.57916061     A.U. after   17 cycles

 Excitation energies and oscillator strengths:

 Excited State   1:      Singlet-A      1.7237 eV  719.29 nm  f=0.3801  <S**2>=0.000
     309 -> 315       -0.18636
     312 -> 313        0.68177
     309 <- 315       -0.11196
 This state for optimization and/or second-order correction.
 Total Energy, E(TD-HF/TD-DFT) =  -4070.51581559
 Copying the excited state density for this state as the 1-particle RhoCI density.

 Excited State   2:      Singlet-A      1.7991 eV  689.16 nm  f=0.3719  <S**2>=0.000
     310 -> 316       -0.19145
     311 -> 314        0.67946
     310 <- 316       -0.11149

 Excited State   3:      Singlet-A      2.1685 eV  571.75 nm  f=0.1021  <S**2>=0.000
     309 -> 313        0.63396
     312 -> 315        0.29499

 Excited State   4:      Singlet-A      2.1925 eV  565.49 nm  f=0.1530  <S**2>=0.000
     310 -> 314        0.65250
     311 -> 316        0.25641

 Excited State   5:      Singlet-A      3.4478 eV  359.60 nm  f=0.0940  <S**2>=0.000
     299 -> 313       -0.10577
     304 -> 313        0.24548
     305 -> 313       -0.18559
     308 -> 313        0.57230
     309 -> 313       -0.10048
     312 -> 315        0.18577

 The electronic state is 1-A.
 Alpha  occ. eigenvalues --  -46.95696 -46.94861 -19.30451 -19.30107 -19.25599
 Alpha  occ. eigenvalues --  -19.24669 -19.23865 -19.23864 -19.23703 -19.23093
 Alpha  occ. eigenvalues --  -14.47160 -14.46476 -14.46082 -14.45672 -14.44569
 Alpha  occ. eigenvalues --  -14.44450 -14.43536 -14.43207 -10.42438 -10.42035
 Alpha  occ. eigenvalues --  -10.41033 -10.39996 -10.39422 -10.38804 -10.35740
 Alpha  occ. eigenvalues --  -10.35665 -10.35457 -10.35428 -10.35271 -10.34882
 Alpha  occ. eigenvalues --  -10.34864 -10.34857 -10.34854 -10.34705 -10.34482
 Alpha  occ. eigenvalues --  -10.34263 -10.33661 -10.33652 -10.33573 -10.33569
 Alpha  occ. eigenvalues --  -10.33210 -10.33102 -10.32802 -10.32764 -10.32718
 Alpha  occ. eigenvalues --  -10.32701 -10.32639 -10.32362 -10.32350 -10.32206
 Alpha  occ. eigenvalues --  -10.32132 -10.32054 -10.32011 -10.31996 -10.31990
 Alpha  occ. eigenvalues --  -10.31739 -10.31668 -10.31641 -10.31543 -10.31516
 Alpha  occ. eigenvalues --  -10.31455 -10.31440 -10.31313 -10.31286 -10.31135
 Alpha  occ. eigenvalues --  -10.31056 -10.31050 -10.30985 -10.30519 -10.30415
 Alpha  occ. eigenvalues --  -10.30412 -10.30307 -10.30136 -10.29957 -10.29889
 Alpha  occ. eigenvalues --  -10.29879 -10.29718 -10.29690 -10.29463 -10.29437
 Alpha  occ. eigenvalues --  -10.29430 -10.29368 -10.29104 -10.29045 -10.28632
 Alpha  occ. eigenvalues --  -10.27688  -3.21650  -3.20889  -1.95240  -1.94790
 Alpha  occ. eigenvalues --   -1.94600  -1.94481  -1.94014  -1.93866  -1.19936
 Alpha  occ. eigenvalues --   -1.18654  -1.14893  -1.12350  -1.11648  -1.10560
 Alpha  occ. eigenvalues --   -1.08806  -1.08622  -1.07806  -1.07479  -1.07232
 Alpha  occ. eigenvalues --   -1.06732  -1.06103  -1.05424  -1.04766  -1.03318
 Alpha  occ. eigenvalues --   -0.94297  -0.93758  -0.91472  -0.91181  -0.90945
 Alpha  occ. eigenvalues --   -0.90677  -0.90616  -0.89960  -0.89691  -0.89509
 Alpha  occ. eigenvalues --   -0.88832  -0.88666  -0.87489  -0.87029  -0.86301
 Alpha  occ. eigenvalues --   -0.86194  -0.85343  -0.85006  -0.84757  -0.84654
 Alpha  occ. eigenvalues --   -0.84266  -0.83892  -0.82747  -0.82668  -0.82482
 Alpha  occ. eigenvalues --   -0.82070  -0.80778  -0.80633  -0.79395  -0.78759
 Alpha  occ. eigenvalues --   -0.78738  -0.78535  -0.78072  -0.77644  -0.77203
 Alpha  occ. eigenvalues --   -0.77111  -0.74716  -0.74177  -0.73790  -0.73637
 Alpha  occ. eigenvalues --   -0.71600  -0.71211  -0.70717  -0.70098  -0.69578
 Alpha  occ. eigenvalues --   -0.69577  -0.68953  -0.68821  -0.67755  -0.67400
 Alpha  occ. eigenvalues --   -0.67179  -0.67051  -0.66859  -0.66616  -0.66179
 Alpha  occ. eigenvalues --   -0.65666  -0.64351  -0.63782  -0.63000  -0.62879
 Alpha  occ. eigenvalues --   -0.61481  -0.61470  -0.61231  -0.60924  -0.60447
 Alpha  occ. eigenvalues --   -0.60376  -0.59859  -0.59760  -0.59627  -0.59478
 Alpha  occ. eigenvalues --   -0.58731  -0.58592  -0.57527  -0.57404  -0.57150
 Alpha  occ. eigenvalues --   -0.56915  -0.56527  -0.56199  -0.56107  -0.55990
 Alpha  occ. eigenvalues --   -0.55771  -0.55750  -0.55552  -0.55535  -0.54955
 Alpha  occ. eigenvalues --   -0.54890  -0.54860  -0.54571  -0.54475  -0.54186
 Alpha  occ. eigenvalues --   -0.54036  -0.53678  -0.53336  -0.53217  -0.53069
 Alpha  occ. eigenvalues --   -0.52640  -0.52539  -0.52413  -0.52396  -0.51957
 Alpha  occ. eigenvalues --   -0.51939  -0.51846  -0.51655  -0.51651  -0.51374
 Alpha  occ. eigenvalues --   -0.51066  -0.51029  -0.50887  -0.50703  -0.50581
 Alpha  occ. eigenvalues --   -0.50528  -0.50442  -0.50280  -0.50106  -0.49997
 Alpha  occ. eigenvalues --   -0.49801  -0.49716  -0.49425  -0.49321  -0.49317
 Alpha  occ. eigenvalues --   -0.48937  -0.48671  -0.48549  -0.48247  -0.48164
 Alpha  occ. eigenvalues --   -0.47993  -0.47752  -0.47682  -0.47511  -0.47379
 Alpha  occ. eigenvalues --   -0.47356  -0.47048  -0.46955  -0.46820  -0.46558
 Alpha  occ. eigenvalues --   -0.46537  -0.46445  -0.46286  -0.46227  -0.46187
 Alpha  occ. eigenvalues --   -0.45996  -0.45917  -0.45856  -0.45752  -0.45261
 Alpha  occ. eigenvalues --   -0.45188  -0.45156  -0.44989  -0.44902  -0.44733
 Alpha  occ. eigenvalues --   -0.44592  -0.44383  -0.44265  -0.44223  -0.43992
 Alpha  occ. eigenvalues --   -0.43956  -0.43612  -0.43353  -0.43286  -0.43226
 Alpha  occ. eigenvalues --   -0.43134  -0.42683  -0.42305  -0.42293  -0.41956
 Alpha  occ. eigenvalues --   -0.41714  -0.41635  -0.41392  -0.41233  -0.40604
 Alpha  occ. eigenvalues --   -0.40335  -0.40170  -0.40012  -0.39857  -0.39417
 Alpha  occ. eigenvalues --   -0.39263  -0.38689  -0.38662  -0.38351  -0.37913
 Alpha  occ. eigenvalues --   -0.37759  -0.37650  -0.36402  -0.36153  -0.35670
 Alpha  occ. eigenvalues --   -0.35509  -0.35132  -0.34697  -0.34114  -0.33967
 Alpha  occ. eigenvalues --   -0.33807  -0.33751  -0.32842  -0.32593  -0.32474
 Alpha  occ. eigenvalues --   -0.32317  -0.31596  -0.30811  -0.25848  -0.25312
 Alpha  occ. eigenvalues --   -0.23220  -0.22997
 Alpha virt. eigenvalues --   -0.06847  -0.06598   0.00072   0.00829   0.01868
 Alpha virt. eigenvalues --    0.02608   0.04182   0.04756   0.05562   0.05793
 Alpha virt. eigenvalues --    0.06753   0.07714   0.07904   0.08353   0.08554

 Mulliken charges:
               1
     1  Mg   0.972679
     2  C    0.039501
     3  C   -0.094846
     4  C   -0.084773
     5  C   -0.089022
     6  N   -0.280113
     7  C   -0.033659
     8  C   -0.039451
     9  C   -0.125344
    10  C    0.009594
    11  C    0.001848
    12  C   -0.006331
    13  C   -0.125604
    14  H    0.045868
    15  N   -0.445313
    16  C    0.189258
    17  C   -0.135273
    18  C   -0.078162
    19  C    0.174061
    20  C    0.050591
    21  C    0.084292
    22  O   -0.232484
    23  C   -0.006941
    24  N   -0.424756
    25  C    0.030648
    26  C   -0.065405
    27  C   -0.064778
    28  C    0.113723
    29  C    0.012638
    30  C   -0.040727
    31  C   -0.047846
    32  N   -0.454742
    33  C    0.145687
    34  C   -0.198916
    35  C   -0.045551
    36  C    0.123143
    37  C    0.077732
    38  C    0.112848
    39  O   -0.226543
    40  C   -0.112945
    41  C    0.233052
    42  O   -0.268662
    43  O   -0.310173
    44  C    0.148277
    45  H    0.001889
    46  H    0.016052
    47  H   -0.006141
    48  H    0.060593
    49  H    0.045633
    50  H    0.052680
    51  H    0.037772
    52  H    0.037495
    53  H    0.038500
    54  H    0.032708
    55  H    0.062065
    56  H    0.051791
    57  H    0.054648
    58  H    0.035481
    59  H    0.048361
    60  H    0.039680
    61  H    0.049832
    62  H    0.061308
    63  H    0.054002
    64  H    0.031664
    65  H    0.057285
    66  H    0.025253
    67  H    0.035179
    68  H    0.036552
    69  H    0.031263
    70  H    0.037270
    71  H    0.043613
    72  H    0.025462
    73  H    0.056335
    74  H    0.061398
    75  H    0.025336
    76  H    0.075665
    77  H    0.050752
    78  H    0.052458
    79  H    0.053089
    80  Mg   0.963353
    81  C   -0.002570
    82  C   -0.069587
    83  C   -0.087062
    84  C   -0.078730
    85  N   -0.252399
    86  C   -0.062672
    87  C   -0.062027
    88  C   -0.088843
    89  C   -0.000010
    90  C    0.039637
    91  C    0.010087
    92  C   -0.092275
    93  H    0.048494
    94  N   -0.472715
    95  C    0.161577
    96  C   -0.161834
    97  C   -0.088148
    98  C    0.121925
    99  C    0.059487
   100  C    0.076597
   101  O   -0.197386
   102  C   -0.024169
   103  N   -0.321620
   104  C    0.065211
   105  C   -0.102391
   106  C   -0.113761
   107  C    0.058265
   108  C    0.030240
   109  C   -0.010598
   110  C   -0.052858
   111  N   -0.409986
   112  C    0.090423
   113  C   -0.219097
   114  C   -0.051365
   115  C    0.154647
   116  C    0.095850
   117  C    0.138535
   118  O   -0.197778
   119  C   -0.092933
   120  C    0.252603
   121  O   -0.272146
   122  O   -0.331215
   123  C    0.153315
   124  H   -0.010556
   125  H    0.011943
   126  H    0.003400
   127  H    0.040479
   128  H    0.017732
   129  H    0.039842
   130  H    0.042820
   131  H    0.036613
   132  H    0.031799
   133  H    0.048040
   134  H    0.038528
   135  H    0.037350
   136  H    0.044150
   137  H    0.065923
   138  H    0.040911
   139  H    0.086405
   140  H    0.045212
   141  H    0.050822
   142  H    0.043778
   143  H    0.017540
   144  H    0.041956
   145  H    0.045899
   146  H    0.042520
   147  H    0.037411
   148  H    0.027784
   149  H    0.050432
   150  H    0.034795
   151  H    0.039890
   152  H    0.025446
   153  H    0.053046
   154  H    0.055810
   155  H    0.073332
   156  H    0.049840
   157  H    0.060891
   158  H    0.024148
 Sum of Mulliken charges =  -0.00000

 Dipole moment (field-independent basis, Debye):
    X=             -8.2080    Y=             -0.7327    Z=              7.9882  Tot=             11.4769
 Quadrupole moment (field-independent basis, Debye-Ang):
   XX=           -520.8759   YY=           -493.4976   ZZ=           -471.6813
   XY=              5.6468   XZ=            -34.8442   YZ=             42.4530

 Normal termination of Gaussian 16 at Mon Sep 20 14:17:32 2021.
