 Gaussian 16, Revision A.03,
 Gaussian 16:  ES64L-G16RevA.03 25-Dec-2016

 --------------------------------
 #p wB97XD/Def2SVP td=(nstates=5)
 --------------------------------

 --------------------------------
 TDDFT excited states in gaussian
 --------------------------------
 Symbolic Z-matrix:
 Charge =  0 Multiplicity = 1

                         Standard orientation:
 ---------------------------------------------------------------------
 Center     Atomic      Atomic             Coordinates (Angstroms)
 Number     Number       Type             X           Y           Z
 ---------------------------------------------------------------------
      1         12           0      -27.851637   -0.172680   -0.563274
      2          6           0      -24.803062    0.885265    0.721243
      3          6           0      -27.407800   -3.257985    1.122686
      4          6           0      -31.131568   -0.771112   -0.782557
      5          6           0      -28.430481    3.151441   -1.584952
      6          7           0      -26.381773   -0.959508    1.101807
      7          6           0      -25.126845   -0.409013    1.204003
      8          6           0      -24.219563   -1.261271    2.034708
      9          6           0      -24.945781   -2.681512    1.945807
     10          6           0      -26.365447   -2.320273    1.382035
     11          6           0      -24.203299   -3.798611    1.052787
     12          6           0      -23.998387   -0.604188    3.493051
     13          6           0      -22.759369   -0.968726    4.139705
     14          1           0      -22.951274   -1.583427    5.542353
     15          7           0      -29.075989   -1.834334   -0.098767
     16          6           0      -28.700353   -3.019470    0.593599
     17          6           0      -29.865010   -3.887393    0.638046
     18          6           0      -30.969358   -3.205842    0.071224
     19          6           0      -30.395615   -1.895417   -0.385199
     20          6           0      -29.848965   -5.189402    1.348415
     21          6           0      -32.448359   -3.777145    0.032397
     22          8           0      -32.625321   -4.895024    0.514080
     23          6           0      -33.536811   -3.145894   -0.828921
     24          7           0      -29.499253    1.074705   -1.010508
     25          6           0      -30.727400    0.512873   -1.144141
     26          6           0      -31.899607    1.618628   -1.511113
     27          6           0      -30.977004    2.842428   -1.983038
     28          6           0      -29.549368    2.380799   -1.550687
     29          6           0      -32.901289    1.204139   -2.654554
     30          6           0      -31.358955    4.170950   -1.327624
     31          6           0      -31.764281    5.392186   -2.187350
     32          7           0      -26.739890    1.560440   -0.718681
     33          6           0      -27.094847    2.794562   -1.180572
     34          6           0      -25.934556    3.642097   -1.196447
     35          6           0      -25.006705    2.898246   -0.374462
     36          6           0      -25.598341    1.655544   -0.090572
     37          6           0      -25.873796    5.065042   -1.671620
     38          6           0      -23.730682    2.993078    0.303472
     39          8           0      -22.863106    3.805538    0.195719
     40          6           0      -23.466869    1.624293    1.043815
     41          6           0      -22.278120    0.808661    0.489331
     42          8           0      -22.107246    0.549564   -0.682521
     43          8           0      -21.383350    0.506134    1.536432
     44          6           0      -20.138617   -0.097272    1.166963
     45          1           0      -27.180607   -4.210979    1.603390
     46          1           0      -32.215077   -0.819386   -0.656894
     47          1           0      -28.648675    4.162935   -1.932412
     48          1           0      -23.286366   -1.497022    1.522129
     49          1           0      -25.055145   -3.066827    2.960191
     50          1           0      -23.998608   -4.620266    1.739026
     51          1           0      -23.287416   -3.432108    0.590207
     52          1           0      -24.925894   -4.114971    0.299985
     53          1           0      -24.829530   -1.002735    4.074586
     54          1           0      -24.179956    0.448441    3.274340
     55          1           0      -22.177412   -0.050754    4.212625
     56          1           0      -22.241269   -1.728125    3.554120
     57          1           0      -28.833467   -5.504811    1.587305
     58          1           0      -30.223300   -5.975464    0.692133
     59          1           0      -30.398917   -5.134753    2.288211
     60          1           0      -33.831290   -2.147690   -0.503395
     61          1           0      -34.392862   -3.821358   -0.818740
     62          1           0      -33.162799   -3.119139   -1.852458
     63          1           0      -32.349722    1.832016   -0.541983
     64          1           0      -30.873122    2.949716   -3.062980
     65          1           0      -33.898882    1.068962   -2.237675
     66          1           0      -32.574918    0.263295   -3.099339
     67          1           0      -32.892714    2.014790   -3.383957
     68          1           0      -30.607341    4.494475   -0.607906
     69          1           0      -32.169626    4.104289   -0.602219
     70          1           0      -31.076325    6.237551   -2.217626
     71          1           0      -32.668885    5.776724   -1.715646
     72          1           0      -31.945267    5.103913   -3.223540
     73          1           0      -24.821848    5.300288   -1.835258
     74          1           0      -26.027573    5.817453   -0.898743
     75          1           0      -26.532428    5.301247   -2.506974
     76          1           0      -23.223981    1.941943    2.058207
     77          1           0      -19.913177   -0.645603    2.082203
     78          1           0      -19.335086    0.635316    1.093161
     79          1           0      -20.239589   -0.663178    0.241731
     80         12           0       27.650781    0.544939   -0.241066
     81          6           0       25.805712   -2.455976   -0.356460
     82          6           0       24.783036    2.103183    0.528712
     83          6           0       29.537358    3.151384    0.331544
     84          6           0       30.572308   -1.509164   -0.366777
     85          7           0       25.547667   -0.137187    0.091909
     86          6           0       24.981640   -1.356087   -0.074338
     87          6           0       23.479725   -1.362085    0.126194
     88          6           0       23.197074    0.193865    0.133651
     89          6           0       24.574701    0.807529    0.274330
     90          6           0       22.435719    0.740095   -1.143969
     91          6           0       22.801748   -2.092595    1.366191
     92          6           0       23.630545   -2.529019    2.603422
     93          1           0       22.930779   -2.484412    4.013069
     94          7           0       27.142719    2.437818    0.232554
     95          6           0       25.950753    2.875161    0.615914
     96          6           0       26.075257    4.291824    1.054923
     97          6           0       27.504326    4.647380    0.825808
     98          6           0       28.121749    3.373119    0.457056
     99          6           0       24.906849    5.166112    1.422807
    100          6           0       28.127811    5.995092    1.078750
    101          8           0       27.403878    6.921921    1.434023
    102          6           0       29.664291    6.321215    0.989283
    103          7           0       29.837958    0.793050    0.074857
    104          6           0       30.248212    2.013253    0.118655
    105          6           0       31.839708    1.983721    0.045165
    106          6           0       32.098418    0.475933    0.073807
    107          6           0       30.727838   -0.158017   -0.065991
    108          6           0       32.550019    2.710559   -1.108930
    109          6           0       32.669210   -0.057047    1.488317
    110          6           0       34.110697   -0.598126    1.486583
    111          7           0       28.161948   -1.517044   -0.276025
    112          6           0       29.343864   -2.187824   -0.448226
    113          6           0       29.092903   -3.612501   -0.787886
    114          6           0       27.691294   -3.813752   -0.640613
    115          6           0       27.195996   -2.453528   -0.437143
    116          6           0       30.148497   -4.717088   -1.017507
    117          6           0       26.600101   -4.729879   -0.655877
    118          8           0       26.507462   -5.968752   -0.694982
    119          6           0       25.308385   -3.880138   -0.548003
    120          6           0       24.481197   -4.170817   -1.803622
    121          8           0       23.479493   -4.808843   -1.991076
    122          8           0       24.968887   -3.355286   -2.830553
    123          6           0       24.240679   -3.374978   -4.137142
    124          1           0       23.836038    2.582807    0.785599
    125          1           0       30.122043    4.060372    0.492447
    126          1           0       31.458936   -2.073118   -0.662716
    127          1           0       23.081614   -1.762805   -0.805849
    128          1           0       22.560316    0.438558    0.983931
    129          1           0       22.271827   -0.055978   -1.869492
    130          1           0       23.198994    1.374205   -1.593653
    131          1           0       21.523661    1.252041   -0.836560
    132          1           0       22.290717   -2.970061    0.969743
    133          1           0       21.990036   -1.467730    1.740247
    134          1           0       24.491505   -1.860975    2.628282
    135          1           0       23.890671   -3.587068    2.608158
    136          1           0       25.155928    6.226590    1.454530
    137          1           0       24.485295    4.743765    2.335726
    138          1           0       24.159800    4.926092    0.665511
    139          1           0       30.242184    6.072939    0.098260
    140          1           0       30.174281    5.747425    1.763096
    141          1           0       29.866315    7.382690    1.129748
    142          1           0       32.286805    2.481331    0.905079
    143          1           0       32.792405    0.046689   -0.649689
    144          1           0       31.842485    3.212079   -1.769407
    145          1           0       33.203031    2.038981   -1.667305
    146          1           0       33.196835    3.522977   -0.777698
    147          1           0       32.071199   -0.878415    1.880703
    148          1           0       32.584173    0.788251    2.171550
    149          1           0       34.308340   -1.411019    2.185767
    150          1           0       34.727742    0.238052    1.815345
    151          1           0       34.251567   -0.926882    0.456863
    152          1           0       31.162054   -4.457523   -0.713603
    153          1           0       30.134027   -4.872954   -2.095929
    154          1           0       29.780725   -5.636745   -0.563120
    155          1           0       24.749126   -4.185167    0.335850
    156          1           0       23.736092   -4.292531   -4.438988
    157          1           0       25.039000   -3.235110   -4.865747
    158          1           0       23.538150   -2.569889   -4.353475
 ---------------------------------------------------------------------

 SCF Done:  E(RwB97XD) =  -4070.56525842     A.U. after   19 cycles

 Excitation energies and oscillator strengths:

 Excited State   1:      Singlet-A      1.6352 eV  758.23 nm  f=0.3871  <S**2>=0.000
     310 -> 316       -0.17852
     312 -> 314        0.68608
     310 <- 316       -0.11658
 This state for optimization and/or second-order correction.
 Total Energy, E(TD-HF/TD-DFT) =  -4070.50516695
 Copying the excited state density for this state as the 1-particle RhoCI density.

 Excited State   2:      Singlet-A      1.7163 eV  722.41 nm  f=0.4078  <S**2>=0.000
     309 -> 315        0.19065
     311 -> 313        0.68129
     309 <- 315        0.11532

 Excited State   3:      Singlet-A      2.1962 eV  564.55 nm  f=0.1046  <S**2>=0.000
     310 -> 314        0.63438
     312 -> 316        0.29405

 Excited State   4:      Singlet-A      2.2310 eV  555.73 nm  f=0.0954  <S**2>=0.000
     309 -> 313        0.63455
     311 -> 315       -0.29973

 Excited State   5:      Singlet-A      3.3902 eV  365.71 nm  f=0.0206  <S**2>=0.000
     305 -> 314        0.55990
     306 -> 314       -0.12288
     308 -> 314       -0.35509
     312 -> 316       -0.15454

 The electronic state is 1-A.
 Alpha  occ. eigenvalues --  -46.96411 -46.96147 -19.30341 -19.29872 -19.25650
 Alpha  occ. eigenvalues --  -19.25394 -19.24759 -19.24608 -19.23579 -19.23241
 Alpha  occ. eigenvalues --  -14.46921 -14.46913 -14.46611 -14.46373 -14.45071
 Alpha  occ. eigenvalues --  -14.44830 -14.44718 -14.43616 -10.43936 -10.43783
 Alpha  occ. eigenvalues --  -10.40413 -10.39778 -10.39553 -10.37970 -10.35901
 Alpha  occ. eigenvalues --  -10.35702 -10.35648 -10.35577 -10.35294 -10.35170
 Alpha  occ. eigenvalues --  -10.35145 -10.35126 -10.35112 -10.34762 -10.34692
 Alpha  occ. eigenvalues --  -10.34522 -10.34450 -10.34426 -10.34177 -10.34070
 Alpha  occ. eigenvalues --  -10.33822 -10.33595 -10.33376 -10.33350 -10.33066
 Alpha  occ. eigenvalues --  -10.32877 -10.32863 -10.32707 -10.32691 -10.32555
 Alpha  occ. eigenvalues --  -10.32545 -10.32340 -10.32250 -10.32092 -10.32065
 Alpha  occ. eigenvalues --  -10.32019 -10.31990 -10.31962 -10.31942 -10.31702
 Alpha  occ. eigenvalues --  -10.31685 -10.31678 -10.31526 -10.31425 -10.31317
 Alpha  occ. eigenvalues --  -10.31124 -10.31123 -10.30974 -10.30945 -10.30738
 Alpha  occ. eigenvalues --  -10.30579 -10.30490 -10.30449 -10.30419 -10.30359
 Alpha  occ. eigenvalues --  -10.30356 -10.30341 -10.30324 -10.30203 -10.30018
 Alpha  occ. eigenvalues --  -10.29663 -10.29608 -10.29522 -10.29422 -10.29255
 Alpha  occ. eigenvalues --  -10.28627  -3.22340  -3.22031  -1.95917  -1.95562
 Alpha  occ. eigenvalues --   -1.95460  -1.95308  -1.95205  -1.94961  -1.18256
 Alpha  occ. eigenvalues --   -1.18223  -1.12983  -1.12551  -1.11741  -1.11636
 Alpha  occ. eigenvalues --   -1.10917  -1.09530  -1.08739  -1.06890  -1.06844
 Alpha  occ. eigenvalues --   -1.06061  -1.05329  -1.04964  -1.04380  -1.03629
 Alpha  occ. eigenvalues --   -0.95619  -0.94187  -0.91730  -0.91098  -0.90729
 Alpha  occ. eigenvalues --   -0.90480  -0.90263  -0.90207  -0.90064  -0.88904
 Alpha  occ. eigenvalues --   -0.88800  -0.88381  -0.87760  -0.87322  -0.86836
 Alpha  occ. eigenvalues --   -0.85991  -0.85835  -0.85236  -0.84785  -0.84613
 Alpha  occ. eigenvalues --   -0.84157  -0.83712  -0.83095  -0.82778  -0.82475
 Alpha  occ. eigenvalues --   -0.82219  -0.80476  -0.79748  -0.79643  -0.79295
 Alpha  occ. eigenvalues --   -0.78948  -0.78685  -0.78622  -0.78047  -0.77311
 Alpha  occ. eigenvalues --   -0.76888  -0.75338  -0.74648  -0.74382  -0.73327
 Alpha  occ. eigenvalues --   -0.71605  -0.71201  -0.71138  -0.70600  -0.70408
 Alpha  occ. eigenvalues --   -0.69507  -0.69401  -0.68783  -0.68473  -0.67845
 Alpha  occ. eigenvalues --   -0.67646  -0.67510  -0.66881  -0.66830  -0.66449
 Alpha  occ. eigenvalues --   -0.66094  -0.65189  -0.64790  -0.62594  -0.62213
 Alpha  occ. eigenvalues --   -0.61694  -0.61451  -0.61431  -0.60979  -0.60536
 Alpha  occ. eigenvalues --   -0.60521  -0.60093  -0.59975  -0.59451  -0.59260
 Alpha  occ. eigenvalues --   -0.58351  -0.58328  -0.57867  -0.57655  -0.57279
 Alpha  occ. eigenvalues --   -0.57035  -0.56939  -0.56682  -0.56513  -0.55923
 Alpha  occ. eigenvalues --   -0.55916  -0.55593  -0.55177  -0.54902  -0.54720
 Alpha  occ. eigenvalues --   -0.54672  -0.54494  -0.54407  -0.54035  -0.53968
 Alpha  occ. eigenvalues --   -0.53688  -0.53668  -0.53584  -0.53534  -0.53221
 Alpha  occ. eigenvalues --   -0.53027  -0.52951  -0.52702  -0.52530  -0.52154
 Alpha  occ. eigenvalues --   -0.52010  -0.51958  -0.51751  -0.51676  -0.51575
 Alpha  occ. eigenvalues --   -0.51462  -0.51144  -0.51042  -0.50994  -0.50802
 Alpha  occ. eigenvalues --   -0.50707  -0.50477  -0.50454  -0.50360  -0.50239
 Alpha  occ. eigenvalues --   -0.49919  -0.49800  -0.49795  -0.49532  -0.49376
 Alpha  occ. eigenvalues --   -0.49217  -0.49209  -0.48988  -0.48916  -0.48878
 Alpha  occ. eigenvalues --   -0.48581  -0.48348  -0.48235  -0.48072  -0.48050
 Alpha  occ. eigenvalues --   -0.47877  -0.47800  -0.47570  -0.47493  -0.47298
 Alpha  occ. eigenvalues --   -0.47164  -0.46876  -0.46788  -0.46732  -0.46423
 Alpha  occ. eigenvalues --   -0.46124  -0.46018  -0.45912  -0.45890  -0.45522
 Alpha  occ. eigenvalues --   -0.45445  -0.45348  -0.45259  -0.45088  -0.45068
 Alpha  occ. eigenvalues --   -0.44717  -0.44612  -0.44582  -0.44419  -0.44257
 Alpha  occ. eigenvalues --   -0.44168  -0.44046  -0.44002  -0.43380  -0.43366
 Alpha  occ. eigenvalues --   -0.43114  -0.42944  -0.42877  -0.42854  -0.42598
 Alpha  occ. eigenvalues --   -0.42353  -0.41883  -0.41704  -0.41148  -0.40765
 Alpha  occ. eigenvalues --   -0.40606  -0.40170  -0.40136  -0.39725  -0.39687
 Alpha  occ. eigenvalues --   -0.39033  -0.38894  -0.38720  -0.38668  -0.38278
 Alpha  occ. eigenvalues --   -0.38229  -0.37561  -0.37066  -0.36741  -0.36261
 Alpha  occ. eigenvalues --   -0.36237  -0.35866  -0.35529  -0.34096  -0.33577
 Alpha  occ. eigenvalues --   -0.33491  -0.33444  -0.33274  -0.32870  -0.32424
 Alpha  occ. eigenvalues --   -0.31932  -0.31425  -0.31287  -0.26423  -0.26251
 Alpha  occ. eigenvalues --   -0.23347  -0.22975
 Alpha virt. eigenvalues --   -0.07266  -0.07114  -0.00130   0.00261   0.01412
 Alpha virt. eigenvalues --    0.02522   0.03849   0.04264   0.04502   0.04518
 Alpha virt. eigenvalues --    0.06739   0.06810   0.07096   0.07188   0.07968

 Mulliken charges:
               1
     1  Mg   0.961251
     2  C   -0.078300
     3  C   -0.075597
     4  C   -0.094076
     5  C   -0.091043
     6  N   -0.325471
     7  C   -0.039366
     8  C   -0.084534
     9  C   -0.134133
    10  C    0.034751
    11  C    0.014941
    12  C    0.052923
    13  C   -0.094340
    14  H    0.019868
    15  N   -0.466748
    16  C    0.174681
    17  C   -0.161903
    18  C   -0.102781
    19  C    0.203965
    20  C    0.095498
    21  C    0.075995
    22  O   -0.234455
    23  C   -0.028072
    24  N   -0.403911
    25  C    0.073630
    26  C   -0.123935
    27  C   -0.024137
    28  C    0.034571
    29  C    0.024326
    30  C   -0.029777
    31  C   -0.054228
    32  N   -0.416313
    33  C    0.139443
    34  C   -0.160921
    35  C   -0.085655
    36  C    0.221818
    37  C    0.066617
    38  C    0.108995
    39  O   -0.181745
    40  C   -0.079671
    41  C    0.276407
    42  O   -0.220985
    43  O   -0.387257
    44  C    0.130573
    45  H    0.011420
    46  H   -0.019723
    47  H   -0.007325
    48  H    0.027432
    49  H    0.037139
    50  H    0.043869
    51  H    0.052437
    52  H    0.042175
    53  H    0.036907
    54  H    0.037000
    55  H    0.063453
    56  H    0.049698
    57  H    0.010703
    58  H    0.056767
    59  H    0.066344
    60  H    0.071061
    61  H    0.057615
    62  H    0.067756
    63  H    0.055944
    64  H    0.043566
    65  H    0.039928
    66  H    0.046120
    67  H    0.045231
    68  H    0.031560
    69  H    0.018915
    70  H    0.040054
    71  H    0.034071
    72  H    0.032254
    73  H    0.049861
    74  H    0.043561
    75  H    0.043539
    76  H    0.072467
    77  H    0.046056
    78  H    0.054212
    79  H    0.067030
    80  Mg   0.957672
    81  C   -0.036511
    82  C   -0.091725
    83  C   -0.036483
    84  C   -0.103638
    85  N   -0.340911
    86  C   -0.037925
    87  C    0.005320
    88  C   -0.158290
    89  C    0.057875
    90  C    0.033628
    91  C    0.002324
    92  C   -0.150041
    93  H    0.026879
    94  N   -0.476190
    95  C    0.164716
    96  C   -0.173362
    97  C   -0.081364
    98  C    0.167474
    99  C    0.085907
   100  C    0.055543
   101  O   -0.240343
   102  C   -0.027043
   103  N   -0.273745
   104  C    0.045815
   105  C   -0.055733
   106  C   -0.126051
   107  C    0.077228
   108  C    0.014299
   109  C   -0.041890
   110  C   -0.039884
   111  N   -0.402016
   112  C    0.126966
   113  C   -0.186195
   114  C   -0.008847
   115  C    0.160797
   116  C    0.075229
   117  C    0.093787
   118  O   -0.218106
   119  C   -0.083318
   120  C    0.279624
   121  O   -0.209538
   122  O   -0.398035
   123  C    0.134893
   124  H   -0.010882
   125  H   -0.053764
   126  H    0.002644
   127  H    0.040925
   128  H    0.037046
   129  H    0.035433
   130  H    0.038121
   131  H    0.054869
   132  H    0.045345
   133  H    0.044666
   134  H    0.072947
   135  H    0.074380
   136  H    0.077708
   137  H    0.041045
   138  H    0.036949
   139  H    0.056516
   140  H    0.057144
   141  H    0.052403
   142  H    0.035502
   143  H    0.023163
   144  H    0.033249
   145  H    0.035997
   146  H    0.027112
   147  H    0.043326
   148  H    0.025248
   149  H    0.043754
   150  H    0.037805
   151  H    0.028136
   152  H    0.042822
   153  H    0.054951
   154  H    0.069748
   155  H    0.068923
   156  H    0.065912
   157  H    0.044843
   158  H    0.047221
 Sum of Mulliken charges =  -0.00000

 Dipole moment (field-independent basis, Debye):
    X=              0.3179    Y=              1.1829    Z=             -2.8741  Tot=              3.1243
 Quadrupole moment (field-independent basis, Debye-Ang):
   XX=           -139.3498   YY=           -582.6250   ZZ=           -502.0633
   XY=             16.6405   XZ=            -23.4687   YZ=            -11.3674

 Normal termination of Gaussian 16 at Sun Sep 19 04:13:55 2021.
