 Gaussian 16, Revision A.03,
 Gaussian 16:  ES64L-G16RevA.03 25-Dec-2016

 --------------------------------
 #p wB97XD/Def2SVP td=(nstates=5)
 --------------------------------

 --------------------------------
 TDDFT excited states in gaussian
 --------------------------------
 Symbolic Z-matrix:
 Charge =  0 Multiplicity = 1

                         Standard orientation:
 ---------------------------------------------------------------------
 Center     Atomic      Atomic             Coordinates (Angstroms)
 Number     Number       Type             X           Y           Z
 ---------------------------------------------------------------------
      1         12           0       20.971374    0.700609   -0.399227
      2          6           0       21.420621   -2.600112    0.472383
      3          6           0       17.764581    0.497065    0.758072
      4          6           0       21.034582    3.987374   -0.073808
      5          6           0       24.304106    0.742337   -1.503149
      6          7           0       19.941243   -0.791537    0.933960
      7          6           0       20.220557   -2.120440    0.937442
      8          6           0       19.120594   -2.943135    1.540495
      9          6           0       17.894087   -2.032365    1.210006
     10          6           0       18.560873   -0.707246    0.871555
     11          6           0       16.979791   -2.621014    0.097546
     12          6           0       19.302912   -3.133355    3.129368
     13          6           0       18.823250   -4.543335    3.711068
     14          1           0       17.733111   -4.282373    4.720788
     15          7           0       19.509000    2.055683    0.068194
     16          6           0       18.286952    1.836292    0.601131
     17          6           0       17.607438    3.097698    0.868163
     18          6           0       18.538525    4.121576    0.598018
     19          6           0       19.767485    3.390848    0.179007
     20          6           0       16.160919    3.127959    1.418563
     21          6           0       18.288881    5.563443    0.942380
     22          8           0       17.222223    5.888933    1.394642
     23          6           0       19.331581    6.689536    0.807152
     24          7           0       22.418830    2.229405   -0.860124
     25          6           0       22.203767    3.446828   -0.624662
     26          6           0       23.394676    4.308232   -0.829660
     27          6           0       24.483448    3.272364   -1.314945
     28          6           0       23.729059    2.017195   -1.230134
     29          6           0       23.083534    5.510805   -1.783509
     30          6           0       25.777580    3.276714   -0.376394
     31          6           0       27.097311    2.657656   -0.959830
     32          7           0       22.544753   -0.620567   -0.595062
     33          6           0       23.799705   -0.477421   -1.158545
     34          6           0       24.462199   -1.749115   -1.247178
     35          6           0       23.519533   -2.655056   -0.646358
     36          6           0       22.451401   -1.909084   -0.186764
     37          6           0       25.807141   -2.044479   -1.828762
     38          6           0       23.291206   -4.025638   -0.342990
     39          8           0       23.932930   -5.073831   -0.489739
     40          6           0       22.016460   -4.023424    0.564226
     41          6           0       21.150701   -5.140714    0.085366
     42          8           0       21.148545   -6.286371    0.557251
     43          8           0       20.407281   -4.724069   -0.984234
     44          6           0       19.586798   -5.865708   -1.477522
     45          1           0       16.693062    0.511100    0.969873
     46          1           0       21.043778    5.064882    0.100068
     47          1           0       25.374501    0.784072   -1.718753
     48          1           0       19.108066   -3.847628    0.933666
     49          1           0       17.253400   -1.967379    2.089591
     50          1           0       15.998293   -2.839712    0.517188
     51          1           0       17.405184   -3.583190   -0.189560
     52          1           0       16.986161   -1.919366   -0.735984
     53          1           0       18.900072   -2.340526    3.759459
     54          1           0       20.355665   -3.058052    3.399752
     55          1           0       19.693136   -4.914632    4.253066
     56          1           0       18.557050   -5.349256    3.027064
     57          1           0       16.043687    3.638218    2.374521
     58          1           0       15.692563    2.145842    1.492204
     59          1           0       15.550214    3.624144    0.665017
     60          1           0       19.634398    6.874394   -0.222975
     61          1           0       20.217792    6.543042    1.425135
     62          1           0       18.873037    7.545079    1.303954
     63          1           0       23.630986    4.648433    0.178480
     64          1           0       24.806576    3.308088   -2.355059
     65          1           0       23.293371    6.420483   -1.221303
     66          1           0       22.051787    5.495345   -2.135197
     67          1           0       23.804562    5.637839   -2.590875
     68          1           0       25.567071    2.745154    0.551871
     69          1           0       25.943935    4.323621   -0.126852
     70          1           0       28.001874    3.256169   -1.064223
     71          1           0       26.938912    2.315406   -1.981597
     72          1           0       27.397060    1.789698   -0.372524
     73          1           0       26.291762   -1.236018   -2.375799
     74          1           0       25.538881   -2.887512   -2.464222
     75          1           0       26.315108   -2.417309   -0.939248
     76          1           0       22.223473   -4.132773    1.629322
     77          1           0       20.239758   -6.606591   -1.937763
     78          1           0       18.959600   -5.597643   -2.327765
     79          1           0       18.999007   -6.235315   -0.637029
     80         12           0      -21.618994    0.316819   -0.349873
     81          6           0      -18.578143   -1.335637   -0.009249
     82          6           0      -23.191218   -2.767951   -0.160188
     83          6           0      -24.574627    1.777259   -0.112058
     84          6           0      -19.978773    3.347037   -0.024317
     85          7           0      -20.986561   -1.776551    0.047781
     86          6           0      -19.684261   -2.231294    0.014373
     87          6           0      -19.590177   -3.728426    0.007372
     88          6           0      -21.066598   -4.139657   -0.424327
     89          6           0      -21.825667   -2.851616   -0.134458
     90          6           0      -21.372436   -4.875314   -1.814422
     91          6           0      -19.044950   -4.386958    1.358325
     92          6           0      -19.375901   -3.667927    2.699931
     93          1           0      -19.755175   -4.599066    3.826312
     94          7           0      -23.615421   -0.384318   -0.042937
     95          6           0      -24.053590   -1.713952   -0.006889
     96          6           0      -25.467440   -1.796968    0.237605
     97          6           0      -25.912561   -0.454187    0.281040
     98          6           0      -24.709036    0.404185    0.069667
     99          6           0      -26.192212   -3.138989    0.123064
    100          6           0      -27.403259   -0.096867    0.479215
    101          8           0      -28.259475   -0.958138    0.704759
    102          6           0      -27.750197    1.324269    0.327096
    103          7           0      -22.129386    2.285720    0.019397
    104          6           0      -23.444238    2.654592   -0.209903
    105          6           0      -23.640505    4.185824   -0.260066
    106          6           0      -22.141218    4.616678    0.013224
    107          6           0      -21.373823    3.370799    0.056828
    108          6           0      -24.215897    4.813668   -1.490179
    109          6           0      -21.958154    5.403170    1.408340
    110          6           0      -21.109064    6.634652    1.229509
    111          7           0      -19.639627    0.962657   -0.264653
    112          6           0      -19.125732    2.239396   -0.132934
    113          6           0      -17.647895    2.182563   -0.058235
    114          6           0      -17.384342    0.769416   -0.009658
    115          6           0      -18.614671    0.113236   -0.132202
    116          6           0      -16.662158    3.242759    0.223116
    117          6           0      -16.376344   -0.297205    0.169294
    118          8           0      -15.194051   -0.202569    0.405118
    119          6           0      -17.097777   -1.682923    0.135303
    120          6           0      -16.518977   -2.531594   -0.906935
    121          8           0      -15.938306   -3.613476   -0.815464
    122          8           0      -16.474455   -1.751674   -2.092244
    123          6           0      -15.969663   -2.450964   -3.293280
    124          1           0      -23.624171   -3.752434   -0.352101
    125          1           0      -25.485834    2.366432   -0.233694
    126          1           0      -19.556356    4.353218   -0.003621
    127          1           0      -18.869676   -4.057456   -0.741357
    128          1           0      -21.310763   -4.846311    0.369246
    129          1           0      -20.500211   -5.160955   -2.402145
    130          1           0      -21.937171   -4.265330   -2.519352
    131          1           0      -21.807566   -5.854550   -1.612888
    132          1           0      -17.974289   -4.575765    1.287203
    133          1           0      -19.463038   -5.393038    1.390688
    134          1           0      -20.162792   -2.926924    2.555877
    135          1           0      -18.500624   -3.121914    3.050788
    136          1           0      -27.063012   -3.226012    0.773629
    137          1           0      -25.533294   -3.931537    0.476774
    138          1           0      -26.511311   -3.213770   -0.916764
    139          1           0      -27.649818    1.593837   -0.723842
    140          1           0      -27.116689    1.929433    0.976350
    141          1           0      -28.795257    1.391445    0.629346
    142          1           0      -24.160518    4.476085    0.653160
    143          1           0      -21.861981    5.093317   -0.926405
    144          1           0      -24.060350    5.886458   -1.374861
    145          1           0      -25.296015    4.675150   -1.442278
    146          1           0      -23.769800    4.379289   -2.385623
    147          1           0      -21.532166    4.686132    2.109997
    148          1           0      -22.866039    5.671437    1.950077
    149          1           0      -20.160423    6.461391    1.737039
    150          1           0      -21.472257    7.478377    1.817237
    151          1           0      -20.869466    6.767891    0.174747
    152          1           0      -17.068418    4.246365    0.357430
    153          1           0      -16.023849    3.295792   -0.658158
    154          1           0      -16.320953    2.932340    1.210494
    155          1           0      -16.929164   -2.100887    1.127487
    156          1           0      -16.695189   -2.148972   -4.049473
    157          1           0      -15.885835   -3.537483   -3.318337
    158          1           0      -15.077836   -1.890892   -3.575079
 ---------------------------------------------------------------------

 SCF Done:  E(RwB97XD) =  -4070.60007462     A.U. after   20 cycles

 Excitation energies and oscillator strengths:

 Excited State   1:      Singlet-A      1.6577 eV  747.95 nm  f=0.4232  <S**2>=0.000
     309 -> 316        0.16442
     311 -> 314       -0.13202
     312 -> 313        0.67267
     309 <- 316        0.10673
 This state for optimization and/or second-order correction.
 Total Energy, E(TD-HF/TD-DFT) =  -4070.53915661
 Copying the excited state density for this state as the 1-particle RhoCI density.

 Excited State   2:      Singlet-A      1.6617 eV  746.14 nm  f=0.3085  <S**2>=0.000
     310 -> 315        0.18425
     311 -> 314        0.66860
     312 -> 313        0.13273
     310 <- 315        0.11261

 Excited State   3:      Singlet-A      2.1479 eV  577.24 nm  f=0.0855  <S**2>=0.000
     310 -> 314        0.62822
     311 -> 315       -0.30708

 Excited State   4:      Singlet-A      2.1684 eV  571.77 nm  f=0.1047  <S**2>=0.000
     309 -> 313        0.63810
     312 -> 316       -0.28223

 Excited State   5:      Singlet-A      3.4238 eV  362.13 nm  f=0.0592  <S**2>=0.000
     305 -> 314       -0.15954
     307 -> 314        0.62277
     311 -> 315        0.23118

 The electronic state is 1-A.
 Alpha  occ. eigenvalues --  -46.95541 -46.95460 -19.30708 -19.29590 -19.25500
 Alpha  occ. eigenvalues --  -19.24578 -19.24069 -19.23951 -19.23886 -19.22858
 Alpha  occ. eigenvalues --  -14.46852 -14.46796 -14.46657 -14.46474 -14.44941
 Alpha  occ. eigenvalues --  -14.44272 -14.43785 -14.43110 -10.43611 -10.42465
 Alpha  occ. eigenvalues --  -10.39767 -10.39154 -10.39085 -10.37992 -10.36424
 Alpha  occ. eigenvalues --  -10.35854 -10.35698 -10.35412 -10.35220 -10.35134
 Alpha  occ. eigenvalues --  -10.35035 -10.34742 -10.34676 -10.34667 -10.34149
 Alpha  occ. eigenvalues --  -10.34142 -10.34094 -10.33901 -10.33623 -10.33406
 Alpha  occ. eigenvalues --  -10.32956 -10.32807 -10.32699 -10.32625 -10.32580
 Alpha  occ. eigenvalues --  -10.32418 -10.32387 -10.32386 -10.32326 -10.32285
 Alpha  occ. eigenvalues --  -10.32239 -10.32225 -10.32151 -10.32123 -10.32085
 Alpha  occ. eigenvalues --  -10.31829 -10.31821 -10.31730 -10.31713 -10.31661
 Alpha  occ. eigenvalues --  -10.31488 -10.31435 -10.31357 -10.31275 -10.31221
 Alpha  occ. eigenvalues --  -10.31216 -10.31102 -10.31022 -10.30876 -10.30869
 Alpha  occ. eigenvalues --  -10.30837 -10.30752 -10.30642 -10.30632 -10.30568
 Alpha  occ. eigenvalues --  -10.30567 -10.30088 -10.30085 -10.30077 -10.30059
 Alpha  occ. eigenvalues --  -10.29989 -10.29914 -10.29907 -10.29576 -10.29455
 Alpha  occ. eigenvalues --  -10.28352  -3.21553  -3.21430  -1.95130  -1.95002
 Alpha  occ. eigenvalues --   -1.94691  -1.94568  -1.94514  -1.94391  -1.18053
 Alpha  occ. eigenvalues --   -1.16982  -1.14219  -1.12619  -1.11602  -1.10236
 Alpha  occ. eigenvalues --   -1.09122  -1.09032  -1.08571  -1.07070  -1.06662
 Alpha  occ. eigenvalues --   -1.05949  -1.05733  -1.05228  -1.04784  -1.04401
 Alpha  occ. eigenvalues --   -0.94442  -0.94395  -0.91583  -0.91518  -0.91176
 Alpha  occ. eigenvalues --   -0.90588  -0.90105  -0.89894  -0.89570  -0.89216
 Alpha  occ. eigenvalues --   -0.88910  -0.88825  -0.88498  -0.88167  -0.86740
 Alpha  occ. eigenvalues --   -0.86373  -0.86186  -0.85652  -0.84670  -0.84284
 Alpha  occ. eigenvalues --   -0.84152  -0.83719  -0.82806  -0.82802  -0.82254
 Alpha  occ. eigenvalues --   -0.82116  -0.80324  -0.80247  -0.79794  -0.79466
 Alpha  occ. eigenvalues --   -0.78769  -0.78688  -0.78152  -0.77844  -0.77714
 Alpha  occ. eigenvalues --   -0.77419  -0.74641  -0.74618  -0.74192  -0.74134
 Alpha  occ. eigenvalues --   -0.72362  -0.71366  -0.71302  -0.71251  -0.70111
 Alpha  occ. eigenvalues --   -0.70092  -0.69649  -0.68834  -0.68724  -0.68354
 Alpha  occ. eigenvalues --   -0.67277  -0.66910  -0.66836  -0.66523  -0.66435
 Alpha  occ. eigenvalues --   -0.65999  -0.64540  -0.64356  -0.62551  -0.62262
 Alpha  occ. eigenvalues --   -0.61542  -0.61410  -0.61160  -0.60947  -0.60745
 Alpha  occ. eigenvalues --   -0.60284  -0.59967  -0.59520  -0.59207  -0.58944
 Alpha  occ. eigenvalues --   -0.58557  -0.58306  -0.58082  -0.57777  -0.57621
 Alpha  occ. eigenvalues --   -0.57354  -0.57056  -0.56904  -0.56556  -0.56045
 Alpha  occ. eigenvalues --   -0.55805  -0.55519  -0.54904  -0.54872  -0.54660
 Alpha  occ. eigenvalues --   -0.54636  -0.54569  -0.54306  -0.54119  -0.53924
 Alpha  occ. eigenvalues --   -0.53913  -0.53588  -0.53552  -0.53093  -0.53087
 Alpha  occ. eigenvalues --   -0.53054  -0.52758  -0.52505  -0.52388  -0.52378
 Alpha  occ. eigenvalues --   -0.52241  -0.52142  -0.51819  -0.51633  -0.51560
 Alpha  occ. eigenvalues --   -0.51505  -0.51263  -0.51034  -0.50816  -0.50766
 Alpha  occ. eigenvalues --   -0.50576  -0.50509  -0.50217  -0.50197  -0.50107
 Alpha  occ. eigenvalues --   -0.49690  -0.49677  -0.49542  -0.49329  -0.49212
 Alpha  occ. eigenvalues --   -0.48882  -0.48859  -0.48714  -0.48472  -0.48223
 Alpha  occ. eigenvalues --   -0.48178  -0.48152  -0.48136  -0.47785  -0.47668
 Alpha  occ. eigenvalues --   -0.47653  -0.47328  -0.47301  -0.47067  -0.47057
 Alpha  occ. eigenvalues --   -0.46918  -0.46867  -0.46641  -0.46583  -0.46535
 Alpha  occ. eigenvalues --   -0.46322  -0.46224  -0.46106  -0.45910  -0.45871
 Alpha  occ. eigenvalues --   -0.45367  -0.45260  -0.45175  -0.45083  -0.45054
 Alpha  occ. eigenvalues --   -0.44851  -0.44757  -0.44494  -0.44458  -0.44072
 Alpha  occ. eigenvalues --   -0.44052  -0.43967  -0.43809  -0.43787  -0.43683
 Alpha  occ. eigenvalues --   -0.43590  -0.43317  -0.43132  -0.43081  -0.42640
 Alpha  occ. eigenvalues --   -0.42380  -0.41947  -0.41887  -0.41485  -0.41021
 Alpha  occ. eigenvalues --   -0.40547  -0.40442  -0.40198  -0.39971  -0.39587
 Alpha  occ. eigenvalues --   -0.39411  -0.38915  -0.38860  -0.38736  -0.38556
 Alpha  occ. eigenvalues --   -0.38378  -0.37667  -0.37155  -0.36945  -0.36781
 Alpha  occ. eigenvalues --   -0.35778  -0.35580  -0.35302  -0.33946  -0.33560
 Alpha  occ. eigenvalues --   -0.33509  -0.33150  -0.32806  -0.32764  -0.32179
 Alpha  occ. eigenvalues --   -0.31981  -0.31842  -0.31001  -0.26117  -0.26027
 Alpha  occ. eigenvalues --   -0.23031  -0.22957
 Alpha virt. eigenvalues --   -0.07087  -0.07018  -0.00324   0.00164   0.02323
 Alpha virt. eigenvalues --    0.02712   0.04178   0.04551   0.04849   0.05166
 Alpha virt. eigenvalues --    0.06199   0.06997   0.07453   0.08157   0.08677

 Mulliken charges:
               1
     1  Mg   0.966671
     2  C    0.015980
     3  C   -0.089412
     4  C   -0.073364
     5  C   -0.081771
     6  N   -0.340795
     7  C   -0.050240
     8  C   -0.024378
     9  C   -0.146521
    10  C    0.111162
    11  C    0.045233
    12  C    0.022915
    13  C   -0.129989
    14  H    0.028968
    15  N   -0.460512
    16  C    0.119189
    17  C   -0.139330
    18  C   -0.060678
    19  C    0.168513
    20  C    0.086965
    21  C    0.018655
    22  O   -0.211049
    23  C   -0.019600
    24  N   -0.295209
    25  C    0.031281
    26  C   -0.087931
    27  C   -0.051401
    28  C    0.005413
    29  C    0.018791
    30  C   -0.018470
    31  C   -0.065360
    32  N   -0.451079
    33  C    0.151287
    34  C   -0.200810
    35  C   -0.007528
    36  C    0.106059
    37  C    0.098584
    38  C    0.085795
    39  O   -0.226252
    40  C   -0.061201
    41  C    0.241409
    42  O   -0.258084
    43  O   -0.370134
    44  C    0.138507
    45  H    0.002950
    46  H   -0.045546
    47  H   -0.027257
    48  H    0.026003
    49  H    0.042510
    50  H    0.041701
    51  H    0.029843
    52  H    0.040809
    53  H    0.040699
    54  H    0.032311
    55  H    0.057534
    56  H    0.062934
    57  H    0.069764
    58  H    0.019284
    59  H    0.052825
    60  H    0.067191
    61  H    0.060667
    62  H    0.051518
    63  H    0.046679
    64  H    0.041925
    65  H    0.030561
    66  H    0.057230
    67  H    0.038690
    68  H    0.041068
    69  H    0.036522
    70  H    0.040069
    71  H    0.033024
    72  H    0.044194
    73  H    0.043214
    74  H    0.064987
    75  H    0.064711
    76  H    0.078456
    77  H    0.064853
    78  H    0.047298
    79  H    0.060500
    80  Mg   0.956300
    81  C   -0.040611
    82  C   -0.109704
    83  C   -0.099697
    84  C   -0.098492
    85  N   -0.351100
    86  C    0.005493
    87  C   -0.079416
    88  C   -0.050017
    89  C    0.025450
    90  C    0.014891
    91  C   -0.013916
    92  C   -0.131296
    93  H    0.040673
    94  N   -0.438377
    95  C    0.180555
    96  C   -0.147182
    97  C   -0.106969
    98  C    0.207038
    99  C    0.079816
   100  C    0.051237
   101  O   -0.236294
   102  C   -0.010317
   103  N   -0.368771
   104  C    0.022383
   105  C   -0.081699
   106  C   -0.120637
   107  C    0.043120
   108  C    0.052824
   109  C   -0.004579
   110  C   -0.029168
   111  N   -0.430930
   112  C    0.160511
   113  C   -0.200512
   114  C   -0.051346
   115  C    0.127694
   116  C    0.085793
   117  C    0.113355
   118  O   -0.186415
   119  C   -0.041084
   120  C    0.283654
   121  O   -0.239897
   122  O   -0.406707
   123  C    0.140525
   124  H   -0.005318
   125  H   -0.020519
   126  H   -0.017699
   127  H    0.039099
   128  H    0.033419
   129  H    0.033381
   130  H    0.047812
   131  H    0.043651
   132  H    0.053276
   133  H    0.034495
   134  H    0.067861
   135  H    0.053322
   136  H    0.060286
   137  H    0.036813
   138  H    0.064867
   139  H    0.070834
   140  H    0.065172
   141  H    0.051347
   142  H    0.031720
   143  H    0.032434
   144  H    0.042841
   145  H    0.037350
   146  H    0.047637
   147  H    0.039938
   148  H    0.030712
   149  H    0.027363
   150  H    0.038722
   151  H    0.043334
   152  H    0.019155
   153  H    0.066758
   154  H    0.074752
   155  H    0.069312
   156  H    0.037395
   157  H    0.075531
   158  H    0.056766
 Sum of Mulliken charges =  -0.00000

 Dipole moment (field-independent basis, Debye):
    X=             -3.3557    Y=              9.4253    Z=             -5.4280  Tot=             11.3825
 Quadrupole moment (field-independent basis, Debye-Ang):
   XX=           -461.0029   YY=           -509.0046   ZZ=           -496.1363
   XY=             86.1574   XZ=             25.7966   YZ=              8.4588

 Normal termination of Gaussian 16 at Mon Sep 20 07:30:37 2021.
