 Gaussian 16, Revision A.03,
 Gaussian 16:  ES64L-G16RevA.03 25-Dec-2016

 --------------------------------
 #p wB97XD/Def2SVP td=(nstates=5)
 --------------------------------

 --------------------------------
 TDDFT excited states in gaussian
 --------------------------------
 Symbolic Z-matrix:
 Charge =  0 Multiplicity = 1

                         Standard orientation:
 ---------------------------------------------------------------------
 Center     Atomic      Atomic             Coordinates (Angstroms)
 Number     Number       Type             X           Y           Z
 ---------------------------------------------------------------------
      1         12           0       16.292110   -0.580245    0.351770
      2          6           0       15.593251    2.576062   -1.085335
      3          6           0       17.834726    1.031180    2.985269
      4          6           0       17.203531   -3.613327    1.556490
      5          6           0       14.904882   -2.173181   -2.446008
      6          7           0       16.708199    1.558780    0.743506
      7          6           0       16.147382    2.686533    0.148782
      8          6           0       16.513433    4.003951    0.947424
      9          6           0       17.447381    3.453002    2.057699
     10          6           0       17.389693    1.915487    1.915848
     11          6           0       18.940251    3.952595    2.087351
     12          6           0       15.304878    4.928328    1.386313
     13          6           0       15.338716    6.324571    0.842506
     14          1           0       14.820816    7.459694    1.811923
     15          7           0       17.355977   -1.138808    2.002584
     16          6           0       17.862647   -0.359070    3.022408
     17          6           0       18.537942   -1.208561    3.990933
     18          6           0       18.381825   -2.574914    3.622824
     19          6           0       17.590453   -2.501233    2.339853
     20          6           0       19.163265   -0.693295    5.302855
     21          6           0       18.839222   -3.843789    4.335035
     22          8           0       18.566400   -4.965417    3.959678
     23          6           0       19.632028   -3.859273    5.705875
     24          7           0       16.160853   -2.623858   -0.409772
     25          6           0       16.602631   -3.672884    0.271593
     26          6           0       16.311514   -5.024412   -0.473212
     27          6           0       15.394223   -4.559322   -1.672587
     28          6           0       15.454497   -3.010864   -1.505466
     29          6           0       17.619261   -5.795515   -0.814746
     30          6           0       14.014118   -5.183559   -1.612830
     31          6           0       13.481189   -5.648632   -2.966869
     32          7           0       15.529008   -0.026176   -1.505648
     33          6           0       14.913528   -0.760750   -2.501006
     34          6           0       14.565766    0.149397   -3.548480
     35          6           0       14.757880    1.463205   -3.053781
     36          6           0       15.367349    1.330206   -1.775019
     37          6           0       14.009645   -0.216874   -4.872095
     38          6           0       14.533537    2.892031   -3.334534
     39          8           0       14.158685    3.496277   -4.335169
     40          6           0       15.087788    3.688893   -1.921214
     41          6           0       16.103348    4.633334   -2.268432
     42          8           0       17.288888    4.474411   -2.073476
     43          8           0       15.545198    5.803652   -2.730812
     44          6           0       16.564526    6.794436   -3.157449
     45          1           0       18.221504    1.496844    3.894331
     46          1           0       17.513076   -4.611350    1.871998
     47          1           0       14.414433   -2.748027   -3.235164
     48          1           0       17.212211    4.523620    0.292753
     49          1           0       17.048120    3.683946    3.045345
     50          1           0       19.195743    4.103680    3.136623
     51          1           0       19.006232    4.874522    1.510119
     52          1           0       19.658307    3.249490    1.664820
     53          1           0       15.301891    4.913895    2.476302
     54          1           0       14.398908    4.464266    0.996113
     55          1           0       14.714680    6.386179   -0.050025
     56          1           0       16.385948    6.466331    0.576964
     57          1           0       18.538465   -1.107995    6.093102
     58          1           0       19.004146    0.383083    5.371816
     59          1           0       20.194073   -0.996573    5.490211
     60          1           0       19.038157   -3.316132    6.441797
     61          1           0       20.688876   -3.619052    5.586107
     62          1           0       19.768078   -4.917687    5.925999
     63          1           0       15.698521   -5.715745    0.104713
     64          1           0       15.944997   -4.808185   -2.579893
     65          1           0       17.593165   -6.061713   -1.871802
     66          1           0       17.798544   -6.652785   -0.165372
     67          1           0       18.477931   -5.144403   -0.659316
     68          1           0       13.280078   -4.516227   -1.162408
     69          1           0       13.937803   -6.037594   -0.938060
     70          1           0       14.109241   -5.296068   -3.785072
     71          1           0       12.496617   -5.193493   -3.078024
     72          1           0       13.297508   -6.722761   -2.996134
     73          1           0       13.867328   -1.277246   -5.080331
     74          1           0       14.548069    0.387943   -5.602746
     75          1           0       12.956635    0.045954   -4.768348
     76          1           0       14.248657    4.206217   -1.455224
     77          1           0       17.175540    6.375207   -3.957136
     78          1           0       17.107196    7.074245   -2.254537
     79          1           0       16.127313    7.697355   -3.581904
     80         12           0      -15.945417   -0.749946    0.102445
     81          6           0      -17.916324    1.881911    1.241769
     82          6           0      -13.570712    1.430231   -0.876856
     83          6           0      -14.323593   -3.323415   -1.371468
     84          6           0      -18.614636   -2.854480    0.682099
     85          7           0      -15.804048    1.460438    0.177111
     86          6           0      -16.636422    2.297255    0.875999
     87          6           0      -16.095890    3.676571    0.881056
     88          6           0      -14.737811    3.614474    0.172443
     89          6           0      -14.629974    2.076268   -0.212569
     90          6           0      -14.465245    4.565871   -0.982313
     91          6           0      -16.030526    4.286463    2.394284
     92          6           0      -16.878152    5.543655    2.699666
     93          1           0      -16.336443    6.649042    3.572346
     94          7           0      -14.142160   -0.947123   -0.864830
     95          6           0      -13.284153    0.089439   -1.200396
     96          6           0      -12.179230   -0.423936   -1.925263
     97          6           0      -12.372999   -1.822031   -2.091954
     98          6           0      -13.644764   -2.089012   -1.412275
     99          6           0      -10.986784    0.553590   -2.264314
    100          6           0      -11.458113   -2.750406   -2.888806
    101          8           0      -11.665952   -3.954643   -3.101007
    102          6           0      -10.180557   -2.245188   -3.398837
    103          7           0      -16.454717   -2.772442   -0.537774
    104          6           0      -15.603230   -3.659104   -1.010264
    105          6           0      -16.305761   -5.006545   -1.291294
    106          6           0      -17.427470   -4.890312   -0.185361
    107          6           0      -17.505963   -3.383534    0.038946
    108          6           0      -16.944765   -5.301905   -2.698669
    109          6           0      -17.181777   -5.683079    1.186711
    110          6           0      -15.983777   -5.349880    1.977814
    111          7           0      -17.975259   -0.606706    0.791456
    112          6           0      -18.967901   -1.585592    0.993546
    113          6           0      -20.147430   -0.964239    1.505801
    114          6           0      -19.833129    0.378931    1.563598
    115          6           0      -18.450994    0.530201    1.215136
    116          6           0      -21.456687   -1.574366    1.633399
    117          6           0      -20.273839    1.599731    2.052310
    118          8           0      -21.349164    1.945211    2.552668
    119          6           0      -19.121038    2.673650    1.794017
    120          6           0      -19.647773    3.570115    0.722589
    121          8           0      -20.014265    3.345519   -0.411863
    122          8           0      -19.685958    4.783138    1.276830
    123          6           0      -20.157219    5.896784    0.389926
    124          1           0      -12.793778    2.195011   -0.939214
    125          1           0      -13.695857   -4.145641   -1.719238
    126          1           0      -19.426799   -3.543750    0.921540
    127          1           0      -16.808941    4.255048    0.294981
    128          1           0      -13.949770    3.782411    0.906201
    129          1           0      -14.758014    3.876602   -1.773456
    130          1           0      -13.452426    4.965226   -1.038271
    131          1           0      -15.070991    5.464314   -1.097348
    132          1           0      -14.988634    4.482602    2.645714
    133          1           0      -16.431514    3.615115    3.154043
    134          1           0      -17.739909    5.191419    3.267329
    135          1           0      -17.312239    5.973530    1.797940
    136          1           0      -10.781685    0.487694   -3.332646
    137          1           0      -10.216273    0.008400   -1.719035
    138          1           0      -11.128223    1.621599   -2.098325
    139          1           0      -10.331253   -1.383935   -4.048232
    140          1           0       -9.852526   -2.977313   -4.136352
    141          1           0       -9.403492   -2.100307   -2.647877
    142          1           0      -15.672502   -5.806016   -0.906418
    143          1           0      -18.302049   -5.329328   -0.664849
    144          1           0      -17.460481   -4.465737   -3.169324
    145          1           0      -17.615903   -6.132415   -2.476806
    146          1           0      -16.182465   -5.625413   -3.407924
    147          1           0      -17.096012   -6.761599    1.052027
    148          1           0      -17.914877   -5.399413    1.941771
    149          1           0      -16.287994   -4.454318    2.517775
    150          1           0      -15.055618   -5.101567    1.462168
    151          1           0      -15.656496   -6.050289    2.745496
    152          1           0      -21.870936   -1.500274    0.627203
    153          1           0      -22.135163   -1.087528    2.333347
    154          1           0      -21.425539   -2.588983    2.032001
    155          1           0      -18.797877    3.188117    2.699061
    156          1           0      -19.249228    6.450169    0.149263
    157          1           0      -20.904166    6.492452    0.914176
    158          1           0      -20.588690    5.622756   -0.573213
 ---------------------------------------------------------------------

 SCF Done:  E(RwB97XD) =  -4070.58747226     A.U. after   19 cycles

 Excitation energies and oscillator strengths:

 Excited State   1:      Singlet-A      1.6464 eV  753.08 nm  f=0.3747  <S**2>=0.000
     310 -> 316        0.18130
     311 -> 313        0.68361
     310 <- 316        0.11553
 This state for optimization and/or second-order correction.
 Total Energy, E(TD-HF/TD-DFT) =  -4070.52696974
 Copying the excited state density for this state as the 1-particle RhoCI density.

 Excited State   2:      Singlet-A      1.7611 eV  704.01 nm  f=0.3714  <S**2>=0.000
     309 -> 315        0.17856
     312 -> 314        0.68332
     309 <- 315        0.10771

 Excited State   3:      Singlet-A      2.1205 eV  584.68 nm  f=0.1332  <S**2>=0.000
     310 -> 313        0.64944
     311 -> 316       -0.26630

 Excited State   4:      Singlet-A      2.2096 eV  561.11 nm  f=0.1123  <S**2>=0.000
     309 -> 314        0.63741
     312 -> 315       -0.28425

 Excited State   5:      Singlet-A      3.4494 eV  359.44 nm  f=0.0260  <S**2>=0.000
     303 -> 314       -0.29802
     308 -> 314        0.60821

 The electronic state is 1-A.
 Alpha  occ. eigenvalues --  -46.95681 -46.94622 -19.30279 -19.29526 -19.25000
 Alpha  occ. eigenvalues --  -19.24398 -19.24119 -19.24032 -19.23700 -19.23317
 Alpha  occ. eigenvalues --  -14.46939 -14.46586 -14.46423 -14.46378 -14.45052
 Alpha  occ. eigenvalues --  -14.44317 -14.43583 -14.43314 -10.42457 -10.42111
 Alpha  occ. eigenvalues --  -10.40491 -10.40008 -10.39039 -10.38202 -10.36708
 Alpha  occ. eigenvalues --  -10.36210 -10.35475 -10.35473 -10.35399 -10.35324
 Alpha  occ. eigenvalues --  -10.35239 -10.35001 -10.34633 -10.34500 -10.34305
 Alpha  occ. eigenvalues --  -10.34188 -10.34106 -10.33821 -10.33785 -10.33127
 Alpha  occ. eigenvalues --  -10.33117 -10.33004 -10.32811 -10.32710 -10.32627
 Alpha  occ. eigenvalues --  -10.32612 -10.32577 -10.32424 -10.32297 -10.32291
 Alpha  occ. eigenvalues --  -10.32130 -10.32050 -10.32010 -10.31957 -10.31947
 Alpha  occ. eigenvalues --  -10.31897 -10.31852 -10.31702 -10.31681 -10.31605
 Alpha  occ. eigenvalues --  -10.31550 -10.31474 -10.31466 -10.31433 -10.31207
 Alpha  occ. eigenvalues --  -10.31197 -10.30922 -10.30737 -10.30691 -10.30632
 Alpha  occ. eigenvalues --  -10.30535 -10.30341 -10.30328 -10.30324 -10.30169
 Alpha  occ. eigenvalues --  -10.30114 -10.29934 -10.29914 -10.29856 -10.29719
 Alpha  occ. eigenvalues --  -10.29448 -10.29118 -10.28956 -10.28882 -10.28708
 Alpha  occ. eigenvalues --  -10.28553  -3.21546  -3.20587  -1.95135  -1.94643
 Alpha  occ. eigenvalues --   -1.94530  -1.94184  -1.93702  -1.93566  -1.19196
 Alpha  occ. eigenvalues --   -1.17996  -1.13831  -1.11476  -1.11336  -1.10828
 Alpha  occ. eigenvalues --   -1.09596  -1.09564  -1.07436  -1.06310  -1.06121
 Alpha  occ. eigenvalues --   -1.05406  -1.04662  -1.04581  -1.04002  -1.02980
 Alpha  occ. eigenvalues --   -0.94203  -0.93795  -0.91129  -0.91023  -0.90622
 Alpha  occ. eigenvalues --   -0.90335  -0.90322  -0.90049  -0.89891  -0.89531
 Alpha  occ. eigenvalues --   -0.89298  -0.88861  -0.88811  -0.87511  -0.86572
 Alpha  occ. eigenvalues --   -0.86319  -0.86158  -0.85538  -0.84994  -0.84453
 Alpha  occ. eigenvalues --   -0.83938  -0.83518  -0.83035  -0.82705  -0.82699
 Alpha  occ. eigenvalues --   -0.82092  -0.80718  -0.80488  -0.79602  -0.79314
 Alpha  occ. eigenvalues --   -0.78866  -0.78394  -0.77899  -0.77695  -0.77300
 Alpha  occ. eigenvalues --   -0.76717  -0.75485  -0.74251  -0.73667  -0.73327
 Alpha  occ. eigenvalues --   -0.71346  -0.71132  -0.71048  -0.70776  -0.69736
 Alpha  occ. eigenvalues --   -0.69467  -0.69188  -0.69173  -0.67734  -0.67566
 Alpha  occ. eigenvalues --   -0.67384  -0.66783  -0.66782  -0.66642  -0.66387
 Alpha  occ. eigenvalues --   -0.65962  -0.64055  -0.63164  -0.62431  -0.62126
 Alpha  occ. eigenvalues --   -0.61919  -0.61314  -0.61193  -0.60809  -0.60603
 Alpha  occ. eigenvalues --   -0.60255  -0.59981  -0.59897  -0.59788  -0.59046
 Alpha  occ. eigenvalues --   -0.58425  -0.57983  -0.57703  -0.57700  -0.57482
 Alpha  occ. eigenvalues --   -0.56998  -0.56776  -0.56753  -0.56650  -0.56169
 Alpha  occ. eigenvalues --   -0.55654  -0.55300  -0.55271  -0.55204  -0.55171
 Alpha  occ. eigenvalues --   -0.54988  -0.54950  -0.54650  -0.54536  -0.54143
 Alpha  occ. eigenvalues --   -0.54087  -0.53852  -0.53653  -0.53352  -0.53127
 Alpha  occ. eigenvalues --   -0.53078  -0.53024  -0.52813  -0.52540  -0.52331
 Alpha  occ. eigenvalues --   -0.52082  -0.51732  -0.51665  -0.51558  -0.51490
 Alpha  occ. eigenvalues --   -0.51393  -0.51390  -0.51136  -0.50964  -0.50670
 Alpha  occ. eigenvalues --   -0.50599  -0.50445  -0.50282  -0.50032  -0.50000
 Alpha  occ. eigenvalues --   -0.49948  -0.49713  -0.49511  -0.49315  -0.49104
 Alpha  occ. eigenvalues --   -0.48768  -0.48727  -0.48616  -0.48371  -0.48182
 Alpha  occ. eigenvalues --   -0.48161  -0.47953  -0.47919  -0.47762  -0.47502
 Alpha  occ. eigenvalues --   -0.47181  -0.47135  -0.46790  -0.46694  -0.46567
 Alpha  occ. eigenvalues --   -0.46450  -0.46398  -0.46086  -0.46037  -0.46000
 Alpha  occ. eigenvalues --   -0.45913  -0.45627  -0.45514  -0.45299  -0.45226
 Alpha  occ. eigenvalues --   -0.45193  -0.45150  -0.45016  -0.44933  -0.44470
 Alpha  occ. eigenvalues --   -0.44337  -0.44227  -0.44147  -0.44065  -0.43929
 Alpha  occ. eigenvalues --   -0.43749  -0.43619  -0.43443  -0.43170  -0.43015
 Alpha  occ. eigenvalues --   -0.42842  -0.42649  -0.42501  -0.42237  -0.42091
 Alpha  occ. eigenvalues --   -0.41975  -0.41600  -0.41410  -0.41350  -0.40855
 Alpha  occ. eigenvalues --   -0.40636  -0.40042  -0.39982  -0.39689  -0.39643
 Alpha  occ. eigenvalues --   -0.39242  -0.39088  -0.38934  -0.38434  -0.38263
 Alpha  occ. eigenvalues --   -0.38054  -0.37877  -0.36478  -0.36256  -0.36203
 Alpha  occ. eigenvalues --   -0.35818  -0.35750  -0.35368  -0.33951  -0.33691
 Alpha  occ. eigenvalues --   -0.33528  -0.32973  -0.32918  -0.32713  -0.32514
 Alpha  occ. eigenvalues --   -0.32219  -0.32155  -0.30788  -0.26055  -0.25936
 Alpha  occ. eigenvalues --   -0.23261  -0.23191
 Alpha virt. eigenvalues --   -0.07347  -0.06873   0.00115   0.00283   0.02057
 Alpha virt. eigenvalues --    0.02328   0.04175   0.04347   0.05293   0.05977
 Alpha virt. eigenvalues --    0.06881   0.07741   0.07871   0.08177   0.08616

 Mulliken charges:
               1
     1  Mg   0.955378
     2  C    0.013477
     3  C   -0.100429
     4  C   -0.065536
     5  C   -0.066946
     6  N   -0.380883
     7  C   -0.011731
     8  C   -0.052171
     9  C   -0.156828
    10  C    0.113174
    11  C    0.022933
    12  C    0.049731
    13  C   -0.135382
    14  H    0.029557
    15  N   -0.509960
    16  C    0.184524
    17  C   -0.168059
    18  C   -0.051426
    19  C    0.184718
    20  C    0.065896
    21  C    0.037476
    22  O   -0.218167
    23  C   -0.019153
    24  N   -0.318040
    25  C    0.037660
    26  C   -0.121275
    27  C   -0.060473
    28  C    0.021247
    29  C    0.018064
    30  C    0.000700
    31  C   -0.057000
    32  N   -0.463927
    33  C    0.166468
    34  C   -0.208666
    35  C   -0.042126
    36  C    0.161454
    37  C    0.091221
    38  C    0.152255
    39  O   -0.199127
    40  C   -0.162514
    41  C    0.269483
    42  O   -0.250471
    43  O   -0.372376
    44  C    0.150458
    45  H   -0.008633
    46  H    0.020450
    47  H   -0.018291
    48  H    0.051740
    49  H    0.032765
    50  H    0.036906
    51  H    0.043471
    52  H    0.050827
    53  H    0.038824
    54  H    0.034406
    55  H    0.066000
    56  H    0.050658
    57  H    0.052518
    58  H    0.034070
    59  H    0.066456
    60  H    0.061632
    61  H    0.055677
    62  H    0.047424
    63  H    0.040354
    64  H    0.034427
    65  H    0.035256
    66  H    0.050636
    67  H    0.041500
    68  H    0.030890
    69  H    0.027978
    70  H    0.041085
    71  H    0.031037
    72  H    0.041277
    73  H    0.019075
    74  H    0.070186
    75  H    0.044746
    76  H    0.079786
    77  H    0.060125
    78  H    0.049472
    79  H    0.052064
    80  Mg   0.939087
    81  C   -0.014566
    82  C   -0.073849
    83  C   -0.062234
    84  C   -0.108234
    85  N   -0.378622
    86  C    0.014437
    87  C   -0.066741
    88  C   -0.052587
    89  C   -0.019088
    90  C    0.003397
    91  C    0.003963
    92  C   -0.135746
    93  H    0.038425
    94  N   -0.463799
    95  C    0.198368
    96  C   -0.182587
    97  C   -0.073546
    98  C    0.131315
    99  C    0.082981
   100  C    0.052647
   101  O   -0.248064
   102  C   -0.009931
   103  N   -0.296420
   104  C    0.020348
   105  C   -0.042682
   106  C   -0.112630
   107  C    0.095874
   108  C    0.041917
   109  C    0.013773
   110  C   -0.088486
   111  N   -0.408900
   112  C    0.114888
   113  C   -0.133374
   114  C    0.022728
   115  C    0.108293
   116  C    0.062414
   117  C    0.079719
   118  O   -0.226714
   119  C   -0.091618
   120  C    0.269262
   121  O   -0.244530
   122  O   -0.346872
   123  C    0.120606
   124  H   -0.007280
   125  H    0.014673
   126  H   -0.002431
   127  H    0.047200
   128  H    0.033940
   129  H    0.048116
   130  H    0.042065
   131  H    0.040882
   132  H    0.041739
   133  H    0.042479
   134  H    0.057906
   135  H    0.038104
   136  H    0.038055
   137  H    0.060545
   138  H    0.052965
   139  H    0.039126
   140  H    0.045940
   141  H    0.075396
   142  H    0.019709
   143  H    0.023006
   144  H    0.050131
   145  H    0.040543
   146  H    0.051596
   147  H    0.036049
   148  H    0.028671
   149  H    0.022178
   150  H    0.034885
   151  H    0.039514
   152  H    0.074334
   153  H    0.055784
   154  H    0.035959
   155  H    0.056700
   156  H    0.046853
   157  H    0.068336
   158  H    0.073712
 Sum of Mulliken charges =  -0.00000

 Dipole moment (field-independent basis, Debye):
    X=              4.7528    Y=             -0.2050    Z=              5.2477  Tot=              7.0831
 Quadrupole moment (field-independent basis, Debye-Ang):
   XX=           -600.2127   YY=           -478.1932   ZZ=           -510.0991
   XY=              4.7634   XZ=             85.4029   YZ=              8.0693

 Normal termination of Gaussian 16 at Mon Sep 20 12:46:31 2021.
