 Gaussian 16, Revision A.03,
 Gaussian 16:  ES64L-G16RevA.03 25-Dec-2016

 --------------------------------
 #p wB97XD/Def2SVP td=(nstates=5)
 --------------------------------

 --------------------------------
 TDDFT excited states in gaussian
 --------------------------------
 Symbolic Z-matrix:
 Charge =  0 Multiplicity = 1

                         Standard orientation:
 ---------------------------------------------------------------------
 Center     Atomic      Atomic             Coordinates (Angstroms)
 Number     Number       Type             X           Y           Z
 ---------------------------------------------------------------------
      1         12           0      -26.049105    0.319972    0.078942
      2          6           0      -23.881090   -2.276077    0.466550
      3          6           0      -23.291726    2.369319   -0.396754
      4          6           0      -28.191949    2.791159   -0.678719
      5          6           0      -28.744925   -1.935769   -0.094125
      6          7           0      -23.834126    0.004565   -0.214936
      7          6           0      -23.220839   -1.167019    0.047067
      8          6           0      -21.758233   -1.112874   -0.204391
      9          6           0      -21.544558    0.523604   -0.110659
     10          6           0      -22.991749    1.041325   -0.248968
     11          6           0      -20.807292    0.963706    1.188472
     12          6           0      -21.454957   -1.660329   -1.590059
     13          6           0      -22.192186   -1.026604   -2.859162
     14          1           0      -21.431568   -0.801719   -4.160040
     15          7           0      -25.793130    2.293363   -0.461151
     16          6           0      -24.567937    3.006852   -0.471879
     17          6           0      -24.890023    4.386450   -0.623935
     18          6           0      -26.262126    4.557669   -0.759446
     19          6           0      -26.850672    3.217307   -0.599380
     20          6           0      -23.751345    5.385997   -0.634315
     21          6           0      -27.003636    5.833049   -1.081618
     22          8           0      -26.288184    6.854986   -1.229909
     23          6           0      -28.380833    5.937790   -1.430032
     24          7           0      -28.145977    0.355518   -0.541634
     25          6           0      -28.803841    1.534669   -0.734314
     26          6           0      -30.302894    1.297873   -1.036751
     27          6           0      -30.448205   -0.248751   -0.839705
     28          6           0      -29.015776   -0.660503   -0.544736
     29          6           0      -31.231552    2.124152   -0.172800
     30          6           0      -31.079148   -0.951143   -2.157314
     31          6           0      -32.122381   -2.031686   -1.850604
     32          7           0      -26.355517   -1.755428    0.170245
     33          6           0      -27.476769   -2.512164    0.291839
     34          6           0      -27.055314   -3.817667    0.721853
     35          6           0      -25.624580   -3.822456    0.864928
     36          6           0      -25.259831   -2.540882    0.486805
     37          6           0      -27.913647   -5.035926    0.741273
     38          6           0      -24.432501   -4.563504    1.125386
     39          8           0      -24.408133   -5.748304    1.481773
     40          6           0      -23.286027   -3.591822    0.914903
     41          6           0      -22.512960   -3.493422    2.176837
     42          8           0      -22.040204   -4.502028    2.662827
     43          8           0      -22.332536   -2.223923    2.634437
     44          6           0      -21.550861   -2.112192    3.867489
     45          1           0      -22.446531    3.049036   -0.270853
     46          1           0      -28.884860    3.634902   -0.687903
     47          1           0      -29.543471   -2.667855    0.045408
     48          1           0      -21.098682   -1.655375    0.473021
     49          1           0      -20.832107    0.865857   -0.862372
     50          1           0      -19.896379    1.504471    0.934354
     51          1           0      -20.516889    0.051184    1.709794
     52          1           0      -21.410213    1.558939    1.875476
     53          1           0      -21.585163   -2.741544   -1.539618
     54          1           0      -20.366861   -1.605711   -1.622007
     55          1           0      -22.635365   -0.042483   -2.706278
     56          1           0      -22.933643   -1.792667   -3.084200
     57          1           0      -23.396405    5.407980   -1.664844
     58          1           0      -22.945330    5.008422   -0.006368
     59          1           0      -23.989654    6.396053   -0.299657
     60          1           0      -28.565648    6.774065   -2.105002
     61          1           0      -29.052135    5.911929   -0.570702
     62          1           0      -28.566911    5.078719   -2.073176
     63          1           0      -30.385045    1.565126   -2.090862
     64          1           0      -31.005833   -0.445769    0.075699
     65          1           0      -30.720312    2.844477    0.465286
     66          1           0      -32.022956    1.658311    0.413754
     67          1           0      -31.681974    2.802671   -0.897842
     68          1           0      -30.339048   -1.425329   -2.801993
     69          1           0      -31.519187   -0.222826   -2.838273
     70          1           0      -33.103646   -1.635463   -2.110393
     71          1           0      -32.143819   -2.186510   -0.771659
     72          1           0      -31.947352   -2.959576   -2.395330
     73          1           0      -28.703226   -5.084116    1.490200
     74          1           0      -27.220769   -5.868792    0.866885
     75          1           0      -28.451746   -5.173701   -0.196642
     76          1           0      -22.655994   -4.031356    0.141068
     77          1           0      -20.579714   -2.574309    3.687923
     78          1           0      -22.055994   -2.525588    4.740588
     79          1           0      -21.477720   -1.071430    4.182689
     80         12           0       25.682489   -0.333731   -0.671452
     81          6           0       24.782427    1.631144    2.183464
     82          6           0       25.931483   -3.089313    1.362922
     83          6           0       26.982097   -2.157176   -3.200065
     84          6           0       26.318261    2.699059   -2.356485
     85          7           0       25.374137   -0.658157    1.507181
     86          6           0       24.941752    0.244375    2.491585
     87          6           0       24.751739   -0.496415    3.790359
     88          6           0       25.616426   -1.807318    3.562491
     89          6           0       25.709319   -1.841177    2.008636
     90          6           0       27.011374   -1.590928    4.250352
     91          6           0       23.250795   -0.692208    4.205295
     92          6           0       23.074811   -0.413419    5.612631
     93          1           0       21.545321   -0.230716    6.083806
     94          7           0       26.176521   -2.402906   -0.844867
     95          6           0       26.173188   -3.361554    0.089092
     96          6           0       26.478231   -4.618495   -0.522347
     97          6           0       26.807624   -4.389323   -1.841761
     98          6           0       26.611308   -2.883398   -2.068892
     99          6           0       26.619667   -5.934085    0.307304
    100          6           0       27.179122   -5.405512   -2.941194
    101          8           0       27.470324   -5.000507   -4.038068
    102          6           0       27.092404   -6.891129   -2.682116
    103          7           0       26.782930    0.251258   -2.412682
    104          6           0       27.082957   -0.730402   -3.350730
    105          6           0       27.432964   -0.116687   -4.667268
    106          6           0       27.200185    1.451825   -4.411212
    107          6           0       26.673745    1.487117   -2.995794
    108          6           0       28.789075   -0.503425   -5.152721
    109          6           0       26.236813    2.247035   -5.452649
    110          6           0       26.819756    3.361426   -6.228312
    111          7           0       25.545476    1.759304   -0.259312
    112          6           0       25.851238    2.833444   -1.064275
    113          6           0       25.489258    4.105526   -0.300328
    114          6           0       24.959332    3.679787    0.934240
    115          6           0       25.064673    2.244706    0.930692
    116          6           0       25.714244    5.529752   -0.826158
    117          6           0       24.518995    4.180642    2.201015
    118          8           0       24.343713    5.356949    2.591379
    119          6           0       24.543448    2.897068    3.128441
    120          6           0       23.217021    2.953139    3.944378
    121          8           0       22.242367    2.248610    3.623547
    122          8           0       23.370425    3.768457    5.016521
    123          6           0       22.029357    3.966808    5.666364
    124          1           0       25.798156   -4.004134    1.944742
    125          1           0       27.386607   -2.728112   -4.039230
    126          1           0       26.388343    3.681928   -2.826859
    127          1           0       25.287001    0.084268    4.541285
    128          1           0       25.141775   -2.685317    3.999141
    129          1           0       27.664763   -0.909023    3.706684
    130          1           0       27.482094   -2.561675    4.399914
    131          1           0       26.849523   -1.180511    5.247349
    132          1           0       23.055230   -1.762801    4.140062
    133          1           0       22.570791   -0.148563    3.549010
    134          1           0       23.469286    0.569420    5.871099
    135          1           0       23.538986   -1.229414    6.167070
    136          1           0       25.923897   -6.609326   -0.190667
    137          1           0       26.316536   -5.853845    1.351118
    138          1           0       27.658108   -6.265046    0.301884
    139          1           0       27.470316   -7.451421   -3.537382
    140          1           0       26.009385   -6.930708   -2.565888
    141          1           0       27.651626   -7.108862   -1.772237
    142          1           0       26.656551   -0.509967   -5.323747
    143          1           0       28.181367    1.922678   -4.466532
    144          1           0       28.594713   -1.154091   -6.004398
    145          1           0       29.330007   -1.134918   -4.448108
    146          1           0       29.447023    0.323923   -5.419602
    147          1           0       25.509606    2.702781   -4.780718
    148          1           0       25.725120    1.503011   -6.061681
    149          1           0       26.341933    4.308243   -5.978015
    150          1           0       26.439116    3.045907   -7.199133
    151          1           0       27.910369    3.349262   -6.247818
    152          1           0       26.684851    5.835302   -0.437046
    153          1           0       24.949130    6.227027   -0.484957
    154          1           0       25.658458    5.517666   -1.914689
    155          1           0       25.421394    3.062623    3.751367
    156          1           0       21.348553    4.621953    5.123111
    157          1           0       22.069064    4.327529    6.693666
    158          1           0       21.605798    2.967349    5.767290
 ---------------------------------------------------------------------

 SCF Done:  E(RwB97XD) =  -4070.57744311     A.U. after   19 cycles

 Excitation energies and oscillator strengths:

 Excited State   1:      Singlet-A      1.6769 eV  739.37 nm  f=0.3384  <S**2>=0.000
     310 -> 315        0.19184
     312 -> 314        0.68003
     310 <- 315        0.11544
 This state for optimization and/or second-order correction.
 Total Energy, E(TD-HF/TD-DFT) =  -4070.51581881
 Copying the excited state density for this state as the 1-particle RhoCI density.

 Excited State   2:      Singlet-A      1.6885 eV  734.28 nm  f=0.4057  <S**2>=0.000
     309 -> 316       -0.18191
     311 -> 313        0.68296
     309 <- 316       -0.11272

 Excited State   3:      Singlet-A      2.1633 eV  573.13 nm  f=0.1261  <S**2>=0.000
     309 -> 313        0.64778
     311 -> 316        0.25634

 Excited State   4:      Singlet-A      2.2164 eV  559.39 nm  f=0.0062  <S**2>=0.000
     310 -> 314        0.55056
     312 -> 315       -0.43362

 Excited State   5:      Singlet-A      3.2087 eV  386.40 nm  f=0.0008  <S**2>=0.000
     305 -> 313       -0.33703
     308 -> 313        0.59921

 The electronic state is 1-A.
 Alpha  occ. eigenvalues --  -46.95758 -46.95466 -19.31587 -19.31355 -19.24693
 Alpha  occ. eigenvalues --  -19.24528 -19.24414 -19.23765 -19.23307 -19.23235
 Alpha  occ. eigenvalues --  -14.46868 -14.46669 -14.46653 -14.46473 -14.44445
 Alpha  occ. eigenvalues --  -14.43968 -14.43714 -14.43170 -10.43558 -10.43292
 Alpha  occ. eigenvalues --  -10.39658 -10.38886 -10.38815 -10.38434 -10.36480
 Alpha  occ. eigenvalues --  -10.35739 -10.35434 -10.35390 -10.35342 -10.35334
 Alpha  occ. eigenvalues --  -10.35268 -10.35233 -10.34931 -10.34499 -10.34476
 Alpha  occ. eigenvalues --  -10.34429 -10.34180 -10.33163 -10.33111 -10.33043
 Alpha  occ. eigenvalues --  -10.33028 -10.32997 -10.32962 -10.32764 -10.32591
 Alpha  occ. eigenvalues --  -10.32591 -10.32506 -10.32454 -10.32435 -10.32417
 Alpha  occ. eigenvalues --  -10.32216 -10.32166 -10.32163 -10.32089 -10.32037
 Alpha  occ. eigenvalues --  -10.32033 -10.31958 -10.31808 -10.31524 -10.31439
 Alpha  occ. eigenvalues --  -10.31423 -10.31384 -10.31368 -10.31263 -10.31186
 Alpha  occ. eigenvalues --  -10.31029 -10.30930 -10.30827 -10.30778 -10.30491
 Alpha  occ. eigenvalues --  -10.30424 -10.30372 -10.30341 -10.30340 -10.30212
 Alpha  occ. eigenvalues --  -10.30110 -10.29777 -10.29770 -10.29516 -10.29422
 Alpha  occ. eigenvalues --  -10.29207 -10.29000 -10.28911 -10.28812 -10.28801
 Alpha  occ. eigenvalues --  -10.28552  -3.21561  -3.21371  -1.95141  -1.94932
 Alpha  occ. eigenvalues --   -1.94666  -1.94527  -1.94510  -1.94322  -1.19574
 Alpha  occ. eigenvalues --   -1.18200  -1.13976  -1.11233  -1.10632  -1.10199
 Alpha  occ. eigenvalues --   -1.10036  -1.09291  -1.06980  -1.06542  -1.06118
 Alpha  occ. eigenvalues --   -1.05055  -1.04739  -1.04673  -1.03598  -1.03413
 Alpha  occ. eigenvalues --   -0.96046  -0.93153  -0.91237  -0.90909  -0.90843
 Alpha  occ. eigenvalues --   -0.90631  -0.90586  -0.90029  -0.89708  -0.89484
 Alpha  occ. eigenvalues --   -0.89147  -0.88339  -0.87779  -0.87366  -0.87017
 Alpha  occ. eigenvalues --   -0.86270  -0.86007  -0.85653  -0.85288  -0.84700
 Alpha  occ. eigenvalues --   -0.84542  -0.84452  -0.83390  -0.82853  -0.82617
 Alpha  occ. eigenvalues --   -0.82366  -0.80568  -0.80197  -0.79969  -0.79453
 Alpha  occ. eigenvalues --   -0.78971  -0.78430  -0.78056  -0.77371  -0.76929
 Alpha  occ. eigenvalues --   -0.76864  -0.74476  -0.74138  -0.74114  -0.73400
 Alpha  occ. eigenvalues --   -0.72077  -0.71074  -0.70788  -0.70787  -0.69768
 Alpha  occ. eigenvalues --   -0.69399  -0.69165  -0.68479  -0.68303  -0.67344
 Alpha  occ. eigenvalues --   -0.67204  -0.67001  -0.66878  -0.66416  -0.66359
 Alpha  occ. eigenvalues --   -0.66272  -0.65803  -0.64025  -0.62221  -0.61942
 Alpha  occ. eigenvalues --   -0.61706  -0.61332  -0.61057  -0.60729  -0.60420
 Alpha  occ. eigenvalues --   -0.60375  -0.60200  -0.60027  -0.59371  -0.59017
 Alpha  occ. eigenvalues --   -0.58743  -0.58576  -0.57981  -0.57772  -0.57436
 Alpha  occ. eigenvalues --   -0.57091  -0.57023  -0.56465  -0.56241  -0.56213
 Alpha  occ. eigenvalues --   -0.55945  -0.55892  -0.55698  -0.55463  -0.55441
 Alpha  occ. eigenvalues --   -0.55023  -0.54858  -0.54603  -0.54535  -0.54457
 Alpha  occ. eigenvalues --   -0.54379  -0.53838  -0.53808  -0.53714  -0.53339
 Alpha  occ. eigenvalues --   -0.53235  -0.53016  -0.52812  -0.52471  -0.52321
 Alpha  occ. eigenvalues --   -0.52290  -0.52157  -0.52064  -0.51574  -0.51456
 Alpha  occ. eigenvalues --   -0.51430  -0.51045  -0.51031  -0.50860  -0.50697
 Alpha  occ. eigenvalues --   -0.50584  -0.50542  -0.50414  -0.50142  -0.50064
 Alpha  occ. eigenvalues --   -0.49939  -0.49764  -0.49545  -0.49342  -0.49031
 Alpha  occ. eigenvalues --   -0.48656  -0.48514  -0.48449  -0.48412  -0.48377
 Alpha  occ. eigenvalues --   -0.48131  -0.48004  -0.47984  -0.47743  -0.47671
 Alpha  occ. eigenvalues --   -0.47555  -0.47275  -0.47139  -0.46819  -0.46584
 Alpha  occ. eigenvalues --   -0.46517  -0.46510  -0.46474  -0.46437  -0.46274
 Alpha  occ. eigenvalues --   -0.46005  -0.45725  -0.45692  -0.45507  -0.45377
 Alpha  occ. eigenvalues --   -0.45183  -0.44980  -0.44759  -0.44745  -0.44325
 Alpha  occ. eigenvalues --   -0.44260  -0.44229  -0.44186  -0.43942  -0.43833
 Alpha  occ. eigenvalues --   -0.43818  -0.43738  -0.43379  -0.43301  -0.43073
 Alpha  occ. eigenvalues --   -0.43012  -0.42932  -0.42676  -0.42347  -0.42101
 Alpha  occ. eigenvalues --   -0.41692  -0.41427  -0.41095  -0.40747  -0.40657
 Alpha  occ. eigenvalues --   -0.40434  -0.39794  -0.39761  -0.39701  -0.39468
 Alpha  occ. eigenvalues --   -0.39212  -0.39156  -0.38989  -0.38966  -0.38063
 Alpha  occ. eigenvalues --   -0.37888  -0.36763  -0.36715  -0.36029  -0.35975
 Alpha  occ. eigenvalues --   -0.35812  -0.35293  -0.35183  -0.33991  -0.33927
 Alpha  occ. eigenvalues --   -0.33372  -0.32817  -0.32623  -0.32392  -0.32308
 Alpha  occ. eigenvalues --   -0.32225  -0.31452  -0.31132  -0.26220  -0.26192
 Alpha  occ. eigenvalues --   -0.23473  -0.22004
 Alpha virt. eigenvalues --   -0.07493  -0.05882  -0.00596   0.00053   0.02090
 Alpha virt. eigenvalues --    0.02219   0.04126   0.04467   0.04478   0.05080
 Alpha virt. eigenvalues --    0.07278   0.07363   0.07783   0.08027   0.08449

 Mulliken charges:
               1
     1  Mg   0.931616
     2  C   -0.000999
     3  C   -0.065817
     4  C   -0.091519
     5  C   -0.077510
     6  N   -0.307374
     7  C    0.004094
     8  C   -0.074114
     9  C   -0.126462
    10  C    0.080254
    11  C    0.020545
    12  C    0.007849
    13  C   -0.130976
    14  H    0.036902
    15  N   -0.514651
    16  C    0.149080
    17  C   -0.151887
    18  C   -0.055486
    19  C    0.178037
    20  C    0.087462
    21  C    0.034466
    22  O   -0.271034
    23  C    0.017094
    24  N   -0.324862
    25  C    0.043544
    26  C   -0.057446
    27  C   -0.088534
    28  C    0.106066
    29  C    0.017437
    30  C   -0.009876
    31  C   -0.055803
    32  N   -0.439746
    33  C    0.094688
    34  C   -0.179748
    35  C    0.011912
    36  C    0.117571
    37  C    0.048043
    38  C    0.070948
    39  O   -0.201915
    40  C   -0.081059
    41  C    0.257083
    42  O   -0.227861
    43  O   -0.352657
    44  C    0.138920
    45  H   -0.003797
    46  H   -0.037277
    47  H   -0.005233
    48  H    0.022126
    49  H    0.037600
    50  H    0.038127
    51  H    0.026421
    52  H    0.039078
    53  H    0.025000
    54  H    0.032734
    55  H    0.077980
    56  H    0.066394
    57  H    0.053640
    58  H    0.029895
    59  H    0.063907
    60  H    0.061105
    61  H    0.077275
    62  H    0.047627
    63  H    0.049745
    64  H    0.040763
    65  H    0.036140
    66  H    0.051917
    67  H    0.027114
    68  H    0.036490
    69  H    0.027982
    70  H    0.034951
    71  H    0.031362
    72  H    0.047282
    73  H    0.038318
    74  H    0.058163
    75  H    0.037791
    76  H    0.089619
    77  H    0.063419
    78  H    0.059061
    79  H    0.051003
    80  Mg   0.943137
    81  C    0.041727
    82  C   -0.129207
    83  C   -0.076285
    84  C   -0.077221
    85  N   -0.336240
    86  C   -0.017793
    87  C   -0.079486
    88  C   -0.155274
    89  C    0.135998
    90  C    0.022050
    91  C    0.093442
    92  C   -0.136465
    93  H    0.009041
    94  N   -0.446385
    95  C    0.165841
    96  C   -0.153417
    97  C   -0.107883
    98  C    0.165196
    99  C    0.056946
   100  C    0.032441
   101  O   -0.217408
   102  C    0.006344
   103  N   -0.392395
   104  C    0.060484
   105  C   -0.103444
   106  C   -0.058535
   107  C    0.088781
   108  C    0.029691
   109  C   -0.034558
   110  C   -0.028619
   111  N   -0.416703
   112  C    0.095688
   113  C   -0.195809
   114  C   -0.011676
   115  C    0.105060
   116  C    0.075038
   117  C    0.122642
   118  O   -0.234937
   119  C   -0.139138
   120  C    0.281251
   121  O   -0.275137
   122  O   -0.340452
   123  C    0.131688
   124  H   -0.010052
   125  H    0.029233
   126  H   -0.008285
   127  H    0.017192
   128  H    0.025390
   129  H    0.050736
   130  H    0.035129
   131  H    0.035635
   132  H    0.016177
   133  H    0.073600
   134  H    0.051813
   135  H    0.043257
   136  H    0.051636
   137  H    0.037587
   138  H    0.072586
   139  H    0.062090
   140  H    0.066225
   141  H    0.055529
   142  H    0.043046
   143  H    0.031496
   144  H    0.039720
   145  H    0.045864
   146  H    0.038561
   147  H    0.026808
   148  H    0.028195
   149  H    0.044935
   150  H    0.030313
   151  H    0.041846
   152  H    0.063103
   153  H    0.057590
   154  H    0.033414
   155  H    0.090020
   156  H    0.070057
   157  H    0.052423
   158  H    0.059111
 Sum of Mulliken charges =  -0.00000

 Dipole moment (field-independent basis, Debye):
    X=             -1.3270    Y=             -0.6199    Z=             -0.0856  Tot=              1.4672
 Quadrupole moment (field-independent basis, Debye-Ang):
   XX=           -272.7335   YY=           -571.2084   ZZ=           -490.6738
   XY=           -204.9574   XZ=             -1.3356   YZ=             -1.9633

 Normal termination of Gaussian 16 at Sun Sep 19 19:31:31 2021.
