 Gaussian 16, Revision A.03,
 Gaussian 16:  ES64L-G16RevA.03 25-Dec-2016

 --------------------------------
 #p wB97XD/Def2SVP td=(nstates=5)
 --------------------------------

 --------------------------------
 TDDFT excited states in gaussian
 --------------------------------
 Symbolic Z-matrix:
 Charge =  0 Multiplicity = 1

                         Standard orientation:
 ---------------------------------------------------------------------
 Center     Atomic      Atomic             Coordinates (Angstroms)
 Number     Number       Type             X           Y           Z
 ---------------------------------------------------------------------
      1         12           0      -17.248309   -0.760069    0.278779
      2          6           0      -17.227630    2.593043   -0.737913
      3          6           0      -15.471999    0.218736    3.180960
      4          6           0      -16.946104   -4.035070    1.122888
      5          6           0      -18.302816   -1.642737   -2.888228
      6          7           0      -16.623645    1.182462    1.143815
      7          6           0      -16.906843    2.433077    0.587256
      8          6           0      -16.736724    3.538033    1.691248
      9          6           0      -16.104635    2.757073    2.849219
     10          6           0      -16.010149    1.273567    2.348486
     11          6           0      -14.707703    3.339003    3.195877
     12          6           0      -18.097688    4.167009    1.963583
     13          6           0      -18.135035    5.605547    2.452872
     14          1           0      -16.817610    6.244266    2.947667
     15          7           0      -16.361522   -1.811226    1.910380
     16          6           0      -15.655647   -1.227881    2.979734
     17          6           0      -15.154008   -2.251625    3.879571
     18          6           0      -15.609834   -3.532404    3.374142
     19          6           0      -16.321662   -3.159217    2.077204
     20          6           0      -14.457692   -1.963038    5.215648
     21          6           0      -15.453285   -4.933562    3.933148
     22          8           0      -15.940135   -5.890688    3.346132
     23          6           0      -14.894129   -5.095813    5.294317
     24          7           0      -17.656808   -2.579641   -0.754869
     25          6           0      -17.533198   -3.793046   -0.148421
     26          6           0      -18.126385   -4.897416   -1.061944
     27          6           0      -18.632413   -4.129634   -2.344285
     28          6           0      -18.291594   -2.664196   -1.969070
     29          6           0      -17.066909   -5.974074   -1.357640
     30          6           0      -20.152581   -4.260447   -2.627287
     31          6           0      -20.368767   -5.277441   -3.743665
     32          7           0      -17.601439    0.186590   -1.553373
     33          6           0      -17.953033   -0.265778   -2.781269
     34          6           0      -17.839107    0.874981   -3.722255
     35          6           0      -17.670359    2.006750   -2.979574
     36          6           0      -17.485136    1.518573   -1.660872
     37          6           0      -18.106034    0.707353   -5.208655
     38          6           0      -17.590153    3.473551   -2.981968
     39          8           0      -17.644769    4.250124   -3.927903
     40          6           0      -17.393188    3.866946   -1.530687
     41          6           0      -16.240507    4.781502   -1.524442
     42          8           0      -15.027782    4.541525   -1.598235
     43          8           0      -16.735465    6.069160   -1.492730
     44          6           0      -15.765150    7.140740   -1.550478
     45          1           0      -14.998486    0.568669    4.100382
     46          1           0      -16.901878   -5.051702    1.519153
     47          1           0      -18.549820   -2.011812   -3.885915
     48          1           0      -16.032805    4.205074    1.192130
     49          1           0      -16.707345    2.989490    3.727131
     50          1           0      -13.866226    2.690209    2.952213
     51          1           0      -14.633609    3.314064    4.282700
     52          1           0      -14.526320    4.295294    2.705639
     53          1           0      -18.580543    3.469043    2.648214
     54          1           0      -18.709307    4.081705    1.066166
     55          1           0      -18.896774    5.688820    3.226884
     56          1           0      -18.513498    6.117476    1.567417
     57          1           0      -14.221309   -0.910521    5.373102
     58          1           0      -13.521204   -2.519435    5.273084
     59          1           0      -15.063333   -2.380877    6.018964
     60          1           0      -15.583606   -4.644346    6.008124
     61          1           0      -13.846448   -4.796860    5.326500
     62          1           0      -14.878738   -6.140941    5.603619
     63          1           0      -18.921374   -5.391536   -0.503898
     64          1           0      -17.975284   -4.461230   -3.149293
     65          1           0      -16.840433   -6.160928   -2.406952
     66          1           0      -17.596211   -6.844253   -0.969991
     67          1           0      -16.080878   -5.767012   -0.942693
     68          1           0      -20.522527   -3.361630   -3.120933
     69          1           0      -20.740107   -4.541346   -1.753004
     70          1           0      -21.166632   -5.912805   -3.359490
     71          1           0      -19.548952   -5.983974   -3.871061
     72          1           0      -20.643554   -4.859060   -4.712338
     73          1           0      -18.153773   -0.323491   -5.560586
     74          1           0      -17.376302    1.228616   -5.827023
     75          1           0      -19.127142    1.034100   -5.408450
     76          1           0      -18.306906    4.355931   -1.194444
     77          1           0      -15.109858    6.945281   -2.399680
     78          1           0      -15.153334    7.223467   -0.651913
     79          1           0      -16.318376    7.988224   -1.953789
     80         12           0       17.371002   -0.542027   -0.134787
     81          6           0       15.066637    1.996516    0.403802
     82          6           0       19.899776    1.670683    0.153899
     83          6           0       19.484657   -3.039599   -0.841520
     84          6           0       14.673594   -2.730627   -0.577498
     85          7           0       17.394077    1.606928    0.273800
     86          6           0       16.394874    2.411350    0.547204
     87          6           0       17.009952    3.850901    0.867894
     88          6           0       18.263975    3.738823    0.026870
     89          6           0       18.596244    2.220342    0.178981
     90          6           0       17.992191    4.237367   -1.408852
     91          6           0       17.078750    4.094444    2.436719
     92          6           0       17.190460    5.565342    2.849454
     93          1           0       17.462584    6.607520    1.778474
     94          7           0       19.387665   -0.705025   -0.141833
     95          6           0       20.276007    0.343528    0.085149
     96          6           0       21.643092   -0.245006    0.211100
     97          6           0       21.548006   -1.655743   -0.151254
     98          6           0       20.100272   -1.788831   -0.463956
     99          6           0       22.855986    0.575041    0.582096
    100          6           0       22.646406   -2.816437   -0.175290
    101          8           0       22.391216   -3.996775   -0.437138
    102          6           0       24.064814   -2.409866    0.165925
    103          7           0       17.126634   -2.507997   -0.732365
    104          6           0       18.134845   -3.339825   -0.979986
    105          6           0       17.657473   -4.730292   -1.501549
    106          6           0       16.162687   -4.645240   -1.161078
    107          6           0       15.948887   -3.226065   -0.737381
    108          6           0       17.962235   -5.000812   -3.001425
    109          6           0       15.534820   -5.764840   -0.217092
    110          6           0       15.258972   -5.392780    1.202668
    111          7           0       15.292400   -0.408094   -0.309666
    112          6           0       14.335945   -1.360388   -0.420310
    113          6           0       13.018144   -0.832863   -0.412878
    114          6           0       13.247326    0.538177   -0.075495
    115          6           0       14.615490    0.680239   -0.032279
    116          6           0       11.652229   -1.419101   -0.659489
    117          6           0       12.666393    1.813747    0.220889
    118          8           0       11.514548    2.187085    0.277092
    119          6           0       13.786894    2.791086    0.699587
    120          6           0       13.684003    4.054509   -0.036822
    121          8           0       13.807811    4.117169   -1.250544
    122          8           0       13.251788    5.147691    0.756855
    123          6           0       13.018509    6.412236    0.041787
    124          1           0       20.684740    2.427586    0.187865
    125          1           0       20.198351   -3.820558   -1.109231
    126          1           0       13.859432   -3.431789   -0.770571
    127          1           0       16.330855    4.627348    0.518259
    128          1           0       19.130183    4.254911    0.440165
    129          1           0       18.604177    5.138719   -1.456534
    130          1           0       16.942912    4.477857   -1.584955
    131          1           0       18.441436    3.497389   -2.070838
    132          1           0       17.941681    3.578147    2.858246
    133          1           0       16.119010    3.742345    2.815627
    134          1           0       17.974977    5.616429    3.603827
    135          1           0       16.260729    5.819426    3.357925
    136          1           0       22.597653    1.378715    1.272587
    137          1           0       23.426522    1.016045   -0.234637
    138          1           0       23.539893   -0.060634    1.144293
    139          1           0       24.252729   -1.567467   -0.499352
    140          1           0       24.820479   -3.160240   -0.064663
    141          1           0       24.138312   -2.183607    1.229775
    142          1           0       18.132070   -5.544300   -0.953815
    143          1           0       15.649699   -4.637290   -2.122090
    144          1           0       17.055197   -5.460607   -3.394570
    145          1           0       18.829717   -5.619589   -3.225681
    146          1           0       18.196228   -4.044675   -3.469638
    147          1           0       16.145312   -6.664178   -0.299088
    148          1           0       14.536721   -6.010528   -0.579054
    149          1           0       14.176291   -5.380373    1.330368
    150          1           0       15.482757   -4.362678    1.482727
    151          1           0       15.648113   -6.095910    1.939145
    152          1           0       11.698348   -2.459908   -0.981885
    153          1           0       11.101797   -0.761483   -1.332918
    154          1           0       11.012998   -1.547437    0.214283
    155          1           0       13.708283    3.006405    1.764885
    156          1           0       12.857757    7.280277    0.680658
    157          1           0       12.125862    6.199292   -0.547007
    158          1           0       13.860457    6.514987   -0.641794
 ---------------------------------------------------------------------

 SCF Done:  E(RwB97XD) =  -4070.61323620     A.U. after   19 cycles

 Excitation energies and oscillator strengths:

 Excited State   1:      Singlet-A      1.6258 eV  762.59 nm  f=0.3947  <S**2>=0.000
     310 -> 315        0.17886
     312 -> 314        0.68464
     310 <- 315        0.11342
 This state for optimization and/or second-order correction.
 Total Energy, E(TD-HF/TD-DFT) =  -4070.55348816
 Copying the excited state density for this state as the 1-particle RhoCI density.

 Excited State   2:      Singlet-A      1.6905 eV  733.44 nm  f=0.3909  <S**2>=0.000
     309 -> 316        0.18170
     311 -> 313        0.68419
     309 <- 316        0.11474

 Excited State   3:      Singlet-A      2.1420 eV  578.82 nm  f=0.1146  <S**2>=0.000
     310 -> 314        0.64306
     312 -> 315       -0.27653

 Excited State   4:      Singlet-A      2.1645 eV  572.81 nm  f=0.1482  <S**2>=0.000
     309 -> 313        0.65215
     311 -> 316       -0.26035

 Excited State   5:      Singlet-A      3.4350 eV  360.95 nm  f=0.0947  <S**2>=0.000
     305 -> 314       -0.35781
     307 -> 314        0.46976
     310 -> 314       -0.10444
     312 -> 315       -0.35017

 The electronic state is 1-A.
 Alpha  occ. eigenvalues --  -46.95397 -46.94102 -19.29613 -19.29125 -19.25562
 Alpha  occ. eigenvalues --  -19.24667 -19.24382 -19.24255 -19.24227 -19.22897
 Alpha  occ. eigenvalues --  -14.46734 -14.46594 -14.46278 -14.46018 -14.44736
 Alpha  occ. eigenvalues --  -14.44702 -14.43691 -14.43181 -10.43142 -10.42700
 Alpha  occ. eigenvalues --  -10.41281 -10.39429 -10.39324 -10.38061 -10.36024
 Alpha  occ. eigenvalues --  -10.35397 -10.35256 -10.35239 -10.35218 -10.35123
 Alpha  occ. eigenvalues --  -10.35057 -10.34768 -10.34633 -10.34621 -10.34604
 Alpha  occ. eigenvalues --  -10.34562 -10.34437 -10.33986 -10.33783 -10.33725
 Alpha  occ. eigenvalues --  -10.33237 -10.33220 -10.32951 -10.32737 -10.32603
 Alpha  occ. eigenvalues --  -10.32479 -10.32360 -10.32255 -10.32233 -10.32189
 Alpha  occ. eigenvalues --  -10.32031 -10.32017 -10.32004 -10.31771 -10.31752
 Alpha  occ. eigenvalues --  -10.31703 -10.31629 -10.31589 -10.31579 -10.31577
 Alpha  occ. eigenvalues --  -10.31551 -10.31544 -10.31384 -10.31328 -10.31258
 Alpha  occ. eigenvalues --  -10.31072 -10.30969 -10.30766 -10.30661 -10.30468
 Alpha  occ. eigenvalues --  -10.30342 -10.30275 -10.30220 -10.30157 -10.29838
 Alpha  occ. eigenvalues --  -10.29623 -10.29583 -10.29567 -10.29513 -10.29338
 Alpha  occ. eigenvalues --  -10.29268 -10.29072 -10.28757 -10.28696 -10.28285
 Alpha  occ. eigenvalues --  -10.28156  -3.21248  -3.20268  -1.94848  -1.94327
 Alpha  occ. eigenvalues --   -1.94246  -1.93878  -1.93364  -1.93292  -1.17885
 Alpha  occ. eigenvalues --   -1.16612  -1.12754  -1.12664  -1.12151  -1.11758
 Alpha  occ. eigenvalues --   -1.08981  -1.08917  -1.07569  -1.06726  -1.06242
 Alpha  occ. eigenvalues --   -1.06161  -1.05220  -1.04739  -1.04584  -1.03643
 Alpha  occ. eigenvalues --   -0.95266  -0.94074  -0.91080  -0.91060  -0.90577
 Alpha  occ. eigenvalues --   -0.90432  -0.90201  -0.89852  -0.89259  -0.89027
 Alpha  occ. eigenvalues --   -0.88982  -0.88744  -0.88155  -0.87458  -0.86198
 Alpha  occ. eigenvalues --   -0.86195  -0.85697  -0.85502  -0.84686  -0.84566
 Alpha  occ. eigenvalues --   -0.84506  -0.84280  -0.82872  -0.82780  -0.82023
 Alpha  occ. eigenvalues --   -0.81935  -0.80576  -0.80042  -0.79132  -0.79131
 Alpha  occ. eigenvalues --   -0.78650  -0.78556  -0.77797  -0.77746  -0.76984
 Alpha  occ. eigenvalues --   -0.76429  -0.74790  -0.74454  -0.73142  -0.72931
 Alpha  occ. eigenvalues --   -0.71115  -0.70981  -0.70719  -0.70348  -0.69878
 Alpha  occ. eigenvalues --   -0.69816  -0.69027  -0.68652  -0.67271  -0.67009
 Alpha  occ. eigenvalues --   -0.66773  -0.66592  -0.66567  -0.66169  -0.65948
 Alpha  occ. eigenvalues --   -0.65829  -0.64047  -0.63231  -0.62678  -0.62099
 Alpha  occ. eigenvalues --   -0.61543  -0.61532  -0.61106  -0.60998  -0.60690
 Alpha  occ. eigenvalues --   -0.60282  -0.59995  -0.59938  -0.59590  -0.59556
 Alpha  occ. eigenvalues --   -0.57824  -0.57794  -0.57657  -0.57640  -0.57342
 Alpha  occ. eigenvalues --   -0.56961  -0.56665  -0.56661  -0.55871  -0.55554
 Alpha  occ. eigenvalues --   -0.55508  -0.55438  -0.55321  -0.55265  -0.55185
 Alpha  occ. eigenvalues --   -0.54933  -0.54796  -0.54697  -0.54571  -0.54228
 Alpha  occ. eigenvalues --   -0.54069  -0.53752  -0.53717  -0.53605  -0.53259
 Alpha  occ. eigenvalues --   -0.53117  -0.52705  -0.52683  -0.52639  -0.52268
 Alpha  occ. eigenvalues --   -0.52210  -0.51801  -0.51776  -0.51497  -0.51401
 Alpha  occ. eigenvalues --   -0.51166  -0.51139  -0.51091  -0.50972  -0.50899
 Alpha  occ. eigenvalues --   -0.50775  -0.50503  -0.50468  -0.50395  -0.50018
 Alpha  occ. eigenvalues --   -0.49736  -0.49733  -0.49295  -0.49287  -0.49051
 Alpha  occ. eigenvalues --   -0.48779  -0.48586  -0.48336  -0.48248  -0.48157
 Alpha  occ. eigenvalues --   -0.47922  -0.47900  -0.47768  -0.47688  -0.47431
 Alpha  occ. eigenvalues --   -0.47108  -0.46841  -0.46836  -0.46643  -0.46565
 Alpha  occ. eigenvalues --   -0.46326  -0.46258  -0.46245  -0.46077  -0.45919
 Alpha  occ. eigenvalues --   -0.45869  -0.45473  -0.45423  -0.45301  -0.45254
 Alpha  occ. eigenvalues --   -0.45142  -0.45084  -0.44917  -0.44916  -0.44744
 Alpha  occ. eigenvalues --   -0.44561  -0.44415  -0.44192  -0.44009  -0.43726
 Alpha  occ. eigenvalues --   -0.43700  -0.43374  -0.43289  -0.43137  -0.42939
 Alpha  occ. eigenvalues --   -0.42936  -0.42845  -0.42408  -0.42254  -0.42077
 Alpha  occ. eigenvalues --   -0.41863  -0.41812  -0.41088  -0.40764  -0.40294
 Alpha  occ. eigenvalues --   -0.40184  -0.39961  -0.39858  -0.39830  -0.39618
 Alpha  occ. eigenvalues --   -0.39436  -0.38626  -0.38555  -0.38243  -0.38112
 Alpha  occ. eigenvalues --   -0.37708  -0.37600  -0.36425  -0.36241  -0.35995
 Alpha  occ. eigenvalues --   -0.35871  -0.35422  -0.34817  -0.34190  -0.33501
 Alpha  occ. eigenvalues --   -0.33452  -0.33375  -0.33330  -0.32703  -0.32402
 Alpha  occ. eigenvalues --   -0.32140  -0.32116  -0.31678  -0.25808  -0.25671
 Alpha  occ. eigenvalues --   -0.23200  -0.22683
 Alpha virt. eigenvalues --   -0.07159  -0.06961   0.00516   0.00677   0.02016
 Alpha virt. eigenvalues --    0.02289   0.04045   0.04592   0.05584   0.06618
 Alpha virt. eigenvalues --    0.06995   0.07445   0.07842   0.08055   0.08271

 Mulliken charges:
               1
     1  Mg   0.955716
     2  C   -0.016252
     3  C   -0.071849
     4  C   -0.061501
     5  C   -0.075432
     6  N   -0.370272
     7  C   -0.076305
     8  C   -0.019295
     9  C   -0.128269
    10  C    0.112535
    11  C    0.004194
    12  C    0.005675
    13  C   -0.087428
    14  H    0.044202
    15  N   -0.442748
    16  C    0.155507
    17  C   -0.170465
    18  C   -0.084845
    19  C    0.094769
    20  C    0.079772
    21  C    0.058915
    22  O   -0.231398
    23  C   -0.015446
    24  N   -0.372853
    25  C    0.091483
    26  C   -0.107471
    27  C   -0.062924
    28  C    0.055634
    29  C    0.009036
    30  C    0.009731
    31  C   -0.064257
    32  N   -0.405497
    33  C    0.114584
    34  C   -0.207829
    35  C   -0.016113
    36  C    0.137391
    37  C    0.069684
    38  C    0.119940
    39  O   -0.196964
    40  C   -0.032947
    41  C    0.261224
    42  O   -0.260678
    43  O   -0.368919
    44  C    0.150828
    45  H   -0.002585
    46  H    0.022694
    47  H   -0.005048
    48  H    0.035239
    49  H    0.041246
    50  H    0.033311
    51  H    0.028433
    52  H    0.050241
    53  H    0.018799
    54  H    0.026406
    55  H    0.050689
    56  H    0.056872
    57  H    0.045002
    58  H    0.041826
    59  H    0.050639
    60  H    0.068817
    61  H    0.058666
    62  H    0.044805
    63  H    0.042112
    64  H    0.041199
    65  H    0.028407
    66  H    0.042330
    67  H    0.055207
    68  H    0.035713
    69  H    0.040841
    70  H    0.024613
    71  H    0.026471
    72  H    0.047198
    73  H    0.017817
    74  H    0.060268
    75  H    0.049608
    76  H    0.082076
    77  H    0.044899
    78  H    0.059169
    79  H    0.053157
    80  Mg   0.985733
    81  C   -0.033943
    82  C   -0.089478
    83  C   -0.081481
    84  C   -0.113276
    85  N   -0.312374
    86  C   -0.022141
    87  C   -0.084791
    88  C   -0.106211
    89  C    0.035653
    90  C    0.056946
    91  C    0.017379
    92  C   -0.109409
    93  H    0.037475
    94  N   -0.477266
    95  C    0.190087
    96  C   -0.158471
    97  C   -0.108921
    98  C    0.127254
    99  C    0.049035
   100  C    0.101708
   101  O   -0.227686
   102  C   -0.029576
   103  N   -0.378879
   104  C    0.080990
   105  C   -0.097535
   106  C   -0.032665
   107  C    0.053353
   108  C    0.021165
   109  C   -0.006291
   110  C   -0.048463
   111  N   -0.374709
   112  C    0.115988
   113  C   -0.174701
   114  C   -0.023327
   115  C    0.102379
   116  C    0.084895
   117  C    0.096580
   118  O   -0.204515
   119  C   -0.019881
   120  C    0.245675
   121  O   -0.251722
   122  O   -0.402739
   123  C    0.147322
   124  H    0.004654
   125  H    0.017894
   126  H   -0.007173
   127  H    0.021266
   128  H    0.004246
   129  H    0.035509
   130  H    0.070915
   131  H    0.037020
   132  H    0.035364
   133  H    0.041297
   134  H    0.045529
   135  H    0.053087
   136  H    0.040737
   137  H    0.065828
   138  H    0.031004
   139  H    0.059255
   140  H    0.056212
   141  H    0.081341
   142  H    0.037139
   143  H    0.030753
   144  H    0.038462
   145  H    0.045361
   146  H    0.041256
   147  H    0.033864
   148  H    0.028074
   149  H    0.018058
   150  H    0.047779
   151  H    0.040802
   152  H    0.015406
   153  H    0.066113
   154  H    0.046090
   155  H    0.068282
   156  H    0.063897
   157  H    0.057391
   158  H    0.048124
 Sum of Mulliken charges =  -0.00000

 Dipole moment (field-independent basis, Debye):
    X=              3.9149    Y=             -0.6676    Z=              6.4307  Tot=              7.5581
 Quadrupole moment (field-independent basis, Debye-Ang):
   XX=           -263.9110   YY=           -493.6436   ZZ=           -494.7167
   XY=             50.5443   XZ=            -35.1714   YZ=             31.2872

 Normal termination of Gaussian 16 at Mon Sep 20 01:28:39 2021.
