 Gaussian 16, Revision A.03,
 Gaussian 16:  ES64L-G16RevA.03 25-Dec-2016

 --------------------------------
 #p wB97XD/Def2SVP td=(nstates=5)
 --------------------------------

 --------------------------------
 TDDFT excited states in gaussian
 --------------------------------
 Symbolic Z-matrix:
 Charge =  0 Multiplicity = 1

                         Standard orientation:
 ---------------------------------------------------------------------
 Center     Atomic      Atomic             Coordinates (Angstroms)
 Number     Number       Type             X           Y           Z
 ---------------------------------------------------------------------
      1         12           0      -16.016381   -0.693150   -0.031625
      2          6           0      -18.123904    2.007619    0.552794
      3          6           0      -13.778383    1.383098   -1.456429
      4          6           0      -14.367439   -3.370757   -1.276834
      5          6           0      -18.721657   -2.861186    0.699712
      6          7           0      -16.006715    1.420440   -0.280732
      7          6           0      -16.863115    2.412274    0.145143
      8          6           0      -16.328152    3.809589   -0.272968
      9          6           0      -15.271749    3.419447   -1.352307
     10          6           0      -14.907154    2.000377   -0.941626
     11          6           0      -15.800782    3.447077   -2.829452
     12          6           0      -15.931869    4.565070    1.008753
     13          6           0      -16.333522    5.990829    1.024180
     14          1           0      -16.392478    6.600692    2.351096
     15          7           0      -14.210604   -0.925375   -0.998808
     16          6           0      -13.409266    0.075691   -1.446261
     17          6           0      -12.116596   -0.480674   -1.757607
     18          6           0      -12.293205   -1.910193   -1.699122
     19          6           0      -13.709904   -2.124164   -1.389525
     20          6           0      -10.948083    0.334814   -2.181839
     21          6           0      -11.322717   -3.084037   -2.052353
     22          8           0      -11.637435   -4.270122   -1.935558
     23          6           0       -9.888702   -2.825566   -2.421624
     24          7           0      -16.653659   -2.774383   -0.556805
     25          6           0      -15.670521   -3.721684   -0.953097
     26          6           0      -16.156305   -5.132870   -0.916077
     27          6           0      -17.453546   -4.904958   -0.073961
     28          6           0      -17.595223   -3.394959    0.098564
     29          6           0      -16.382432   -5.772444   -2.327834
     30          6           0      -17.415013   -5.602224    1.334896
     31          6           0      -16.163676   -5.302440    2.198992
     32          7           0      -17.981507   -0.519059    0.615875
     33          6           0      -18.948718   -1.489224    0.920831
     34          6           0      -20.101709   -0.788675    1.347524
     35          6           0      -19.798117    0.562863    1.240703
     36          6           0      -18.523871    0.661872    0.787913
     37          6           0      -21.358879   -1.416422    1.859493
     38          6           0      -20.347544    1.831533    1.357777
     39          8           0      -21.495858    2.167624    1.700215
     40          6           0      -19.307657    2.912535    0.934824
     41          6           0      -19.135237    3.772544    2.225647
     42          8           0      -18.592843    3.392958    3.278746
     43          8           0      -19.696364    5.022464    1.987282
     44          6           0      -19.887314    5.948892    3.148240
     45          1           0      -13.182581    2.137627   -1.974419
     46          1           0      -13.938838   -4.352503   -1.492141
     47          1           0      -19.511205   -3.477346    1.135062
     48          1           0      -17.135553    4.417227   -0.680215
     49          1           0      -14.385719    4.040576   -1.224353
     50          1           0      -16.820168    3.808242   -2.968486
     51          1           0      -15.867721    2.436520   -3.230404
     52          1           0      -15.174873    4.123502   -3.411147
     53          1           0      -14.842991    4.587248    1.008098
     54          1           0      -16.344214    4.016368    1.855943
     55          1           0      -17.350633    6.012381    0.632522
     56          1           0      -15.701098    6.535270    0.323225
     57          1           0      -11.068673    1.380873   -1.900848
     58          1           0      -10.727493    0.095803   -3.222726
     59          1           0      -10.067714    0.016029   -1.623673
     60          1           0       -9.602936   -3.693771   -3.015910
     61          1           0       -9.256718   -2.805667   -1.533462
     62          1           0       -9.778830   -1.933342   -3.038819
     63          1           0      -15.506111   -5.809916   -0.360268
     64          1           0      -18.306952   -5.280526   -0.639459
     65          1           0      -16.494240   -4.974856   -3.062805
     66          1           0      -17.255268   -6.415574   -2.441369
     67          1           0      -15.577112   -6.407055   -2.698856
     68          1           0      -17.567503   -6.664453    1.143038
     69          1           0      -18.339603   -5.266728    1.804537
     70          1           0      -16.413763   -4.839327    3.153708
     71          1           0      -15.523067   -4.651069    1.603835
     72          1           0      -15.593639   -6.199578    2.438587
     73          1           0      -22.159155   -1.029058    1.228994
     74          1           0      -21.458143   -1.148261    2.911308
     75          1           0      -21.417171   -2.500095    1.756986
     76          1           0      -19.757345    3.529539    0.157340
     77          1           0      -20.549311    5.430221    3.841297
     78          1           0      -20.320332    6.929095    2.948983
     79          1           0      -18.843626    5.981023    3.461070
     80         12           0       16.491596   -0.551751    0.411960
     81          6           0       15.933745    2.622850   -1.237004
     82          6           0       18.172132    1.122725    2.604974
     83          6           0       17.115350   -3.561187    1.602242
     84          6           0       15.285405   -2.291303   -2.542478
     85          7           0       16.881325    1.694483    0.695390
     86          6           0       16.594943    2.814658   -0.056967
     87          6           0       17.176675    4.026004    0.577936
     88          6           0       18.275417    3.454297    1.510429
     89          6           0       17.795294    1.986179    1.594732
     90          6           0       19.705832    3.532759    0.933326
     91          6           0       16.091929    4.738827    1.441729
     92          6           0       16.018303    6.310294    1.320582
     93          1           0       14.706156    7.076299    1.755936
     94          7           0       17.526354   -1.123837    2.015702
     95          6           0       18.065367   -0.305894    2.880065
     96          6           0       18.583366   -1.091497    3.984233
     97          6           0       18.146291   -2.409183    3.711551
     98          6           0       17.590337   -2.398305    2.385636
     99          6           0       19.255312   -0.412968    5.191748
    100          6           0       18.301188   -3.603782    4.610966
    101          8           0       17.917236   -4.677740    4.255214
    102          6           0       18.845086   -3.413064    5.989256
    103          7           0       16.466055   -2.673202   -0.554225
    104          6           0       16.642861   -3.676406    0.303070
    105          6           0       16.169570   -4.969644   -0.246139
    106          6           0       15.760193   -4.538146   -1.689963
    107          6           0       15.831943   -3.034591   -1.646408
    108          6           0       17.131362   -6.207863   -0.146052
    109          6           0       14.340835   -5.111840   -2.074922
    110          6           0       14.234143   -6.295976   -3.075860
    111          7           0       15.784376   -0.062561   -1.434042
    112          6           0       15.257570   -0.814699   -2.507734
    113          6           0       14.779511    0.103362   -3.562095
    114          6           0       15.012439    1.386002   -3.084170
    115          6           0       15.642815    1.275793   -1.856334
    116          6           0       14.283236   -0.328326   -4.963324
    117          6           0       14.841055    2.826066   -3.460750
    118          8           0       14.339451    3.391508   -4.403528
    119          6           0       15.597716    3.697983   -2.338268
    120          6           0       14.832995    4.822780   -1.941476
    121          8           0       14.056564    4.783003   -0.976792
    122          8           0       14.960575    5.972336   -2.714938
    123          6           0       14.337020    7.242601   -2.232163
    124          1           0       18.724263    1.567979    3.434499
    125          1           0       17.263710   -4.556952    2.024974
    126          1           0       14.911251   -2.798404   -3.433160
    127          1           0       17.687180    4.629688   -0.172887
    128          1           0       18.358792    3.906870    2.498330
    129          1           0       20.345521    4.135329    1.578844
    130          1           0       19.624883    3.995077   -0.050009
    131          1           0       20.184268    2.566671    0.770031
    132          1           0       16.349177    4.485736    2.470420
    133          1           0       15.148465    4.254853    1.190067
    134          1           0       16.268423    6.572099    0.292834
    135          1           0       16.835763    6.626595    1.969604
    136          1           0       18.628376   -0.575163    6.069489
    137          1           0       19.491373    0.644206    5.075210
    138          1           0       20.161759   -0.951244    5.467239
    139          1           0       18.213054   -2.770496    6.601675
    140          1           0       19.793455   -2.882644    6.074273
    141          1           0       18.855424   -4.377900    6.496908
    142          1           0       15.262298   -5.242120    0.293056
    143          1           0       16.545221   -4.829551   -2.388092
    144          1           0       17.984331   -5.882331    0.448501
    145          1           0       17.417223   -6.696932   -1.077954
    146          1           0       16.606138   -7.007137    0.377099
    147          1           0       13.752127   -4.316512   -2.532875
    148          1           0       13.817542   -5.206465   -1.123451
    149          1           0       13.538945   -7.042712   -2.692561
    150          1           0       15.222984   -6.725982   -3.236116
    151          1           0       13.835559   -5.955928   -4.032437
    152          1           0       13.792121   -1.295126   -4.856468
    153          1           0       15.145162   -0.514417   -5.604491
    154          1           0       13.603387    0.402904   -5.401211
    155          1           0       16.541787    4.039035   -2.762119
    156          1           0       14.783016    7.565461   -1.290384
    157          1           0       13.250739    7.208520   -2.306279
    158          1           0       14.718695    8.035680   -2.875039
 ---------------------------------------------------------------------

 SCF Done:  E(RwB97XD) =  -4070.58484842     A.U. after   19 cycles

 Excitation energies and oscillator strengths:

 Excited State   1:      Singlet-A      1.6038 eV  773.07 nm  f=0.3795  <S**2>=0.000
     309 -> 315        0.16817
     312 -> 314        0.68662
     309 <- 315        0.11354
 This state for optimization and/or second-order correction.
 Total Energy, E(TD-HF/TD-DFT) =  -4070.52591051
 Copying the excited state density for this state as the 1-particle RhoCI density.

 Excited State   2:      Singlet-A      1.6951 eV  731.45 nm  f=0.3794  <S**2>=0.000
     310 -> 316        0.16831
     311 -> 313        0.68662
     310 <- 316        0.11046

 Excited State   3:      Singlet-A      2.1228 eV  584.07 nm  f=0.2174  <S**2>=0.000
     310 -> 313        0.67193
     311 -> 316       -0.20546

 Excited State   4:      Singlet-A      2.1619 eV  573.48 nm  f=0.1270  <S**2>=0.000
     309 -> 314        0.64148
     312 -> 315       -0.27561

 Excited State   5:      Singlet-A      3.2518 eV  381.28 nm  f=0.0002  <S**2>=0.000
     305 -> 314       -0.18221
     305 -> 317        0.10847
     305 -> 319       -0.12524
     306 -> 314        0.55290
     308 -> 314       -0.31998

 The electronic state is 1-A.
 Alpha  occ. eigenvalues --  -46.95815 -46.94629 -19.29955 -19.29230 -19.24948
 Alpha  occ. eigenvalues --  -19.24662 -19.24347 -19.23695 -19.23493 -19.22717
 Alpha  occ. eigenvalues --  -14.46520 -14.46423 -14.46031 -14.44769 -14.44451
 Alpha  occ. eigenvalues --  -14.44403 -14.43879 -14.43076 -10.43907 -10.42363
 Alpha  occ. eigenvalues --  -10.39970 -10.39193 -10.39157 -10.37633 -10.35696
 Alpha  occ. eigenvalues --  -10.35410 -10.35328 -10.35131 -10.34973 -10.34773
 Alpha  occ. eigenvalues --  -10.34519 -10.34299 -10.34194 -10.34176 -10.34110
 Alpha  occ. eigenvalues --  -10.34061 -10.33865 -10.33619 -10.33391 -10.33329
 Alpha  occ. eigenvalues --  -10.33123 -10.32997 -10.32883 -10.32367 -10.32302
 Alpha  occ. eigenvalues --  -10.32302 -10.32299 -10.32280 -10.32169 -10.32165
 Alpha  occ. eigenvalues --  -10.32010 -10.31934 -10.31933 -10.31780 -10.31763
 Alpha  occ. eigenvalues --  -10.31564 -10.31553 -10.31349 -10.31335 -10.31333
 Alpha  occ. eigenvalues --  -10.31207 -10.31019 -10.30889 -10.30864 -10.30748
 Alpha  occ. eigenvalues --  -10.30594 -10.30488 -10.30428 -10.30304 -10.30295
 Alpha  occ. eigenvalues --  -10.30204 -10.30200 -10.30056 -10.29924 -10.29912
 Alpha  occ. eigenvalues --  -10.29732 -10.29653 -10.29630 -10.29629 -10.29603
 Alpha  occ. eigenvalues --  -10.29585 -10.29431 -10.29380 -10.29365 -10.29117
 Alpha  occ. eigenvalues --  -10.27778  -3.21794  -3.20658  -1.95369  -1.94926
 Alpha  occ. eigenvalues --   -1.94754  -1.94227  -1.93787  -1.93631  -1.16564
 Alpha  occ. eigenvalues --   -1.16361  -1.14459  -1.13082  -1.11617  -1.10154
 Alpha  occ. eigenvalues --   -1.08833  -1.08566  -1.07866  -1.07008  -1.06951
 Alpha  occ. eigenvalues --   -1.06821  -1.05883  -1.05483  -1.04195  -1.02997
 Alpha  occ. eigenvalues --   -0.94509  -0.93226  -0.91182  -0.90977  -0.90876
 Alpha  occ. eigenvalues --   -0.90850  -0.90417  -0.89915  -0.89803  -0.89668
 Alpha  occ. eigenvalues --   -0.89656  -0.89035  -0.88431  -0.87161  -0.86450
 Alpha  occ. eigenvalues --   -0.86310  -0.85405  -0.84979  -0.84109  -0.84017
 Alpha  occ. eigenvalues --   -0.83949  -0.83471  -0.82912  -0.82900  -0.82412
 Alpha  occ. eigenvalues --   -0.82308  -0.80807  -0.80108  -0.79074  -0.78947
 Alpha  occ. eigenvalues --   -0.78819  -0.78638  -0.78165  -0.77920  -0.77419
 Alpha  occ. eigenvalues --   -0.77352  -0.75202  -0.74762  -0.73961  -0.73123
 Alpha  occ. eigenvalues --   -0.71667  -0.71241  -0.70752  -0.70709  -0.70005
 Alpha  occ. eigenvalues --   -0.69478  -0.69317  -0.68444  -0.68090  -0.67567
 Alpha  occ. eigenvalues --   -0.67287  -0.67015  -0.66548  -0.66412  -0.66272
 Alpha  occ. eigenvalues --   -0.66002  -0.63559  -0.63526  -0.63087  -0.62106
 Alpha  occ. eigenvalues --   -0.61831  -0.61717  -0.61094  -0.61093  -0.60394
 Alpha  occ. eigenvalues --   -0.60067  -0.59565  -0.59520  -0.59207  -0.58925
 Alpha  occ. eigenvalues --   -0.58608  -0.57903  -0.57674  -0.57524  -0.57515
 Alpha  occ. eigenvalues --   -0.57226  -0.56932  -0.56687  -0.55954  -0.55867
 Alpha  occ. eigenvalues --   -0.55402  -0.55399  -0.55053  -0.54921  -0.54855
 Alpha  occ. eigenvalues --   -0.54726  -0.54632  -0.54415  -0.54337  -0.53967
 Alpha  occ. eigenvalues --   -0.53812  -0.53810  -0.53595  -0.53355  -0.53256
 Alpha  occ. eigenvalues --   -0.52563  -0.52374  -0.52233  -0.52218  -0.52105
 Alpha  occ. eigenvalues --   -0.51835  -0.51673  -0.51571  -0.51520  -0.51291
 Alpha  occ. eigenvalues --   -0.51204  -0.51054  -0.50792  -0.50775  -0.50684
 Alpha  occ. eigenvalues --   -0.50643  -0.50409  -0.50270  -0.49986  -0.49977
 Alpha  occ. eigenvalues --   -0.49864  -0.49733  -0.49594  -0.49503  -0.49384
 Alpha  occ. eigenvalues --   -0.49280  -0.48963  -0.48476  -0.48409  -0.48179
 Alpha  occ. eigenvalues --   -0.48164  -0.47850  -0.47746  -0.47604  -0.47492
 Alpha  occ. eigenvalues --   -0.47349  -0.47341  -0.46912  -0.46767  -0.46557
 Alpha  occ. eigenvalues --   -0.46505  -0.46463  -0.46366  -0.46037  -0.45979
 Alpha  occ. eigenvalues --   -0.45641  -0.45460  -0.45340  -0.45333  -0.45309
 Alpha  occ. eigenvalues --   -0.45076  -0.44957  -0.44943  -0.44761  -0.44697
 Alpha  occ. eigenvalues --   -0.44556  -0.44262  -0.44194  -0.43817  -0.43810
 Alpha  occ. eigenvalues --   -0.43707  -0.43470  -0.43238  -0.43015  -0.42946
 Alpha  occ. eigenvalues --   -0.42769  -0.42593  -0.42569  -0.42304  -0.42128
 Alpha  occ. eigenvalues --   -0.42115  -0.41823  -0.41822  -0.41797  -0.41014
 Alpha  occ. eigenvalues --   -0.40291  -0.40141  -0.39928  -0.39600  -0.39246
 Alpha  occ. eigenvalues --   -0.39135  -0.38847  -0.38505  -0.38499  -0.38206
 Alpha  occ. eigenvalues --   -0.38046  -0.37758  -0.36128  -0.36063  -0.35592
 Alpha  occ. eigenvalues --   -0.35428  -0.35076  -0.34798  -0.34009  -0.33654
 Alpha  occ. eigenvalues --   -0.33495  -0.33314  -0.32801  -0.32690  -0.32009
 Alpha  occ. eigenvalues --   -0.31874  -0.31830  -0.31494  -0.26117  -0.25500
 Alpha  occ. eigenvalues --   -0.23501  -0.22958
 Alpha virt. eigenvalues --   -0.07459  -0.07313   0.00474   0.01539   0.02649
 Alpha virt. eigenvalues --    0.03006   0.04506   0.04676   0.05442   0.05449
 Alpha virt. eigenvalues --    0.06695   0.07173   0.07468   0.07687   0.08883

 Mulliken charges:
               1
     1  Mg   0.955861
     2  C   -0.066740
     3  C   -0.119159
     4  C   -0.020931
     5  C   -0.102867
     6  N   -0.406861
     7  C    0.020007
     8  C   -0.101601
     9  C   -0.087842
    10  C    0.034089
    11  C    0.034863
    12  C    0.039867
    13  C   -0.123642
    14  H    0.052777
    15  N   -0.463761
    16  C    0.229572
    17  C   -0.175545
    18  C   -0.078301
    19  C    0.188234
    20  C    0.069244
    21  C    0.055784
    22  O   -0.248585
    23  C   -0.006180
    24  N   -0.316478
    25  C   -0.057199
    26  C   -0.058253
    27  C   -0.099677
    28  C    0.111738
    29  C    0.018228
    30  C   -0.021925
    31  C   -0.053836
    32  N   -0.434975
    33  C    0.117044
    34  C   -0.197953
    35  C    0.053966
    36  C    0.194101
    37  C    0.092969
    38  C    0.016702
    39  O   -0.242861
    40  C   -0.028790
    41  C    0.287567
    42  O   -0.268777
    43  O   -0.389780
    44  C    0.142341
    45  H   -0.000848
    46  H    0.018623
    47  H    0.002482
    48  H    0.020103
    49  H    0.019520
    50  H    0.035586
    51  H    0.053064
    52  H    0.043531
    53  H    0.021678
    54  H    0.065519
    55  H    0.039908
    56  H    0.040198
    57  H    0.041145
    58  H    0.067785
    59  H    0.043236
    60  H    0.054737
    61  H    0.075121
    62  H    0.027279
    63  H    0.045802
    64  H    0.030889
    65  H    0.039610
    66  H    0.032733
    67  H    0.042662
    68  H    0.031194
    69  H    0.022865
    70  H    0.046422
    71  H    0.045779
    72  H    0.042242
    73  H    0.058099
    74  H    0.067943
    75  H    0.019583
    76  H    0.066919
    77  H    0.068275
    78  H    0.069528
    79  H    0.058354
    80  Mg   0.973757
    81  C   -0.021074
    82  C   -0.054272
    83  C   -0.053558
    84  C   -0.110122
    85  N   -0.301994
    86  C   -0.007065
    87  C   -0.073323
    88  C   -0.132766
    89  C    0.070343
    90  C    0.036901
    91  C    0.034141
    92  C   -0.096277
    93  H    0.049795
    94  N   -0.460732
    95  C    0.091612
    96  C   -0.147539
    97  C   -0.078496
    98  C    0.134290
    99  C    0.063299
   100  C    0.051933
   101  O   -0.201365
   102  C   -0.020634
   103  N   -0.271092
   104  C    0.014642
   105  C   -0.095367
   106  C   -0.044778
   107  C    0.058247
   108  C    0.023264
   109  C   -0.029519
   110  C   -0.028117
   111  N   -0.485354
   112  C    0.125913
   113  C   -0.223712
   114  C   -0.055411
   115  C    0.152244
   116  C    0.077609
   117  C    0.163212
   118  O   -0.174875
   119  C   -0.083095
   120  C    0.267113
   121  O   -0.273077
   122  O   -0.390005
   123  C    0.157548
   124  H   -0.025702
   125  H    0.021096
   126  H   -0.000190
   127  H    0.020603
   128  H    0.035042
   129  H    0.041961
   130  H    0.027861
   131  H    0.045296
   132  H    0.025029
   133  H    0.073811
   134  H    0.043855
   135  H    0.037100
   136  H    0.048531
   137  H    0.053722
   138  H    0.042077
   139  H    0.049843
   140  H    0.042956
   141  H    0.056181
   142  H    0.045874
   143  H    0.031683
   144  H    0.049324
   145  H    0.037571
   146  H    0.032039
   147  H    0.020836
   148  H    0.014716
   149  H    0.040152
   150  H    0.034940
   151  H    0.038214
   152  H    0.028628
   153  H    0.052727
   154  H    0.061840
   155  H    0.080233
   156  H    0.043743
   157  H    0.073714
   158  H    0.042449
 Sum of Mulliken charges =  -0.00000

 Dipole moment (field-independent basis, Debye):
    X=              6.7327    Y=              0.8150    Z=              1.9739  Tot=              7.0633
 Quadrupole moment (field-independent basis, Debye-Ang):
   XX=           -492.2124   YY=           -471.1178   ZZ=           -505.4158
   XY=             24.1607   XZ=             97.6134   YZ=             12.6896

 Normal termination of Gaussian 16 at Sun Sep 19 09:31:41 2021.
