 Gaussian 16, Revision A.03,
 Gaussian 16:  ES64L-G16RevA.03 25-Dec-2016

 --------------------------------
 #p wB97XD/Def2SVP td=(nstates=5)
 --------------------------------

 --------------------------------
 TDDFT excited states in gaussian
 --------------------------------
 Symbolic Z-matrix:
 Charge =  0 Multiplicity = 1

                         Standard orientation:
 ---------------------------------------------------------------------
 Center     Atomic      Atomic             Coordinates (Angstroms)
 Number     Number       Type             X           Y           Z
 ---------------------------------------------------------------------
      1         12           0       24.805449   -0.680041    0.348842
      2          6           0       25.534336    1.967665   -1.802089
      3          6           0       24.068698    1.483273    2.768376
      4          6           0       25.437184   -3.174255    2.599375
      5          6           0       25.635888   -2.904727   -2.200161
      6          7           0       24.642879    1.511227    0.414737
      7          6           0       24.967717    2.345829   -0.565115
      8          6           0       24.583376    3.808497   -0.137761
      9          6           0       24.227394    3.627635    1.357328
     10          6           0       24.334224    2.119388    1.561462
     11          6           0       25.281060    4.303954    2.367731
     12          6           0       23.380849    4.463274   -0.957837
     13          6           0       23.633804    5.894471   -1.287376
     14          1           0       22.578311    6.937854   -0.954919
     15          7           0       24.730945   -0.813052    2.396755
     16          6           0       24.375925    0.205264    3.241260
     17          6           0       24.117788   -0.359259    4.573258
     18          6           0       24.522708   -1.721803    4.509762
     19          6           0       24.970829   -1.927722    3.122467
     20          6           0       23.628133    0.497764    5.783955
     21          6           0       24.575316   -2.776594    5.655821
     22          8           0       24.936471   -3.938464    5.505902
     23          6           0       24.136150   -2.356176    7.007352
     24          7           0       25.453755   -2.669403    0.242227
     25          6           0       25.720437   -3.532018    1.309701
     26          6           0       26.404327   -4.818842    0.778385
     27          6           0       25.854797   -4.921994   -0.711651
     28          6           0       25.625719   -3.392611   -0.874828
     29          6           0       27.939555   -4.804064    0.940255
     30          6           0       24.581153   -5.690257   -0.922820
     31          6           0       23.247862   -5.083199   -0.601216
     32          7           0       25.260155   -0.588552   -1.663746
     33          6           0       25.614332   -1.554886   -2.576655
     34          6           0       25.908792   -0.984431   -3.893175
     35          6           0       25.993187    0.455325   -3.623234
     36          6           0       25.593651    0.608354   -2.238589
     37          6           0       26.293301   -1.710149   -5.078725
     38          6           0       26.312680    1.763301   -4.182194
     39          8           0       26.743204    2.098400   -5.221420
     40          6           0       25.940989    2.816755   -3.013342
     41          6           0       27.005166    3.851432   -2.747772
     42          8           0       27.900072    3.749107   -1.913896
     43          8           0       26.740758    4.971655   -3.535070
     44          6           0       27.649353    6.125413   -3.407004
     45          1           0       23.624719    2.017352    3.611477
     46          1           0       25.635775   -3.916795    3.375524
     47          1           0       25.790014   -3.657586   -2.975514
     48          1           0       25.437086    4.485585   -0.175888
     49          1           0       23.265733    4.028784    1.677257
     50          1           0       24.912950    5.308305    2.578181
     51          1           0       26.283109    4.452540    1.966163
     52          1           0       25.282051    3.719406    3.288479
     53          1           0       22.444166    4.422819   -0.401631
     54          1           0       23.120489    3.962746   -1.890567
     55          1           0       23.667354    5.891737   -2.376514
     56          1           0       24.569438    6.339212   -0.949574
     57          1           0       24.532742    0.849999    6.278858
     58          1           0       22.955820   -0.066751    6.430483
     59          1           0       23.219080    1.469191    5.504243
     60          1           0       24.396654   -1.379925    7.415918
     61          1           0       24.488539   -3.075185    7.746495
     62          1           0       23.076024   -2.582699    7.124557
     63          1           0       25.953333   -5.608510    1.378639
     64          1           0       26.595313   -5.331077   -1.398725
     65          1           0       28.527359   -4.988884    0.041107
     66          1           0       28.294301   -5.377838    1.796727
     67          1           0       28.269628   -3.810032    1.241486
     68          1           0       24.539149   -6.641338   -0.393366
     69          1           0       24.534809   -5.966792   -1.976238
     70          1           0       22.932934   -4.695603   -1.569912
     71          1           0       23.262424   -4.237150    0.086221
     72          1           0       22.575404   -5.863025   -0.242306
     73          1           0       25.848885   -1.167805   -5.913463
     74          1           0       25.837502   -2.697656   -5.011175
     75          1           0       27.378320   -1.722784   -5.177233
     76          1           0       25.050664    3.352493   -3.342626
     77          1           0       28.662116    5.747910   -3.550640
     78          1           0       27.599451    6.549106   -2.404305
     79          1           0       27.522652    6.986314   -4.063640
     80         12           0      -24.893250   -0.772246   -0.281134
     81          6           0      -25.524212    2.157903    1.595316
     82          6           0      -23.807454    1.220646   -2.845993
     83          6           0      -24.923774   -3.441401   -2.241365
     84          6           0      -26.478715   -2.610394    2.240565
     85          7           0      -24.844456    1.453668   -0.643182
     86          6           0      -25.052629    2.432665    0.331995
     87          6           0      -24.509633    3.795316   -0.164571
     88          6           0      -23.979646    3.467327   -1.608169
     89          6           0      -24.168035    1.930869   -1.743415
     90          6           0      -24.460740    4.356198   -2.741732
     91          6           0      -23.455689    4.477852    0.721203
     92          6           0      -23.825250    5.928429    1.136337
     93          1           0      -22.805539    6.986970    0.779049
     94          7           0      -24.338356   -1.056743   -2.259864
     95          6           0      -23.948231   -0.131921   -3.183405
     96          6           0      -23.521889   -0.844463   -4.364209
     97          6           0      -23.988166   -2.223990   -4.254035
     98          6           0      -24.459728   -2.245057   -2.877874
     99          6           0      -22.930820   -0.092002   -5.666118
    100          6           0      -24.245946   -3.254104   -5.267760
    101          8           0      -24.626960   -4.375502   -5.087351
    102          6           0      -24.012419   -2.835969   -6.716432
    103          7           0      -25.810888   -2.718753   -0.079665
    104          6           0      -25.613566   -3.658519   -1.024705
    105          6           0      -26.018548   -5.040536   -0.506691
    106          6           0      -26.161274   -4.807851    1.005994
    107          6           0      -26.114465   -3.299214    1.101856
    108          6           0      -27.381611   -5.537697   -1.174912
    109          6           0      -24.881882   -5.454269    1.745474
    110          6           0      -23.541449   -4.691182    1.563358
    111          7           0      -25.735853   -0.421417    1.628570
    112          6           0      -26.312125   -1.255942    2.508730
    113          6           0      -26.714891   -0.488865    3.656729
    114          6           0      -26.383668    0.820554    3.362886
    115          6           0      -25.838647    0.851992    2.076359
    116          6           0      -27.391767   -0.956323    4.931132
    117          6           0      -26.496003    2.166399    3.931552
    118          8           0      -26.985835    2.699582    4.886929
    119          6           0      -25.872808    3.083791    2.846464
    120          6           0      -26.937047    4.053385    2.486398
    121          8           0      -28.027183    3.685776    2.126647
    122          8           0      -26.574065    5.374650    2.692380
    123          6           0      -27.682084    6.386191    2.639231
    124          1           0      -23.273780    1.843828   -3.566781
    125          1           0      -24.846563   -4.375502   -2.802370
    126          1           0      -26.785773   -3.120464    3.156021
    127          1           0      -25.351476    4.471826   -0.313459
    128          1           0      -22.913711    3.694710   -1.631890
    129          1           0      -25.337874    4.930357   -2.446957
    130          1           0      -24.673948    3.815311   -3.664077
    131          1           0      -23.672408    5.092775   -2.894875
    132          1           0      -22.454165    4.613714    0.313014
    133          1           0      -23.283987    3.901103    1.629755
    134          1           0      -24.128523    5.979688    2.181991
    135          1           0      -24.708626    6.215515    0.567383
    136          1           0      -22.025293   -0.616800   -5.970395
    137          1           0      -22.616571    0.941412   -5.524783
    138          1           0      -23.575341    0.034008   -6.536038
    139          1           0      -22.948140   -2.600536   -6.739481
    140          1           0      -24.637530   -1.954158   -6.853352
    141          1           0      -24.180350   -3.623896   -7.451301
    142          1           0      -25.243051   -5.797141   -0.630721
    143          1           0      -27.071867   -5.106244    1.525971
    144          1           0      -27.343879   -6.627202   -1.193609
    145          1           0      -27.603860   -5.231621   -2.197736
    146          1           0      -28.151243   -5.209067   -0.476678
    147          1           0      -24.719358   -6.497007    1.473443
    148          1           0      -24.999307   -5.357669    2.824904
    149          1           0      -22.653033   -5.214756    1.914877
    150          1           0      -23.613333   -3.764674    2.133247
    151          1           0      -23.445857   -4.445249    0.505273
    152          1           0      -26.800662   -1.653594    5.524421
    153          1           0      -28.280664   -1.474122    4.571736
    154          1           0      -27.755202   -0.130227    5.542318
    155          1           0      -25.078252    3.599797    3.385165
    156          1           0      -27.179330    7.148559    2.044141
    157          1           0      -27.936590    6.792926    3.617776
    158          1           0      -28.645786    6.123962    2.203352
 ---------------------------------------------------------------------

 SCF Done:  E(RwB97XD) =  -4070.62814178     A.U. after   19 cycles

 Excitation energies and oscillator strengths:

 Excited State   1:      Singlet-A      1.6238 eV  763.54 nm  f=0.3678  <S**2>=0.000
     310 -> 316       -0.18259
     312 -> 314        0.68416
     310 <- 316       -0.11751
 This state for optimization and/or second-order correction.
 Total Energy, E(TD-HF/TD-DFT) =  -4070.56846762
 Copying the excited state density for this state as the 1-particle RhoCI density.

 Excited State   2:      Singlet-A      1.6442 eV  754.07 nm  f=0.4102  <S**2>=0.000
     309 -> 315       -0.18143
     311 -> 313        0.68500
     309 <- 315       -0.11693

 Excited State   3:      Singlet-A      2.1358 eV  580.50 nm  f=0.1345  <S**2>=0.000
     309 -> 313        0.65465
     311 -> 315        0.25215

 Excited State   4:      Singlet-A      2.2000 eV  563.56 nm  f=0.1021  <S**2>=0.000
     310 -> 314        0.63111
     312 -> 316        0.30776

 Excited State   5:      Singlet-A      3.3972 eV  364.96 nm  f=0.0013  <S**2>=0.000
     304 -> 313       -0.14210
     305 -> 313        0.57611
     306 -> 313        0.34309

 The electronic state is 1-A.
 Alpha  occ. eigenvalues --  -46.95898 -46.94280 -19.30389 -19.30287 -19.25065
 Alpha  occ. eigenvalues --  -19.24772 -19.24675 -19.24230 -19.24197 -19.23425
 Alpha  occ. eigenvalues --  -14.46778 -14.46744 -14.46538 -14.46039 -14.44380
 Alpha  occ. eigenvalues --  -14.43923 -14.43841 -14.43812 -10.43576 -10.42658
 Alpha  occ. eigenvalues --  -10.39609 -10.39566 -10.39201 -10.38326 -10.35599
 Alpha  occ. eigenvalues --  -10.35583 -10.35564 -10.35382 -10.34814 -10.34790
 Alpha  occ. eigenvalues --  -10.34780 -10.34631 -10.34577 -10.34279 -10.34037
 Alpha  occ. eigenvalues --  -10.33997 -10.33895 -10.33832 -10.33821 -10.33548
 Alpha  occ. eigenvalues --  -10.33392 -10.33387 -10.33213 -10.32926 -10.32863
 Alpha  occ. eigenvalues --  -10.32842 -10.32481 -10.32393 -10.32374 -10.32282
 Alpha  occ. eigenvalues --  -10.32248 -10.32114 -10.32076 -10.32046 -10.31958
 Alpha  occ. eigenvalues --  -10.31950 -10.31932 -10.31721 -10.31628 -10.31562
 Alpha  occ. eigenvalues --  -10.31483 -10.31380 -10.31162 -10.31097 -10.31014
 Alpha  occ. eigenvalues --  -10.30840 -10.30753 -10.30696 -10.30591 -10.30493
 Alpha  occ. eigenvalues --  -10.30374 -10.30203 -10.30174 -10.30095 -10.29994
 Alpha  occ. eigenvalues --  -10.29842 -10.29825 -10.29810 -10.29678 -10.29491
 Alpha  occ. eigenvalues --  -10.29480 -10.29396 -10.29384 -10.29122 -10.28941
 Alpha  occ. eigenvalues --  -10.28377  -3.21762  -3.20400  -1.95330  -1.94896
 Alpha  occ. eigenvalues --   -1.94722  -1.93997  -1.93503  -1.93404  -1.17865
 Alpha  occ. eigenvalues --   -1.17351  -1.15244  -1.13943  -1.13292  -1.12361
 Alpha  occ. eigenvalues --   -1.09844  -1.09681  -1.07227  -1.07185  -1.06352
 Alpha  occ. eigenvalues --   -1.05887  -1.05588  -1.04911  -1.04193  -1.04026
 Alpha  occ. eigenvalues --   -0.94366  -0.93872  -0.90906  -0.90792  -0.90693
 Alpha  occ. eigenvalues --   -0.90484  -0.90172  -0.89961  -0.89693  -0.89157
 Alpha  occ. eigenvalues --   -0.88834  -0.88531  -0.88291  -0.88229  -0.86358
 Alpha  occ. eigenvalues --   -0.86073  -0.85505  -0.85412  -0.84463  -0.84412
 Alpha  occ. eigenvalues --   -0.83780  -0.83167  -0.82970  -0.82839  -0.82347
 Alpha  occ. eigenvalues --   -0.82131  -0.80343  -0.80206  -0.79372  -0.79182
 Alpha  occ. eigenvalues --   -0.78724  -0.78696  -0.78097  -0.77776  -0.77174
 Alpha  occ. eigenvalues --   -0.76802  -0.75120  -0.74268  -0.73766  -0.73449
 Alpha  occ. eigenvalues --   -0.71305  -0.71222  -0.71156  -0.70523  -0.70079
 Alpha  occ. eigenvalues --   -0.69698  -0.69257  -0.68716  -0.67655  -0.67440
 Alpha  occ. eigenvalues --   -0.67306  -0.67161  -0.66631  -0.66472  -0.66257
 Alpha  occ. eigenvalues --   -0.66051  -0.64304  -0.63823  -0.62436  -0.62150
 Alpha  occ. eigenvalues --   -0.61712  -0.61562  -0.61305  -0.60893  -0.60751
 Alpha  occ. eigenvalues --   -0.60119  -0.60116  -0.59771  -0.59558  -0.59226
 Alpha  occ. eigenvalues --   -0.58001  -0.57806  -0.57497  -0.57359  -0.57315
 Alpha  occ. eigenvalues --   -0.57182  -0.56772  -0.56609  -0.56131  -0.56069
 Alpha  occ. eigenvalues --   -0.55536  -0.55381  -0.55327  -0.54947  -0.54879
 Alpha  occ. eigenvalues --   -0.54621  -0.54444  -0.54351  -0.54107  -0.54083
 Alpha  occ. eigenvalues --   -0.53849  -0.53716  -0.53566  -0.53488  -0.53324
 Alpha  occ. eigenvalues --   -0.53234  -0.53222  -0.52701  -0.52347  -0.52138
 Alpha  occ. eigenvalues --   -0.52025  -0.52017  -0.51761  -0.51565  -0.51455
 Alpha  occ. eigenvalues --   -0.51447  -0.51314  -0.51252  -0.51060  -0.50992
 Alpha  occ. eigenvalues --   -0.50541  -0.50359  -0.50244  -0.50212  -0.49915
 Alpha  occ. eigenvalues --   -0.49890  -0.49741  -0.49550  -0.49426  -0.48977
 Alpha  occ. eigenvalues --   -0.48907  -0.48787  -0.48526  -0.48386  -0.48201
 Alpha  occ. eigenvalues --   -0.48084  -0.48063  -0.48056  -0.47839  -0.47762
 Alpha  occ. eigenvalues --   -0.47508  -0.47436  -0.47254  -0.47146  -0.47062
 Alpha  occ. eigenvalues --   -0.46886  -0.46566  -0.46495  -0.46291  -0.46110
 Alpha  occ. eigenvalues --   -0.46013  -0.45670  -0.45615  -0.45376  -0.45303
 Alpha  occ. eigenvalues --   -0.45275  -0.45215  -0.45011  -0.44860  -0.44727
 Alpha  occ. eigenvalues --   -0.44606  -0.44410  -0.44316  -0.44046  -0.43960
 Alpha  occ. eigenvalues --   -0.43801  -0.43528  -0.43458  -0.43387  -0.43375
 Alpha  occ. eigenvalues --   -0.43317  -0.43099  -0.42814  -0.42395  -0.42247
 Alpha  occ. eigenvalues --   -0.42130  -0.41663  -0.41053  -0.41001  -0.40609
 Alpha  occ. eigenvalues --   -0.40247  -0.40033  -0.39972  -0.39826  -0.39616
 Alpha  occ. eigenvalues --   -0.39167  -0.38959  -0.38667  -0.38611  -0.38372
 Alpha  occ. eigenvalues --   -0.38232  -0.37855  -0.36439  -0.36420  -0.36293
 Alpha  occ. eigenvalues --   -0.36057  -0.35665  -0.35079  -0.33847  -0.33415
 Alpha  occ. eigenvalues --   -0.33293  -0.33264  -0.33143  -0.32576  -0.32392
 Alpha  occ. eigenvalues --   -0.32234  -0.32202  -0.31781  -0.26122  -0.25920
 Alpha  occ. eigenvalues --   -0.23412  -0.22600
 Alpha virt. eigenvalues --   -0.07551  -0.06826   0.00465   0.00523   0.02468
 Alpha virt. eigenvalues --    0.02577   0.04525   0.04562   0.04783   0.05895
 Alpha virt. eigenvalues --    0.06715   0.07538   0.07895   0.08060   0.08791

 Mulliken charges:
               1
     1  Mg   0.984016
     2  C    0.016819
     3  C   -0.089960
     4  C   -0.082511
     5  C   -0.106017
     6  N   -0.316798
     7  C    0.009694
     8  C   -0.040590
     9  C   -0.128953
    10  C    0.104233
    11  C   -0.004728
    12  C    0.028154
    13  C   -0.147790
    14  H    0.026076
    15  N   -0.453081
    16  C    0.111628
    17  C   -0.155620
    18  C   -0.103433
    19  C    0.123666
    20  C    0.045764
    21  C    0.084778
    22  O   -0.233043
    23  C   -0.023395
    24  N   -0.364519
    25  C    0.051555
    26  C   -0.052990
    27  C   -0.060184
    28  C    0.046696
    29  C    0.044642
    30  C   -0.025412
    31  C   -0.034925
    32  N   -0.448270
    33  C    0.163652
    34  C   -0.168912
    35  C   -0.084417
    36  C    0.117383
    37  C    0.077045
    38  C    0.137603
    39  O   -0.142205
    40  C   -0.138926
    41  C    0.283437
    42  O   -0.249116
    43  O   -0.383359
    44  C    0.147019
    45  H   -0.013071
    46  H    0.021639
    47  H   -0.009707
    48  H    0.043018
    49  H    0.044035
    50  H    0.031214
    51  H    0.051246
    52  H    0.038062
    53  H    0.037899
    54  H    0.036948
    55  H    0.053902
    56  H    0.051454
    57  H    0.057708
    58  H    0.063552
    59  H    0.032713
    60  H    0.059341
    61  H    0.038679
    62  H    0.062569
    63  H    0.024376
    64  H    0.023880
    65  H    0.039155
    66  H    0.044492
    67  H    0.032105
    68  H    0.026718
    69  H    0.023445
    70  H    0.026944
    71  H    0.051693
    72  H    0.040146
    73  H    0.057373
    74  H    0.036637
    75  H    0.074616
    76  H    0.075920
    77  H    0.054267
    78  H    0.040553
    79  H    0.061777
    80  Mg   0.945687
    81  C   -0.040714
    82  C   -0.093392
    83  C   -0.065122
    84  C   -0.068522
    85  N   -0.372042
    86  C    0.009163
    87  C   -0.037842
    88  C   -0.103044
    89  C    0.075383
    90  C    0.021453
    91  C    0.015420
    92  C   -0.142009
    93  H    0.025716
    94  N   -0.445245
    95  C    0.174559
    96  C   -0.128412
    97  C   -0.081787
    98  C    0.149762
    99  C    0.017982
   100  C    0.023440
   101  O   -0.210413
   102  C   -0.005996
   103  N   -0.331047
   104  C    0.048304
   105  C   -0.089031
   106  C   -0.066931
   107  C    0.056011
   108  C    0.021704
   109  C   -0.041394
   110  C   -0.066534
   111  N   -0.411776
   112  C    0.080709
   113  C   -0.175965
   114  C   -0.085158
   115  C    0.178189
   116  C    0.073480
   117  C    0.147758
   118  O   -0.174253
   119  C   -0.066682
   120  C    0.252350
   121  O   -0.231229
   122  O   -0.382088
   123  C    0.126236
   124  H   -0.009964
   125  H    0.025883
   126  H   -0.003886
   127  H    0.040954
   128  H    0.033953
   129  H    0.030248
   130  H    0.043348
   131  H    0.031374
   132  H    0.042738
   133  H    0.032983
   134  H    0.067833
   135  H    0.036381
   136  H    0.048995
   137  H    0.027032
   138  H    0.053847
   139  H    0.041761
   140  H    0.056549
   141  H    0.049673
   142  H    0.042146
   143  H    0.039955
   144  H    0.039828
   145  H    0.057670
   146  H    0.036736
   147  H    0.045253
   148  H    0.027649
   149  H    0.048327
   150  H    0.041041
   151  H    0.039439
   152  H    0.051873
   153  H    0.041800
   154  H    0.060838
   155  H    0.062938
   156  H    0.052997
   157  H    0.061580
   158  H    0.073548
 Sum of Mulliken charges =  -0.00000

 Dipole moment (field-independent basis, Debye):
    X=              0.2886    Y=              1.5242    Z=              0.7310  Tot=              1.7149
 Quadrupole moment (field-independent basis, Debye-Ang):
   XX=           -807.9872   YY=           -472.0084   ZZ=           -515.3117
   XY=             16.1397   XZ=             69.5301   YZ=             -5.9697

 Normal termination of Gaussian 16 at Sat Sep 18 20:44:16 2021.
