 Gaussian 16, Revision A.03,
 Gaussian 16:  ES64L-G16RevA.03 25-Dec-2016

 --------------------------------
 #p wB97XD/Def2SVP td=(nstates=5)
 --------------------------------

 --------------------------------
 TDDFT excited states in gaussian
 --------------------------------
 Symbolic Z-matrix:
 Charge =  0 Multiplicity = 1

                         Standard orientation:
 ---------------------------------------------------------------------
 Center     Atomic      Atomic             Coordinates (Angstroms)
 Number     Number       Type             X           Y           Z
 ---------------------------------------------------------------------
      1         12           0       16.314430    0.779212    0.027564
      2          6           0       18.460085   -1.832198    0.846170
      3          6           0       13.840394   -1.509717   -0.591155
      4          6           0       14.365260    3.351311   -1.067551
      5          6           0       19.100037    2.939331    0.483203
      6          7           0       16.176497   -1.408548    0.082620
      7          6           0       17.156821   -2.233337    0.567873
      8          6           0       16.565846   -3.645233    0.584843
      9          6           0       15.239234   -3.546037   -0.146959
     10          6           0       15.055527   -2.033294   -0.189798
     11          6           0       15.070536   -4.210070   -1.487140
     12          6           0       16.479487   -4.340209    2.026298
     13          6           0       15.682420   -5.682724    2.089445
     14          1           0       16.453349   -7.013358    1.886601
     15          7           0       14.332992    0.892885   -0.578909
     16          6           0       13.492861   -0.148616   -0.800271
     17          6           0       12.265236    0.411666   -1.302354
     18          6           0       12.430221    1.821040   -1.442548
     19          6           0       13.741961    2.087203   -1.054162
     20          6           0       11.094680   -0.473322   -1.601307
     21          6           0       11.406358    2.811431   -2.069837
     22          8           0       11.740302    3.913076   -2.467869
     23          6           0       10.019484    2.469846   -2.341448
     24          7           0       16.679698    2.724616   -0.224063
     25          6           0       15.717990    3.641143   -0.648123
     26          6           0       16.249942    5.084621   -0.672831
     27          6           0       17.615596    4.929965    0.079022
     28          6           0       17.784548    3.421545    0.156409
     29          6           0       16.187819    5.790128   -1.964072
     30          6           0       17.832516    5.685925    1.504362
     31          6           0       18.961480    6.705530    1.682399
     32          7           0       18.448543    0.615083    0.518135
     33          6           0       19.406263    1.582615    0.638500
     34          6           0       20.664220    1.020868    0.999272
     35          6           0       20.328338   -0.375689    1.176113
     36          6           0       18.975209   -0.564491    0.777914
     37          6           0       21.897546    1.809529    1.225067
     38          6           0       20.851683   -1.640864    1.637693
     39          8           0       21.907136   -1.991117    2.128051
     40          6           0       19.594719   -2.670729    1.415829
     41          6           0       20.008085   -3.879093    0.657683
     42          8           0       20.352243   -3.859498   -0.503739
     43          8           0       19.944437   -4.999147    1.398810
     44          6           0       20.091766   -6.318759    0.672812
     45          1           0       13.032366   -2.229743   -0.738329
     46          1           0       13.721908    4.155890   -1.429295
     47          1           0       19.812326    3.759518    0.596150
     48          1           0       17.314993   -4.166314   -0.011112
     49          1           0       14.461785   -4.019008    0.452500
     50          1           0       15.082674   -3.323575   -2.120492
     51          1           0       14.165082   -4.814226   -1.545954
     52          1           0       15.951481   -4.780278   -1.782711
     53          1           0       15.968005   -3.571976    2.606603
     54          1           0       17.482937   -4.516277    2.412047
     55          1           0       14.905622   -5.725675    1.327035
     56          1           0       15.177796   -5.724651    3.054681
     57          1           0       11.169182   -1.531623   -1.349271
     58          1           0       10.991558   -0.462526   -2.685860
     59          1           0       10.153110   -0.081971   -1.215585
     60          1           0        9.776788    1.540911   -2.856446
     61          1           0        9.432271    3.246987   -2.830493
     62          1           0        9.593799    2.453159   -1.338365
     63          1           0       15.520525    5.514269    0.014337
     64          1           0       18.282569    5.260585   -0.717019
     65          1           0       15.539426    6.664970   -2.019470
     66          1           0       15.847678    5.072762   -2.711384
     67          1           0       17.143876    6.193972   -2.296951
     68          1           0       17.997806    4.915696    2.257465
     69          1           0       16.986304    6.239348    1.913251
     70          1           0       19.824783    6.342125    2.240453
     71          1           0       18.640204    7.690346    2.020357
     72          1           0       19.405077    6.870052    0.700337
     73          1           0       21.999397    2.529962    0.413805
     74          1           0       22.782193    1.183639    1.339271
     75          1           0       21.698455    2.488226    2.055049
     76          1           0       19.322699   -3.010284    2.414708
     77          1           0       20.370633   -6.991280    1.483701
     78          1           0       20.871223   -6.215728   -0.081857
     79          1           0       19.103713   -6.575433    0.290468
     80         12           0      -16.695578    0.559108    0.522418
     81          6           0      -15.190181   -2.161012   -1.297890
     82          6           0      -18.085448   -1.650757    2.605818
     83          6           0      -18.709022    3.029339    1.559120
     84          6           0      -15.541066    2.666980   -2.032623
     85          7           0      -16.675482   -1.615075    0.588268
     86          6           0      -15.860025   -2.522533   -0.109183
     87          6           0      -15.917031   -3.959402    0.536352
     88          6           0      -16.899102   -3.752451    1.728943
     89          6           0      -17.205586   -2.231813    1.682874
     90          6           0      -18.158167   -4.581678    1.740799
     91          6           0      -14.450714   -4.530531    0.927451
     92          6           0      -14.121755   -5.921964    0.372609
     93          1           0      -13.772425   -6.985456    1.479094
     94          7           0      -18.103603    0.702701    1.999829
     95          6           0      -18.560537   -0.301671    2.754570
     96          6           0      -19.597932    0.150696    3.683157
     97          6           0      -19.834452    1.513776    3.291991
     98          6           0      -18.875191    1.815077    2.224227
     99          6           0      -20.207340   -0.715416    4.700360
    100          6           0      -20.986642    2.394405    3.869720
    101          8           0      -21.119128    3.567494    3.563365
    102          6           0      -21.987942    1.875328    4.851723
    103          7           0      -17.042312    2.494601   -0.133395
    104          6           0      -17.856721    3.382091    0.561791
    105          6           0      -17.785867    4.814491   -0.062220
    106          6           0      -16.506308    4.732512   -0.975640
    107          6           0      -16.298170    3.218960   -1.022559
    108          6           0      -19.085022    5.393091   -0.711704
    109          6           0      -15.261941    5.457895   -0.394221
    110          6           0      -14.365341    6.223743   -1.334064
    111          7           0      -15.636661    0.331605   -1.327396
    112          6           0      -15.252742    1.276179   -2.236435
    113          6           0      -14.352647    0.612121   -3.277436
    114          6           0      -14.263104   -0.710990   -2.918146
    115          6           0      -15.115504   -0.849850   -1.769495
    116          6           0      -13.656229    1.389929   -4.370806
    117          6           0      -13.726069   -2.022136   -3.235934
    118          8           0      -12.970274   -2.252974   -4.202882
    119          6           0      -14.408164   -3.102495   -2.202737
    120          6           0      -15.346916   -4.097242   -2.852944
    121          8           0      -16.296419   -3.710118   -3.562474
    122          8           0      -14.912018   -5.415536   -2.710199
    123          6           0      -15.551184   -6.315129   -3.663487
    124          1           0      -18.484049   -2.301440    3.386693
    125          1           0      -19.354841    3.790232    2.001552
    126          1           0      -15.118635    3.403551   -2.719939
    127          1           0      -16.326926   -4.562456   -0.273603
    128          1           0      -16.372463   -4.164515    2.590829
    129          1           0      -18.261882   -5.217865    0.861714
    130          1           0      -18.890753   -3.789237    1.591446
    131          1           0      -18.243470   -5.224479    2.617463
    132          1           0      -14.472335   -4.515513    2.016778
    133          1           0      -13.699144   -3.789039    0.657772
    134          1           0      -13.328612   -5.783370   -0.362112
    135          1           0      -14.993653   -6.311634   -0.154352
    136          1           0      -21.288113   -0.850638    4.728101
    137          1           0      -20.104319   -0.153416    5.627909
    138          1           0      -19.663553   -1.633976    4.922002
    139          1           0      -21.401502    1.581841    5.723213
    140          1           0      -22.399485    0.962207    4.420763
    141          1           0      -22.703269    2.683937    4.996613
    142          1           0      -17.556074    5.452986    0.790821
    143          1           0      -16.700369    5.030663   -2.005684
    144          1           0      -19.854716    4.663889   -0.459870
    145          1           0      -18.999668    5.598879   -1.778311
    146          1           0      -19.448567    6.276696   -0.185670
    147          1           0      -14.758157    4.578359    0.006214
    148          1           0      -15.468327    6.115241    0.450657
    149          1           0      -14.124324    7.151599   -0.815191
    150          1           0      -14.857854    6.499247   -2.267161
    151          1           0      -13.425760    5.671484   -1.364199
    152          1           0      -13.962116    2.430887   -4.267808
    153          1           0      -14.053076    1.054938   -5.328875
    154          1           0      -12.582763    1.208422   -4.321609
    155          1           0      -13.609632   -3.592708   -1.645827
    156          1           0      -14.898599   -6.710778   -4.440514
    157          1           0      -16.425782   -5.892266   -4.158026
    158          1           0      -15.917174   -7.160241   -3.081010
 ---------------------------------------------------------------------

 SCF Done:  E(RwB97XD) =  -4070.59916953     A.U. after   19 cycles

 Excitation energies and oscillator strengths:

 Excited State   1:      Singlet-A      1.6379 eV  756.99 nm  f=0.5263  <S**2>=0.000
     310 -> 315        0.16563
     311 -> 313        0.61372
     312 -> 314       -0.30215
     310 <- 315        0.10565
 This state for optimization and/or second-order correction.
 Total Energy, E(TD-HF/TD-DFT) =  -4070.53897897
 Copying the excited state density for this state as the 1-particle RhoCI density.

 Excited State   2:      Singlet-A      1.6419 eV  755.14 nm  f=0.2884  <S**2>=0.000
     309 -> 316        0.16053
     311 -> 313        0.30096
     312 -> 314        0.61572
     309 <- 316        0.10483

 Excited State   3:      Singlet-A      2.1629 eV  573.23 nm  f=0.0908  <S**2>=0.000
     310 -> 313        0.63065
     311 -> 315       -0.30290

 Excited State   4:      Singlet-A      2.2310 eV  555.74 nm  f=0.0893  <S**2>=0.000
     309 -> 314        0.62832
     312 -> 316       -0.31485

 Excited State   5:      Singlet-A      3.2556 eV  380.84 nm  f=0.0003  <S**2>=0.000
     307 -> 313       -0.22834
     308 -> 313        0.64114

 The electronic state is 1-A.
 Alpha  occ. eigenvalues --  -46.94799 -46.94223 -19.31996 -19.29635 -19.25879
 Alpha  occ. eigenvalues --  -19.25128 -19.24104 -19.23719 -19.23580 -19.23199
 Alpha  occ. eigenvalues --  -14.47334 -14.47245 -14.46616 -14.46308 -14.44364
 Alpha  occ. eigenvalues --  -14.43991 -14.43690 -14.43026 -10.44780 -10.41796
 Alpha  occ. eigenvalues --  -10.40672 -10.39548 -10.38910 -10.38675 -10.35859
 Alpha  occ. eigenvalues --  -10.35727 -10.35664 -10.35544 -10.35137 -10.35121
 Alpha  occ. eigenvalues --  -10.35020 -10.34794 -10.34448 -10.34415 -10.34174
 Alpha  occ. eigenvalues --  -10.34101 -10.33863 -10.33825 -10.33746 -10.33599
 Alpha  occ. eigenvalues --  -10.33540 -10.33243 -10.33118 -10.33083 -10.32986
 Alpha  occ. eigenvalues --  -10.32707 -10.32455 -10.32397 -10.32238 -10.32205
 Alpha  occ. eigenvalues --  -10.32178 -10.32107 -10.31799 -10.31630 -10.31577
 Alpha  occ. eigenvalues --  -10.31557 -10.31489 -10.31472 -10.31349 -10.31330
 Alpha  occ. eigenvalues --  -10.31317 -10.31234 -10.31196 -10.31133 -10.31069
 Alpha  occ. eigenvalues --  -10.31050 -10.31006 -10.30967 -10.30953 -10.30914
 Alpha  occ. eigenvalues --  -10.30891 -10.30607 -10.30127 -10.30110 -10.30044
 Alpha  occ. eigenvalues --  -10.30012 -10.29896 -10.29879 -10.29591 -10.29414
 Alpha  occ. eigenvalues --  -10.29402 -10.29397 -10.29327 -10.29308 -10.29296
 Alpha  occ. eigenvalues --  -10.29261  -3.20874  -3.20300  -1.94446  -1.93984
 Alpha  occ. eigenvalues --   -1.93911  -1.93874  -1.93425  -1.93277  -1.18591
 Alpha  occ. eigenvalues --   -1.18014  -1.13195  -1.12338  -1.11738  -1.11405
 Alpha  occ. eigenvalues --   -1.10232  -1.08922  -1.07236  -1.06131  -1.05984
 Alpha  occ. eigenvalues --   -1.05389  -1.05339  -1.04694  -1.04415  -1.03970
 Alpha  occ. eigenvalues --   -0.94697  -0.94399  -0.91071  -0.91052  -0.90666
 Alpha  occ. eigenvalues --   -0.90579  -0.90278  -0.89978  -0.89497  -0.89346
 Alpha  occ. eigenvalues --   -0.89193  -0.88917  -0.88649  -0.88137  -0.86536
 Alpha  occ. eigenvalues --   -0.86254  -0.85614  -0.85604  -0.84678  -0.84560
 Alpha  occ. eigenvalues --   -0.84375  -0.83887  -0.83345  -0.83224  -0.82710
 Alpha  occ. eigenvalues --   -0.82253  -0.80764  -0.80439  -0.79717  -0.79595
 Alpha  occ. eigenvalues --   -0.79199  -0.78936  -0.78203  -0.77836  -0.77098
 Alpha  occ. eigenvalues --   -0.76709  -0.74772  -0.74517  -0.73798  -0.73007
 Alpha  occ. eigenvalues --   -0.71304  -0.71072  -0.70841  -0.70392  -0.70231
 Alpha  occ. eigenvalues --   -0.69900  -0.68934  -0.68737  -0.67542  -0.67372
 Alpha  occ. eigenvalues --   -0.67321  -0.67001  -0.66959  -0.66616  -0.66420
 Alpha  occ. eigenvalues --   -0.66207  -0.64655  -0.63424  -0.62532  -0.62310
 Alpha  occ. eigenvalues --   -0.61811  -0.61705  -0.60964  -0.60949  -0.60818
 Alpha  occ. eigenvalues --   -0.60561  -0.60403  -0.59967  -0.59377  -0.59232
 Alpha  occ. eigenvalues --   -0.58335  -0.58309  -0.57751  -0.57468  -0.57292
 Alpha  occ. eigenvalues --   -0.57112  -0.56914  -0.56719  -0.56489  -0.55766
 Alpha  occ. eigenvalues --   -0.55763  -0.55504  -0.55174  -0.55104  -0.54905
 Alpha  occ. eigenvalues --   -0.54598  -0.54542  -0.54412  -0.54233  -0.54031
 Alpha  occ. eigenvalues --   -0.53820  -0.53605  -0.53507  -0.53250  -0.53240
 Alpha  occ. eigenvalues --   -0.53124  -0.52917  -0.52834  -0.52770  -0.52453
 Alpha  occ. eigenvalues --   -0.52263  -0.52240  -0.51843  -0.51621  -0.51399
 Alpha  occ. eigenvalues --   -0.51383  -0.51258  -0.51126  -0.51049  -0.50907
 Alpha  occ. eigenvalues --   -0.50784  -0.50627  -0.50552  -0.50320  -0.50177
 Alpha  occ. eigenvalues --   -0.50137  -0.49926  -0.49648  -0.49375  -0.49243
 Alpha  occ. eigenvalues --   -0.49048  -0.48984  -0.48778  -0.48742  -0.48509
 Alpha  occ. eigenvalues --   -0.48504  -0.48485  -0.48175  -0.48021  -0.48016
 Alpha  occ. eigenvalues --   -0.47949  -0.47658  -0.47381  -0.47076  -0.47027
 Alpha  occ. eigenvalues --   -0.46739  -0.46564  -0.46379  -0.46328  -0.46189
 Alpha  occ. eigenvalues --   -0.46134  -0.46007  -0.45925  -0.45775  -0.45651
 Alpha  occ. eigenvalues --   -0.45613  -0.45280  -0.45211  -0.45013  -0.44876
 Alpha  occ. eigenvalues --   -0.44794  -0.44660  -0.44650  -0.43979  -0.43779
 Alpha  occ. eigenvalues --   -0.43730  -0.43692  -0.43466  -0.43219  -0.43093
 Alpha  occ. eigenvalues --   -0.42827  -0.42743  -0.42514  -0.42290  -0.42152
 Alpha  occ. eigenvalues --   -0.42106  -0.41486  -0.41443  -0.41189  -0.41085
 Alpha  occ. eigenvalues --   -0.40702  -0.40265  -0.39804  -0.39758  -0.39548
 Alpha  occ. eigenvalues --   -0.39491  -0.39213  -0.38895  -0.38561  -0.38285
 Alpha  occ. eigenvalues --   -0.38095  -0.38068  -0.37144  -0.36493  -0.36221
 Alpha  occ. eigenvalues --   -0.36042  -0.35219  -0.34973  -0.33767  -0.33571
 Alpha  occ. eigenvalues --   -0.33258  -0.33180  -0.32665  -0.32631  -0.32226
 Alpha  occ. eigenvalues --   -0.31994  -0.31904  -0.31218  -0.26155  -0.26126
 Alpha  occ. eigenvalues --   -0.22931  -0.22636
 Alpha virt. eigenvalues --   -0.07160  -0.06824   0.00035   0.00536   0.01916
 Alpha virt. eigenvalues --    0.02677   0.04230   0.04825   0.04829   0.05054
 Alpha virt. eigenvalues --    0.06475   0.06936   0.07338   0.07928   0.07953

 Mulliken charges:
               1
     1  Mg   0.969739
     2  C    0.027077
     3  C   -0.088562
     4  C   -0.071708
     5  C   -0.105533
     6  N   -0.331528
     7  C   -0.006698
     8  C   -0.044354
     9  C   -0.151617
    10  C    0.059751
    11  C    0.050748
    12  C    0.000339
    13  C   -0.115536
    14  H    0.029155
    15  N   -0.488116
    16  C    0.172361
    17  C   -0.166751
    18  C   -0.057463
    19  C    0.125845
    20  C    0.053392
    21  C    0.071606
    22  O   -0.233732
    23  C   -0.004490
    24  N   -0.422788
    25  C    0.060577
    26  C   -0.086684
    27  C   -0.053573
    28  C    0.048574
    29  C    0.042968
    30  C   -0.002761
    31  C   -0.069042
    32  N   -0.373810
    33  C    0.159989
    34  C   -0.166751
    35  C   -0.076277
    36  C    0.113057
    37  C    0.102530
    38  C    0.145440
    39  O   -0.193146
    40  C   -0.138600
    41  C    0.241262
    42  O   -0.254336
    43  O   -0.372495
    44  C    0.133549
    45  H   -0.016205
    46  H    0.028690
    47  H    0.001706
    48  H    0.035369
    49  H    0.021831
    50  H    0.039195
    51  H    0.043611
    52  H    0.038591
    53  H    0.034463
    54  H    0.060895
    55  H    0.043707
    56  H    0.059077
    57  H    0.039668
    58  H    0.049939
    59  H    0.047149
    60  H    0.056643
    61  H    0.050177
    62  H    0.049702
    63  H    0.038370
    64  H    0.031812
    65  H    0.040567
    66  H    0.046764
    67  H    0.027947
    68  H    0.036086
    69  H    0.035504
    70  H    0.039388
    71  H    0.045750
    72  H    0.018546
    73  H    0.034829
    74  H    0.072750
    75  H    0.044340
    76  H    0.067390
    77  H    0.062646
    78  H    0.082005
    79  H    0.059491
    80  Mg   0.976049
    81  C   -0.099750
    82  C   -0.080636
    83  C   -0.088158
    84  C   -0.101387
    85  N   -0.370342
    86  C   -0.011519
    87  C   -0.072342
    88  C   -0.107060
    89  C    0.104471
    90  C    0.024223
    91  C    0.006711
    92  C   -0.109047
    93  H    0.027701
    94  N   -0.454630
    95  C    0.113830
    96  C   -0.149570
    97  C   -0.076211
    98  C    0.118205
    99  C    0.069352
   100  C    0.031514
   101  O   -0.238297
   102  C    0.011978
   103  N   -0.401128
   104  C    0.093386
   105  C   -0.058176
   106  C   -0.103784
   107  C    0.063996
   108  C    0.035186
   109  C   -0.016662
   110  C   -0.026194
   111  N   -0.388660
   112  C    0.149185
   113  C   -0.228865
   114  C    0.015700
   115  C    0.154331
   116  C    0.098523
   117  C    0.146720
   118  O   -0.221301
   119  C   -0.037249
   120  C    0.292830
   121  O   -0.256235
   122  O   -0.367220
   123  C    0.121054
   124  H   -0.014021
   125  H    0.016181
   126  H   -0.003787
   127  H    0.041641
   128  H    0.034159
   129  H    0.028935
   130  H    0.041621
   131  H    0.043008
   132  H    0.031963
   133  H    0.037902
   134  H    0.064334
   135  H    0.054632
   136  H    0.046885
   137  H    0.028334
   138  H    0.042619
   139  H    0.049380
   140  H    0.052033
   141  H    0.067784
   142  H    0.030988
   143  H    0.029223
   144  H    0.038609
   145  H    0.045377
   146  H    0.035556
   147  H    0.029289
   148  H    0.034965
   149  H    0.028940
   150  H    0.041904
   151  H    0.043730
   152  H    0.023035
   153  H    0.059049
   154  H    0.066970
   155  H    0.058043
   156  H    0.063417
   157  H    0.072136
   158  H    0.044644
 Sum of Mulliken charges =  -0.00000

 Dipole moment (field-independent basis, Debye):
    X=             -5.1156    Y=             -0.7701    Z=              4.3044  Tot=              6.7298
 Quadrupole moment (field-independent basis, Debye-Ang):
   XX=           -717.0622   YY=           -454.6497   ZZ=           -519.9320
   XY=             69.1902   XZ=            -48.2495   YZ=            -10.0243

 Normal termination of Gaussian 16 at Mon Sep 20 03:41:09 2021.
