 Gaussian 16, Revision A.03,
 Gaussian 16:  ES64L-G16RevA.03 25-Dec-2016

 --------------------------------
 #p wB97XD/Def2SVP td=(nstates=5)
 --------------------------------

 --------------------------------
 TDDFT excited states in gaussian
 --------------------------------
 Symbolic Z-matrix:
 Charge =  0 Multiplicity = 1

                         Standard orientation:
 ---------------------------------------------------------------------
 Center     Atomic      Atomic             Coordinates (Angstroms)
 Number     Number       Type             X           Y           Z
 ---------------------------------------------------------------------
      1         12           0      -25.987116   -0.347248    0.528792
      2          6           0      -24.887743    2.046400   -1.738184
      3          6           0      -26.867372   -2.347152   -2.035393
      4          6           0      -27.738587   -2.284433    2.677931
      5          6           0      -25.816001    2.105017    3.080431
      6          7           0      -25.771700   -0.124917   -1.576814
      7          6           0      -25.164024    0.836659   -2.354392
      8          6           0      -25.254745    0.457566   -3.858236
      9          6           0      -26.364288   -0.638426   -3.828396
     10          6           0      -26.261424   -1.155836   -2.401143
     11          6           0      -27.813942   -0.113767   -4.121369
     12          6           0      -23.829567    0.150492   -4.353384
     13          6           0      -23.516158    0.706683   -5.690088
     14          1           0      -22.090648    0.836181   -5.985498
     15          7           0      -26.932889   -2.170356    0.349923
     16          6           0      -27.131016   -2.857904   -0.804423
     17          6           0      -27.520822   -4.204840   -0.470819
     18          6           0      -27.778418   -4.186488    0.947434
     19          6           0      -27.560659   -2.801074    1.373911
     20          6           0      -27.726683   -5.277691   -1.479297
     21          6           0      -28.351608   -5.281285    1.905244
     22          8           0      -28.503224   -5.098704    3.114857
     23          6           0      -28.617486   -6.679181    1.420717
     24          7           0      -26.967924    0.055577    2.500901
     25          6           0      -27.533679   -1.026981    3.228210
     26          6           0      -27.816532   -0.699377    4.657011
     27          6           0      -26.980111    0.617457    4.758433
     28          6           0      -26.488167    0.924971    3.346570
     29          6           0      -29.338916   -0.549037    4.993152
     30          6           0      -25.755425    0.506413    5.738412
     31          6           0      -24.813668   -0.701862    5.502741
     32          7           0      -25.370179    1.626932    0.711236
     33          6           0      -25.308853    2.482341    1.822195
     34          6           0      -24.771483    3.706645    1.359014
     35          6           0      -24.574560    3.553362   -0.007719
     36          6           0      -24.960795    2.296474   -0.338750
     37          6           0      -24.441676    4.888529    2.214018
     38          6           0      -24.199978    4.239425   -1.154063
     39          8           0      -23.823720    5.418724   -1.282629
     40          6           0      -24.350472    3.323646   -2.406070
     41          6           0      -22.899748    3.250607   -2.976712
     42          8           0      -21.939847    2.672722   -2.436403
     43          8           0      -22.876398    3.945225   -4.181263
     44          6           0      -21.547741    4.240287   -4.805892
     45          1           0      -27.193293   -2.857751   -2.944058
     46          1           0      -28.150059   -2.819102    3.537408
     47          1           0      -25.545918    2.823180    3.857519
     48          1           0      -25.542053    1.325783   -4.450370
     49          1           0      -26.081010   -1.450336   -4.497559
     50          1           0      -27.898634    0.938780   -4.393199
     51          1           0      -28.426102   -0.159608   -3.221576
     52          1           0      -28.218155   -0.663068   -4.971405
     53          1           0      -23.796213   -0.929325   -4.491328
     54          1           0      -23.132855    0.502342   -3.592050
     55          1           0      -23.920942    1.718868   -5.687924
     56          1           0      -24.065191    0.136039   -6.438849
     57          1           0      -27.228914   -5.041894   -2.419704
     58          1           0      -28.788336   -5.526206   -1.498391
     59          1           0      -27.227519   -6.186209   -1.142173
     60          1           0      -29.377994   -7.060464    2.102530
     61          1           0      -27.729525   -7.302607    1.527934
     62          1           0      -29.023385   -6.691930    0.408715
     63          1           0      -27.403513   -1.418562    5.365711
     64          1           0      -27.636249    1.422727    5.090343
     65          1           0      -29.886205   -0.352206    4.070893
     66          1           0      -29.612539    0.247379    5.685396
     67          1           0      -29.816983   -1.420368    5.441665
     68          1           0      -26.177038    0.540509    6.743137
     69          1           0      -25.249170    1.463645    5.614317
     70          1           0      -23.788307   -0.399606    5.288785
     71          1           0      -25.236056   -1.268569    4.672496
     72          1           0      -24.759091   -1.366502    6.364414
     73          1           0      -24.994410    5.724784    1.786020
     74          1           0      -23.359787    5.019696    2.194267
     75          1           0      -24.778221    4.826892    3.249003
     76          1           0      -24.987456    3.836305   -3.126367
     77          1           0      -21.001621    4.843138   -4.080695
     78          1           0      -21.541273    4.777998   -5.753959
     79          1           0      -21.207530    3.207371   -4.880186
     80         12           0       26.543547    0.181468   -0.054605
     81          6           0       23.831069   -1.823860   -0.885425
     82          6           0       24.238546    2.919390   -0.102540
     83          6           0       28.882892    2.118790    1.202189
     84          6           0       28.395318   -2.730362    0.616154
     85          7           0       24.283259    0.464115   -0.331218
     86          6           0       23.431548   -0.530307   -0.757236
     87          6           0       22.013272    0.023821   -0.917559
     88          6           0       22.272441    1.555791   -0.928981
     89          6           0       23.670255    1.685341   -0.383420
     90          6           0       22.152154    2.330841   -2.299602
     91          6           0       21.059198   -0.427605    0.200461
     92          6           0       19.635260   -0.066502    0.012968
     93          1           0       18.568349   -0.919059    0.800333
     94          7           0       26.577691    2.260530    0.501645
     95          6           0       25.549398    3.208013    0.379213
     96          6           0       26.054088    4.473303    0.834658
     97          6           0       27.379363    4.231892    1.353773
     98          6           0       27.679041    2.801655    0.998820
     99          6           0       25.185731    5.760663    0.885227
    100          6           0       28.219870    5.326594    2.018731
    101          8           0       27.874938    6.496643    2.014358
    102          6           0       29.492387    4.953518    2.678279
    103          7           0       28.461133   -0.251079    0.580711
    104          6           0       29.240975    0.745090    1.014264
    105          6           0       30.584065    0.153022    1.605295
    106          6           0       30.452607   -1.414372    1.490426
    107          6           0       28.945805   -1.498880    0.886814
    108          6           0       31.920091    0.723699    1.061221
    109          6           0       30.546894   -2.062424    2.888332
    110          6           0       31.122681   -3.483552    2.911938
    111          7           0       26.255590   -1.898083   -0.100303
    112          6           0       27.112849   -2.948954    0.069717
    113          6           0       26.423403   -4.180113   -0.334492
    114          6           0       25.200141   -3.767220   -0.790044
    115          6           0       25.095799   -2.411031   -0.579073
    116          6           0       27.033225   -5.585136   -0.371674
    117          6           0       23.951984   -4.229611   -1.318186
    118          8           0       23.566823   -5.325900   -1.642503
    119          6           0       23.013564   -2.980686   -1.416142
    120          6           0       22.709227   -2.760422   -2.856736
    121          8           0       23.491707   -2.713589   -3.765021
    122          8           0       21.340233   -2.467786   -2.983801
    123          6           0       20.894355   -2.148887   -4.310240
    124          1           0       23.485344    3.697923   -0.237087
    125          1           0       29.756311    2.635787    1.606202
    126          1           0       28.966226   -3.652274    0.745954
    127          1           0       21.692699   -0.268362   -1.916623
    128          1           0       21.676545    2.144747   -0.232621
    129          1           0       21.484528    3.161657   -2.072294
    130          1           0       22.058253    1.741312   -3.211994
    131          1           0       23.117256    2.809669   -2.464485
    132          1           0       21.240403    0.013313    1.181070
    133          1           0       21.140362   -1.505341    0.342302
    134          1           0       19.436190   -0.131748   -1.056711
    135          1           0       19.503648    0.985856    0.264002
    136          1           0       25.026953    5.770447    1.964028
    137          1           0       24.178705    5.674395    0.476609
    138          1           0       25.532322    6.734672    0.539365
    139          1           0       29.231620    4.109202    3.316415
    140          1           0       29.797094    5.775622    3.326091
    141          1           0       30.145284    4.702457    1.841979
    142          1           0       30.585293    0.437543    2.657885
    143          1           0       31.146607   -1.888796    0.797334
    144          1           0       32.350947    1.363303    1.832182
    145          1           0       31.725093    1.211036    0.106506
    146          1           0       32.646237   -0.081784    0.951826
    147          1           0       29.525671   -2.051124    3.268371
    148          1           0       31.079686   -1.458935    3.623475
    149          1           0       31.973601   -3.388528    3.587351
    150          1           0       31.374483   -3.887873    1.931439
    151          1           0       30.420732   -4.167645    3.388942
    152          1           0       26.415598   -6.391760    0.021899
    153          1           0       27.950303   -5.443668    0.200704
    154          1           0       27.414140   -5.718167   -1.384371
    155          1           0       22.114292   -3.230555   -0.853006
    156          1           0       20.288007   -2.992349   -4.640544
    157          1           0       21.629564   -1.922896   -5.082945
    158          1           0       20.284815   -1.248567   -4.237774
 ---------------------------------------------------------------------

 SCF Done:  E(RwB97XD) =  -4070.61964627     A.U. after   19 cycles

 Excitation energies and oscillator strengths:

 Excited State   1:      Singlet-A      1.6038 eV  773.05 nm  f=0.3761  <S**2>=0.000
     310 -> 316       -0.16817
     312 -> 314        0.68668
     310 <- 316       -0.11353
 This state for optimization and/or second-order correction.
 Total Energy, E(TD-HF/TD-DFT) =  -4070.56070633
 Copying the excited state density for this state as the 1-particle RhoCI density.

 Excited State   2:      Singlet-A      1.7222 eV  719.91 nm  f=0.3963  <S**2>=0.000
     309 -> 315       -0.17622
     311 -> 313        0.68546
     309 <- 315       -0.11113

 Excited State   3:      Singlet-A      2.1619 eV  573.50 nm  f=0.1247  <S**2>=0.000
     310 -> 314        0.64152
     312 -> 316        0.27555

 Excited State   4:      Singlet-A      2.2425 eV  552.89 nm  f=0.1147  <S**2>=0.000
     309 -> 313        0.63526
     311 -> 315        0.29250

 Excited State   5:      Singlet-A      3.2512 eV  381.35 nm  f=0.0002  <S**2>=0.000
     306 -> 314        0.18480
     306 -> 317       -0.10987
     306 -> 319       -0.12704
     307 -> 314        0.55413
     308 -> 314       -0.31486

 The electronic state is 1-A.
 Alpha  occ. eigenvalues --  -46.96008 -46.94665 -19.30174 -19.29988 -19.25404
 Alpha  occ. eigenvalues --  -19.24982 -19.23757 -19.23737 -19.23527 -19.22753
 Alpha  occ. eigenvalues --  -14.47232 -14.46970 -14.46557 -14.46069 -14.44862
 Alpha  occ. eigenvalues --  -14.43918 -14.43649 -14.43113 -10.43941 -10.43334
 Alpha  occ. eigenvalues --  -10.39235 -10.38859 -10.38114 -10.37669 -10.36451
 Alpha  occ. eigenvalues --  -10.35728 -10.35716 -10.35336 -10.35193 -10.35058
 Alpha  occ. eigenvalues --  -10.35011 -10.34952 -10.34555 -10.34546 -10.34335
 Alpha  occ. eigenvalues --  -10.34230 -10.34213 -10.33792 -10.33368 -10.33161
 Alpha  occ. eigenvalues --  -10.33160 -10.32548 -10.32403 -10.32341 -10.32337
 Alpha  occ. eigenvalues --  -10.32325 -10.32275 -10.32271 -10.32243 -10.32240
 Alpha  occ. eigenvalues --  -10.32208 -10.32014 -10.31972 -10.31946 -10.31903
 Alpha  occ. eigenvalues --  -10.31818 -10.31800 -10.31768 -10.31612 -10.31603
 Alpha  occ. eigenvalues --  -10.31587 -10.31433 -10.31246 -10.31054 -10.30911
 Alpha  occ. eigenvalues --  -10.30891 -10.30786 -10.30709 -10.30526 -10.30493
 Alpha  occ. eigenvalues --  -10.30398 -10.30328 -10.30325 -10.30244 -10.30146
 Alpha  occ. eigenvalues --  -10.29981 -10.29961 -10.29872 -10.29780 -10.29687
 Alpha  occ. eigenvalues --  -10.29668 -10.29636 -10.29432 -10.29397 -10.27928
 Alpha  occ. eigenvalues --  -10.27816  -3.21885  -3.20694  -1.95477  -1.95009
 Alpha  occ. eigenvalues --   -1.94839  -1.94263  -1.93823  -1.93667  -1.18762
 Alpha  occ. eigenvalues --   -1.16597  -1.12527  -1.12377  -1.11659  -1.11020
 Alpha  occ. eigenvalues --   -1.10190  -1.08866  -1.06858  -1.06596  -1.05920
 Alpha  occ. eigenvalues --   -1.05837  -1.05734  -1.05520  -1.04865  -1.04232
 Alpha  occ. eigenvalues --   -0.95218  -0.94546  -0.91284  -0.91180  -0.91014
 Alpha  occ. eigenvalues --   -0.90914  -0.90709  -0.90452  -0.90017  -0.89704
 Alpha  occ. eigenvalues --   -0.89074  -0.88470  -0.88421  -0.87899  -0.87148
 Alpha  occ. eigenvalues --   -0.86488  -0.85917  -0.85441  -0.85085  -0.84523
 Alpha  occ. eigenvalues --   -0.84053  -0.83515  -0.83239  -0.82936  -0.82823
 Alpha  occ. eigenvalues --   -0.82346  -0.80148  -0.79712  -0.79264  -0.79066
 Alpha  occ. eigenvalues --   -0.78983  -0.78856  -0.78129  -0.77956  -0.77493
 Alpha  occ. eigenvalues --   -0.77389  -0.75239  -0.75208  -0.74035  -0.73998
 Alpha  occ. eigenvalues --   -0.71702  -0.71309  -0.70983  -0.70746  -0.69754
 Alpha  occ. eigenvalues --   -0.69516  -0.68759  -0.68483  -0.67991  -0.67554
 Alpha  occ. eigenvalues --   -0.67325  -0.66965  -0.66615  -0.66586  -0.66449
 Alpha  occ. eigenvalues --   -0.66038  -0.64669  -0.63593  -0.62306  -0.61874
 Alpha  occ. eigenvalues --   -0.61870  -0.61754  -0.61292  -0.61131  -0.60788
 Alpha  occ. eigenvalues --   -0.60448  -0.60431  -0.59565  -0.59557  -0.58959
 Alpha  occ. eigenvalues --   -0.58496  -0.57942  -0.57830  -0.57560  -0.57449
 Alpha  occ. eigenvalues --   -0.57264  -0.56967  -0.56831  -0.56722  -0.56316
 Alpha  occ. eigenvalues --   -0.55946  -0.55522  -0.55437  -0.55276  -0.55102
 Alpha  occ. eigenvalues --   -0.54962  -0.54892  -0.54764  -0.54575  -0.54377
 Alpha  occ. eigenvalues --   -0.53852  -0.53848  -0.53657  -0.53631  -0.53613
 Alpha  occ. eigenvalues --   -0.53391  -0.52807  -0.52649  -0.52415  -0.52300
 Alpha  occ. eigenvalues --   -0.52271  -0.52199  -0.51795  -0.51554  -0.51333
 Alpha  occ. eigenvalues --   -0.51242  -0.51091  -0.50966  -0.50827  -0.50814
 Alpha  occ. eigenvalues --   -0.50682  -0.50446  -0.50242  -0.50063  -0.50024
 Alpha  occ. eigenvalues --   -0.49900  -0.49634  -0.49480  -0.49330  -0.49318
 Alpha  occ. eigenvalues --   -0.49083  -0.48998  -0.48988  -0.48514  -0.48415
 Alpha  occ. eigenvalues --   -0.48333  -0.48201  -0.48079  -0.47886  -0.47781
 Alpha  occ. eigenvalues --   -0.47640  -0.47388  -0.47298  -0.47023  -0.46638
 Alpha  occ. eigenvalues --   -0.46541  -0.46401  -0.46079  -0.46072  -0.45864
 Alpha  occ. eigenvalues --   -0.45679  -0.45644  -0.45376  -0.45372  -0.45289
 Alpha  occ. eigenvalues --   -0.45160  -0.45114  -0.44997  -0.44879  -0.44636
 Alpha  occ. eigenvalues --   -0.44594  -0.44333  -0.44298  -0.44237  -0.44089
 Alpha  occ. eigenvalues --   -0.43854  -0.43820  -0.43749  -0.43506  -0.43409
 Alpha  occ. eigenvalues --   -0.43052  -0.42804  -0.42603  -0.42491  -0.42152
 Alpha  occ. eigenvalues --   -0.42151  -0.41861  -0.41792  -0.41600  -0.41051
 Alpha  occ. eigenvalues --   -0.40732  -0.40177  -0.40119  -0.39964  -0.39662
 Alpha  occ. eigenvalues --   -0.39283  -0.38892  -0.38884  -0.38536  -0.38529
 Alpha  occ. eigenvalues --   -0.38080  -0.38023  -0.37197  -0.36272  -0.36162
 Alpha  occ. eigenvalues --   -0.36099  -0.35921  -0.35465  -0.33990  -0.33533
 Alpha  occ. eigenvalues --   -0.33056  -0.32732  -0.32608  -0.32260  -0.32124
 Alpha  occ. eigenvalues --   -0.32045  -0.31911  -0.31534  -0.26609  -0.26154
 Alpha  occ. eigenvalues --   -0.23483  -0.22996
 Alpha virt. eigenvalues --   -0.07372  -0.07351  -0.00024   0.00437   0.02609
 Alpha virt. eigenvalues --    0.02989   0.04469   0.04828   0.05207   0.05405
 Alpha virt. eigenvalues --    0.06956   0.07138   0.07431   0.07583   0.08533

 Mulliken charges:
               1
     1  Mg   0.955604
     2  C   -0.066618
     3  C   -0.119245
     4  C   -0.020943
     5  C   -0.102756
     6  N   -0.406695
     7  C    0.019929
     8  C   -0.101627
     9  C   -0.087834
    10  C    0.034100
    11  C    0.034867
    12  C    0.039908
    13  C   -0.123685
    14  H    0.052822
    15  N   -0.463778
    16  C    0.229589
    17  C   -0.175478
    18  C   -0.078325
    19  C    0.188239
    20  C    0.068991
    21  C    0.055801
    22  O   -0.248562
    23  C   -0.006242
    24  N   -0.316511
    25  C   -0.057268
    26  C   -0.058063
    27  C   -0.099773
    28  C    0.111875
    29  C    0.018216
    30  C   -0.021909
    31  C   -0.053874
    32  N   -0.435004
    33  C    0.117017
    34  C   -0.197907
    35  C    0.053992
    36  C    0.194162
    37  C    0.092975
    38  C    0.016709
    39  O   -0.242787
    40  C   -0.028786
    41  C    0.287560
    42  O   -0.268766
    43  O   -0.389775
    44  C    0.142327
    45  H   -0.000947
    46  H    0.018622
    47  H    0.002579
    48  H    0.020114
    49  H    0.019458
    50  H    0.035608
    51  H    0.053067
    52  H    0.043476
    53  H    0.021636
    54  H    0.065552
    55  H    0.039938
    56  H    0.040158
    57  H    0.041127
    58  H    0.067752
    59  H    0.043175
    60  H    0.054706
    61  H    0.075067
    62  H    0.027229
    63  H    0.045771
    64  H    0.030920
    65  H    0.039593
    66  H    0.032774
    67  H    0.042655
    68  H    0.031243
    69  H    0.022888
    70  H    0.046454
    71  H    0.045735
    72  H    0.042279
    73  H    0.058139
    74  H    0.067993
    75  H    0.019620
    76  H    0.066937
    77  H    0.068309
    78  H    0.069552
    79  H    0.058349
    80  Mg   0.953656
    81  C   -0.018643
    82  C   -0.078080
    83  C   -0.102360
    84  C   -0.070728
    85  N   -0.331805
    86  C   -0.062159
    87  C    0.031521
    88  C   -0.153731
    89  C    0.038799
    90  C    0.036036
    91  C    0.038154
    92  C   -0.109476
    93  H    0.041420
    94  N   -0.434279
    95  C    0.181819
    96  C   -0.135679
    97  C   -0.121049
    98  C    0.236218
    99  C    0.062982
   100  C    0.024903
   101  O   -0.229580
   102  C    0.002007
   103  N   -0.396469
   104  C    0.068641
   105  C   -0.119387
   106  C   -0.096965
   107  C    0.094190
   108  C    0.022085
   109  C   -0.030760
   110  C   -0.043171
   111  N   -0.425067
   112  C    0.085897
   113  C   -0.233639
   114  C    0.018456
   115  C    0.142713
   116  C    0.107282
   117  C    0.094463
   118  O   -0.186577
   119  C   -0.073665
   120  C    0.259915
   121  O   -0.213124
   122  O   -0.378375
   123  C    0.124761
   124  H   -0.006365
   125  H   -0.019687
   126  H   -0.006018
   127  H    0.020788
   128  H    0.031389
   129  H    0.043457
   130  H    0.049291
   131  H    0.029115
   132  H    0.029825
   133  H    0.035460
   134  H    0.036425
   135  H    0.039800
   136  H    0.058597
   137  H    0.019607
   138  H    0.074520
   139  H    0.052418
   140  H    0.058022
   141  H    0.078979
   142  H    0.040398
   143  H    0.042189
   144  H    0.035902
   145  H    0.050038
   146  H    0.035375
   147  H    0.033120
   148  H    0.030002
   149  H    0.038272
   150  H    0.042319
   151  H    0.038963
   152  H    0.070612
   153  H    0.005444
   154  H    0.058169
   155  H    0.072864
   156  H    0.057127
   157  H    0.062207
   158  H    0.040228
 Sum of Mulliken charges =  -0.00000

 Dipole moment (field-independent basis, Debye):
    X=              0.2641    Y=             -0.7995    Z=             -0.4034  Tot=              0.9336
 Quadrupole moment (field-independent basis, Debye-Ang):
   XX=           -316.0130   YY=           -561.1494   ZZ=           -475.2234
   XY=             99.9195   XZ=             87.1420   YZ=             -2.1552

 Normal termination of Gaussian 16 at Sun Sep 19 11:29:32 2021.
