 Gaussian 16, Revision A.03,
 Gaussian 16:  ES64L-G16RevA.03 25-Dec-2016

 --------------------------------
 #p wB97XD/Def2SVP td=(nstates=5)
 --------------------------------

 --------------------------------
 TDDFT excited states in gaussian
 --------------------------------
 Symbolic Z-matrix:
 Charge =  0 Multiplicity = 1

                         Standard orientation:
 ---------------------------------------------------------------------
 Center     Atomic      Atomic             Coordinates (Angstroms)
 Number     Number       Type             X           Y           Z
 ---------------------------------------------------------------------
      1         12           0       -8.585984   -0.399584   -0.271185
      2          6           0       -6.931653    2.660996    0.592322
      3          6           0      -10.770917    1.327690   -2.010199
      4          6           0      -10.391657   -3.178788   -0.272522
      5          6           0       -6.234468   -2.026015    2.042651
      6          7           0       -8.782423    1.749865   -0.692571
      7          6           0       -8.033265    2.848710   -0.226903
      8          6           0       -8.551964    4.240446   -0.752411
      9          6           0       -9.802907    3.686925   -1.674574
     10          6           0       -9.813343    2.172835   -1.489031
     11          6           0      -11.196193    4.315274   -1.240540
     12          6           0       -7.494432    5.126757   -1.498089
     13          6           0       -8.059845    6.254810   -2.352758
     14          1           0       -7.729360    7.671342   -1.847983
     15          7           0      -10.301948   -0.881388   -1.127202
     16          6           0      -11.127260   -0.063862   -1.863018
     17          6           0      -12.278919   -0.768431   -2.385615
     18          6           0      -12.129885   -2.113058   -1.860839
     19          6           0      -10.833905   -2.105905   -1.093126
     20          6           0      -13.291365   -0.238951   -3.288377
     21          6           0      -13.008280   -3.337647   -2.049738
     22          8           0      -12.722989   -4.435798   -1.661934
     23          6           0      -14.339647   -3.063296   -2.697151
     24          7           0       -8.380572   -2.319892    0.796688
     25          6           0       -9.279315   -3.309924    0.566038
     26          6           0       -8.868172   -4.615315    1.298176
     27          6           0       -7.473755   -4.233678    1.906033
     28          6           0       -7.310260   -2.775287    1.523471
     29          6           0       -9.848067   -5.201996    2.370654
     30          6           0       -6.246904   -5.073820    1.403819
     31          6           0       -6.156070   -6.472568    2.053016
     32          7           0       -6.957392    0.118763    1.062899
     33          6           0       -6.090112   -0.618103    1.836113
     34          6           0       -5.098213    0.237711    2.354284
     35          6           0       -5.378271    1.497092    1.976040
     36          6           0       -6.562095    1.423079    1.181130
     37          6           0       -3.912510   -0.311359    3.136950
     38          6           0       -5.057818    2.926274    2.046924
     39          8           0       -4.178114    3.503298    2.632397
     40          6           0       -6.106919    3.732409    1.142244
     41          6           0       -6.962311    4.537808    2.067447
     42          8           0       -7.975802    4.266211    2.670860
     43          8           0       -6.372550    5.786130    2.089790
     44          6           0       -7.024379    6.824043    2.923516
     45          1           0      -11.572974    1.817771   -2.565847
     46          1           0      -11.100788   -4.006055   -0.190915
     47          1           0       -5.558683   -2.673484    2.606198
     48          1           0       -9.006064    4.762601    0.089920
     49          1           0       -9.623788    4.001155   -2.703078
     50          1           0      -11.751889    4.609848   -2.130646
     51          1           0      -11.206411    5.143149   -0.532085
     52          1           0      -11.839234    3.546437   -0.813285
     53          1           0       -6.958159    4.351051   -2.046257
     54          1           0       -6.689519    5.575106   -0.915267
     55          1           0       -9.144564    6.159818   -2.393605
     56          1           0       -7.564661    6.236841   -3.323224
     57          1           0      -13.084159   -0.854180   -4.163939
     58          1           0      -13.163341    0.833235   -3.437927
     59          1           0      -14.338825   -0.387840   -3.026940
     60          1           0      -14.258200   -3.228207   -3.771437
     61          1           0      -14.868904   -2.212967   -2.266142
     62          1           0      -15.003773   -3.759780   -2.186120
     63          1           0       -8.574687   -5.301583    0.503259
     64          1           0       -7.558907   -4.200984    2.992437
     65          1           0       -9.450775   -5.310758    3.380244
     66          1           0      -10.009892   -6.237080    2.070624
     67          1           0      -10.791230   -4.667555    2.484252
     68          1           0       -5.325474   -4.549205    1.654004
     69          1           0       -6.353374   -5.101395    0.318489
     70          1           0       -6.707582   -6.492313    2.993187
     71          1           0       -5.091767   -6.675714    2.171134
     72          1           0       -6.613294   -7.268744    1.464760
     73          1           0       -3.047147    0.346359    3.054623
     74          1           0       -3.692395   -1.317161    2.779018
     75          1           0       -4.189892   -0.478087    4.178033
     76          1           0       -5.605775    4.351670    0.397908
     77          1           0       -6.208680    7.371613    3.395478
     78          1           0       -7.693595    6.430703    3.688574
     79          1           0       -7.526574    7.388448    2.137189
     80         12           0        8.104571   -0.938442   -0.397049
     81          6           0        9.988697    2.136009   -0.071176
     82          6           0        5.462874    0.895794   -0.089811
     83          6           0        6.590436   -3.865654   -0.434061
     84          6           0       11.155087   -2.852591    0.092889
     85          7           0        7.792987    1.331672   -0.231879
     86          6           0        8.649826    2.405475   -0.106886
     87          6           0        7.878686    3.665544    0.055728
     88          6           0        6.485522    3.179091    0.531209
     89          6           0        6.572360    1.698400    0.091882
     90          6           0        6.257821    3.288134    2.054874
     91          6           0        7.730106    4.372620   -1.325900
     92          6           0        7.962695    5.933113   -1.345131
     93          1           0        8.300895    6.665458   -2.704292
     94          7           0        6.167421   -1.398188   -0.319103
     95          6           0        5.198142   -0.522396   -0.305871
     96          6           0        3.940662   -1.237603   -0.414981
     97          6           0        4.320920   -2.582175   -0.636829
     98          6           0        5.743272   -2.651609   -0.438465
     99          6           0        2.600929   -0.480632   -0.460962
    100          6           0        3.400373   -3.728950   -0.949090
    101          8           0        3.839070   -4.831797   -1.085617
    102          6           0        1.950855   -3.456437   -1.186822
    103          7           0        8.824466   -3.099798    0.097942
    104          6           0        7.940037   -4.056509   -0.176146
    105          6           0        8.577647   -5.390290   -0.288309
    106          6           0       10.051054   -5.039282    0.091521
    107          6           0       10.064269   -3.533612    0.114029
    108          6           0        7.930487   -6.584173    0.501676
    109          6           0       11.070728   -5.684678   -0.926137
    110          6           0       11.916087   -6.915072   -0.493774
    111          7           0       10.078314   -0.559270   -0.068778
    112          6           0       11.224983   -1.378123    0.034560
    113          6           0       12.427036   -0.526925    0.151106
    114          6           0       11.972354    0.783697    0.093066
    115          6           0       10.590613    0.752570    0.009868
    116          6           0       13.858057   -1.039130    0.444215
    117          6           0       12.466461    2.197915    0.121592
    118          8           0       13.564225    2.701106    0.164932
    119          6           0       11.167859    3.147514    0.189668
    120          6           0       11.281399    4.257819   -0.683111
    121          8           0       10.845654    4.230163   -1.842595
    122          8           0       11.947409    5.376275   -0.191698
    123          6           0       11.923692    6.641128   -0.988598
    124          1           0        4.495243    1.398526   -0.043317
    125          1           0        6.094154   -4.835218   -0.510950
    126          1           0       12.081091   -3.412771    0.231348
    127          1           0        8.298754    4.255113    0.871041
    128          1           0        5.620830    3.677708    0.093705
    129          1           0        5.412791    3.943231    2.268781
    130          1           0        7.170377    3.703108    2.481811
    131          1           0        6.098618    2.335316    2.560527
    132          1           0        6.701004    4.175429   -1.626736
    133          1           0        8.398318    3.841350   -2.003347
    134          1           0        8.733301    6.158965   -0.608569
    135          1           0        7.007600    6.309576   -0.976908
    136          1           0        2.156688   -0.628457   -1.446144
    137          1           0        2.642160    0.578828   -0.210428
    138          1           0        1.871846   -0.970231    0.184028
    139          1           0        1.783727   -2.812803   -2.050081
    140          1           0        1.425967   -2.885957   -0.420647
    141          1           0        1.453666   -4.396800   -1.426082
    142          1           0        8.560445   -5.674140   -1.340569
    143          1           0       10.234292   -5.330138    1.126121
    144          1           0        7.004641   -6.199502    0.928124
    145          1           0        8.557070   -7.102255    1.228540
    146          1           0        7.702119   -7.379608   -0.207913
    147          1           0       11.809730   -4.934045   -1.207686
    148          1           0       10.514335   -5.757731   -1.860576
    149          1           0       11.897376   -7.670901   -1.278763
    150          1           0       11.525605   -7.312568    0.443196
    151          1           0       12.960214   -6.633446   -0.352258
    152          1           0       13.960171   -2.018814   -0.021730
    153          1           0       13.959341   -1.219325    1.514688
    154          1           0       14.622490   -0.355176    0.074773
    155          1           0       11.071242    3.506350    1.213942
    156          1           0       10.906565    7.022462   -1.089272
    157          1           0       12.538162    6.561187   -1.884531
    158          1           0       12.327582    7.419463   -0.341289
 ---------------------------------------------------------------------

 SCF Done:  E(RwB97XD) =  -4070.58796470     A.U. after   19 cycles

 Excitation energies and oscillator strengths:

 Excited State   1:      Singlet-A      1.6335 eV  759.00 nm  f=0.5362  <S**2>=0.000
     309 -> 315       -0.18047
     311 -> 313       -0.12280
     312 -> 314        0.67344
     309 <- 315       -0.11552
 This state for optimization and/or second-order correction.
 Total Energy, E(TD-HF/TD-DFT) =  -4070.52793426
 Copying the excited state density for this state as the 1-particle RhoCI density.

 Excited State   2:      Singlet-A      1.6970 eV  730.59 nm  f=0.2727  <S**2>=0.000
     310 -> 316        0.16573
     311 -> 313        0.67559
     312 -> 314        0.12088
     310 <- 316        0.10857

 Excited State   3:      Singlet-A      2.1225 eV  584.13 nm  f=0.1873  <S**2>=0.000
     310 -> 313        0.66973
     311 -> 316       -0.20429

 Excited State   4:      Singlet-A      2.1544 eV  575.48 nm  f=0.1574  <S**2>=0.000
     309 -> 314        0.64692
     312 -> 315        0.26740

 Excited State   5:      Singlet-A      3.3574 eV  369.29 nm  f=0.0000  <S**2>=0.000
     312 -> 313        0.70642

 The electronic state is 1-A.
 Alpha  occ. eigenvalues --  -46.95687 -46.95158 -19.29338 -19.29102 -19.25097
 Alpha  occ. eigenvalues --  -19.24535 -19.24465 -19.24253 -19.24190 -19.23363
 Alpha  occ. eigenvalues --  -14.47078 -14.46290 -14.46150 -14.44637 -14.44469
 Alpha  occ. eigenvalues --  -14.44320 -14.44272 -14.43716 -10.43071 -10.42233
 Alpha  occ. eigenvalues --  -10.39842 -10.39597 -10.39063 -10.38942 -10.35286
 Alpha  occ. eigenvalues --  -10.35208 -10.35203 -10.35175 -10.35152 -10.34987
 Alpha  occ. eigenvalues --  -10.34641 -10.34637 -10.34514 -10.34404 -10.34346
 Alpha  occ. eigenvalues --  -10.33990 -10.33920 -10.33734 -10.33583 -10.33488
 Alpha  occ. eigenvalues --  -10.33358 -10.33256 -10.33213 -10.33184 -10.33167
 Alpha  occ. eigenvalues --  -10.32846 -10.32768 -10.32751 -10.32148 -10.32123
 Alpha  occ. eigenvalues --  -10.32081 -10.31982 -10.31918 -10.31850 -10.31810
 Alpha  occ. eigenvalues --  -10.31392 -10.31300 -10.31222 -10.31202 -10.31194
 Alpha  occ. eigenvalues --  -10.31145 -10.31141 -10.31118 -10.31105 -10.31079
 Alpha  occ. eigenvalues --  -10.31037 -10.30872 -10.30788 -10.30490 -10.30298
 Alpha  occ. eigenvalues --  -10.30255 -10.30227 -10.29988 -10.29925 -10.29903
 Alpha  occ. eigenvalues --  -10.29845 -10.29842 -10.29817 -10.29781 -10.29567
 Alpha  occ. eigenvalues --  -10.29542 -10.29467 -10.29301 -10.29296 -10.29023
 Alpha  occ. eigenvalues --  -10.28987  -3.21666  -3.21148  -1.95240  -1.94797
 Alpha  occ. eigenvalues --   -1.94734  -1.94627  -1.94249  -1.94137  -1.18108
 Alpha  occ. eigenvalues --   -1.16232  -1.14367  -1.13802  -1.13350  -1.12954
 Alpha  occ. eigenvalues --   -1.09913  -1.08436  -1.07737  -1.06877  -1.06818
 Alpha  occ. eigenvalues --   -1.06078  -1.05601  -1.04746  -1.03868  -1.02865
 Alpha  occ. eigenvalues --   -0.95266  -0.93093  -0.91067  -0.91020  -0.90724
 Alpha  occ. eigenvalues --   -0.90370  -0.90210  -0.89800  -0.89681  -0.89516
 Alpha  occ. eigenvalues --   -0.89354  -0.89009  -0.88250  -0.87031  -0.86170
 Alpha  occ. eigenvalues --   -0.86067  -0.85317  -0.84857  -0.84293  -0.84180
 Alpha  occ. eigenvalues --   -0.83997  -0.83832  -0.82912  -0.82782  -0.82291
 Alpha  occ. eigenvalues --   -0.82285  -0.80659  -0.80319  -0.79111  -0.78949
 Alpha  occ. eigenvalues --   -0.78839  -0.78516  -0.78012  -0.77713  -0.77291
 Alpha  occ. eigenvalues --   -0.77000  -0.75035  -0.74630  -0.73520  -0.72991
 Alpha  occ. eigenvalues --   -0.71801  -0.71112  -0.70891  -0.70646  -0.69981
 Alpha  occ. eigenvalues --   -0.69880  -0.69207  -0.69168  -0.67938  -0.67457
 Alpha  occ. eigenvalues --   -0.67255  -0.66886  -0.66808  -0.66599  -0.66148
 Alpha  occ. eigenvalues --   -0.66138  -0.63721  -0.63402  -0.62959  -0.62314
 Alpha  occ. eigenvalues --   -0.61955  -0.61723  -0.61063  -0.60963  -0.60526
 Alpha  occ. eigenvalues --   -0.60071  -0.59947  -0.59436  -0.59162  -0.59078
 Alpha  occ. eigenvalues --   -0.58488  -0.58344  -0.57920  -0.57548  -0.57380
 Alpha  occ. eigenvalues --   -0.57230  -0.56602  -0.56442  -0.56275  -0.55854
 Alpha  occ. eigenvalues --   -0.55834  -0.55717  -0.55270  -0.54930  -0.54864
 Alpha  occ. eigenvalues --   -0.54560  -0.54506  -0.54284  -0.54136  -0.53837
 Alpha  occ. eigenvalues --   -0.53801  -0.53659  -0.53515  -0.53205  -0.53152
 Alpha  occ. eigenvalues --   -0.52691  -0.52444  -0.52330  -0.52107  -0.51990
 Alpha  occ. eigenvalues --   -0.51965  -0.51865  -0.51706  -0.51648  -0.51543
 Alpha  occ. eigenvalues --   -0.51448  -0.51311  -0.51098  -0.51026  -0.50635
 Alpha  occ. eigenvalues --   -0.50582  -0.50555  -0.50152  -0.50117  -0.49979
 Alpha  occ. eigenvalues --   -0.49909  -0.49823  -0.49602  -0.49380  -0.49280
 Alpha  occ. eigenvalues --   -0.49200  -0.48911  -0.48536  -0.48280  -0.48114
 Alpha  occ. eigenvalues --   -0.48034  -0.47924  -0.47606  -0.47596  -0.47479
 Alpha  occ. eigenvalues --   -0.47386  -0.47365  -0.47235  -0.47218  -0.47033
 Alpha  occ. eigenvalues --   -0.46902  -0.46789  -0.46652  -0.46427  -0.46342
 Alpha  occ. eigenvalues --   -0.46221  -0.46010  -0.45849  -0.45691  -0.45328
 Alpha  occ. eigenvalues --   -0.45325  -0.45162  -0.44917  -0.44801  -0.44730
 Alpha  occ. eigenvalues --   -0.44663  -0.44568  -0.44257  -0.44071  -0.44037
 Alpha  occ. eigenvalues --   -0.43823  -0.43675  -0.43275  -0.43099  -0.43057
 Alpha  occ. eigenvalues --   -0.42927  -0.42819  -0.42615  -0.42462  -0.42181
 Alpha  occ. eigenvalues --   -0.42000  -0.41682  -0.41674  -0.41446  -0.40947
 Alpha  occ. eigenvalues --   -0.40211  -0.40162  -0.39929  -0.39493  -0.39242
 Alpha  occ. eigenvalues --   -0.38994  -0.38754  -0.38704  -0.38367  -0.38066
 Alpha  occ. eigenvalues --   -0.37983  -0.37628  -0.36822  -0.36183  -0.35469
 Alpha  occ. eigenvalues --   -0.35131  -0.34947  -0.34670  -0.33889  -0.33731
 Alpha  occ. eigenvalues --   -0.33543  -0.33189  -0.33064  -0.32868  -0.32672
 Alpha  occ. eigenvalues --   -0.32551  -0.32187  -0.31701  -0.25758  -0.25369
 Alpha  occ. eigenvalues --   -0.23370  -0.23021
 Alpha virt. eigenvalues --   -0.07326  -0.07153   0.00549   0.01667   0.02677
 Alpha virt. eigenvalues --    0.03128   0.04463   0.04799   0.05375   0.05570
 Alpha virt. eigenvalues --    0.06826   0.07256   0.07833   0.07881   0.08575

 Mulliken charges:
               1
     1  Mg   0.976855
     2  C   -0.039135
     3  C   -0.071922
     4  C   -0.068170
     5  C   -0.096902
     6  N   -0.383295
     7  C   -0.010061
     8  C   -0.026428
     9  C   -0.121593
    10  C    0.109548
    11  C   -0.013918
    12  C   -0.019261
    13  C   -0.123259
    14  H    0.029837
    15  N   -0.491751
    16  C    0.112208
    17  C   -0.135815
    18  C   -0.127760
    19  C    0.164710
    20  C    0.081544
    21  C    0.041598
    22  O   -0.207692
    23  C   -0.027835
    24  N   -0.338861
    25  C    0.031518
    26  C   -0.031912
    27  C   -0.109578
    28  C    0.026620
    29  C    0.019656
    30  C   -0.035616
    31  C   -0.029339
    32  N   -0.401252
    33  C    0.165085
    34  C   -0.243279
    35  C    0.013428
    36  C    0.138270
    37  C    0.096438
    38  C    0.119022
    39  O   -0.174427
    40  C   -0.117745
    41  C    0.285072
    42  O   -0.232752
    43  O   -0.387005
    44  C    0.128069
    45  H   -0.028147
    46  H    0.025664
    47  H    0.001805
    48  H    0.051007
    49  H    0.048026
    50  H    0.031513
    51  H    0.050821
    52  H    0.042988
    53  H    0.033097
    54  H    0.059409
    55  H    0.061451
    56  H    0.063947
    57  H    0.058229
    58  H    0.040151
    59  H    0.047693
    60  H    0.080135
    61  H    0.047591
    62  H    0.040477
    63  H    0.039116
    64  H    0.032835
    65  H    0.033075
    66  H    0.039602
    67  H    0.051880
    68  H    0.027432
    69  H    0.032513
    70  H    0.032237
    71  H    0.043019
    72  H    0.037987
    73  H    0.056178
    74  H    0.026465
    75  H    0.046708
    76  H    0.080204
    77  H    0.063562
    78  H    0.073150
    79  H    0.055267
    80  Mg   0.973586
    81  C   -0.021087
    82  C   -0.053770
    83  C   -0.054121
    84  C   -0.110141
    85  N   -0.301933
    86  C   -0.006985
    87  C   -0.073174
    88  C   -0.133001
    89  C    0.069996
    90  C    0.036684
    91  C    0.034002
    92  C   -0.096315
    93  H    0.049292
    94  N   -0.460603
    95  C    0.091245
    96  C   -0.147179
    97  C   -0.078970
    98  C    0.134509
    99  C    0.062894
   100  C    0.051599
   101  O   -0.201800
   102  C   -0.020333
   103  N   -0.271275
   104  C    0.014876
   105  C   -0.095312
   106  C   -0.044685
   107  C    0.058126
   108  C    0.023308
   109  C   -0.029458
   110  C   -0.028105
   111  N   -0.485290
   112  C    0.125896
   113  C   -0.223880
   114  C   -0.055410
   115  C    0.152229
   116  C    0.077613
   117  C    0.163138
   118  O   -0.175027
   119  C   -0.083137
   120  C    0.267228
   121  O   -0.273118
   122  O   -0.390011
   123  C    0.157586
   124  H   -0.024426
   125  H    0.020610
   126  H   -0.000569
   127  H    0.020708
   128  H    0.035840
   129  H    0.043474
   130  H    0.027569
   131  H    0.045422
   132  H    0.025180
   133  H    0.073550
   134  H    0.043881
   135  H    0.037611
   136  H    0.048262
   137  H    0.055611
   138  H    0.042704
   139  H    0.049914
   140  H    0.043024
   141  H    0.055054
   142  H    0.045639
   143  H    0.031569
   144  H    0.049255
   145  H    0.037397
   146  H    0.031717
   147  H    0.020874
   148  H    0.014577
   149  H    0.039941
   150  H    0.034830
   151  H    0.038200
   152  H    0.028454
   153  H    0.052601
   154  H    0.061741
   155  H    0.080332
   156  H    0.043793
   157  H    0.073587
   158  H    0.042386
 Sum of Mulliken charges =  -0.00000

 Dipole moment (field-independent basis, Debye):
    X=             -7.5582    Y=              0.4507    Z=             -1.8604  Tot=              7.7969
 Quadrupole moment (field-independent basis, Debye-Ang):
   XX=           -552.3233   YY=           -481.1079   ZZ=           -508.9388
   XY=            -49.5456   XZ=             41.6893   YZ=            -13.0959

 Normal termination of Gaussian 16 at Sun Sep 19 06:23:36 2021.
