 Gaussian 16, Revision A.03,
 Gaussian 16:  ES64L-G16RevA.03 25-Dec-2016

 --------------------------------
 #p wB97XD/Def2SVP td=(nstates=5)
 --------------------------------

 --------------------------------
 TDDFT excited states in gaussian
 --------------------------------
 Symbolic Z-matrix:
 Charge =  0 Multiplicity = 1

                         Standard orientation:
 ---------------------------------------------------------------------
 Center     Atomic      Atomic             Coordinates (Angstroms)
 Number     Number       Type             X           Y           Z
 ---------------------------------------------------------------------
      1         12           0        8.587480    0.485809    0.426278
      2          6           0        7.375166   -0.942314   -2.430403
      3          6           0        7.565783    3.628049   -0.894741
      4          6           0        9.405557    1.887265    3.384755
      5          6           0        8.666574   -2.656839    1.927824
      6          7           0        7.195069    1.216710   -1.378661
      7          6           0        7.064750    0.444887   -2.494020
      8          6           0        6.373864    1.226578   -3.576879
      9          6           0        6.405712    2.730494   -3.060382
     10          6           0        7.113013    2.581827   -1.676252
     11          6           0        6.721871    3.771009   -4.071764
     12          6           0        4.954124    0.735697   -4.132537
     13          6           0        4.028414    0.029746   -3.186671
     14          1           0        2.583191    0.506357   -3.148415
     15          7           0        8.714938    2.492842    1.038673
     16          6           0        8.292276    3.605614    0.380000
     17          6           0        8.503128    4.798463    1.145688
     18          6           0        9.165842    4.306468    2.385872
     19          6           0        9.124887    2.829736    2.309536
     20          6           0        8.196286    6.174016    0.788368
     21          6           0        9.769253    5.110490    3.528587
     22          8           0        9.616998    6.278930    3.585746
     23          6           0       10.501045    4.559123    4.720769
     24          7           0        8.844343   -0.258820    2.369844
     25          6           0        9.351299    0.510685    3.345143
     26          6           0        9.430885   -0.309479    4.737258
     27          6           0        9.555938   -1.790802    4.129391
     28          6           0        8.943481   -1.552761    2.769681
     29          6           0       10.585874    0.068133    5.668974
     30          6           0        8.923233   -2.863049    5.034713
     31          6           0        9.680085   -4.154044    5.368391
     32          7           0        8.015156   -1.418960   -0.086179
     33          6           0        8.130948   -2.629949    0.584919
     34          6           0        7.818836   -3.720829   -0.254219
     35          6           0        7.558250   -3.150619   -1.489337
     36          6           0        7.688040   -1.723177   -1.351944
     37          6           0        7.848696   -5.179107    0.084923
     38          6           0        7.263607   -3.325791   -2.850359
     39          8           0        7.066110   -4.387776   -3.437266
     40          6           0        6.959490   -1.939239   -3.485846
     41          6           0        7.825017   -1.936558   -4.737311
     42          8           0        7.398846   -1.683051   -5.883996
     43          8           0        9.128603   -2.113762   -4.337498
     44          6           0       10.270196   -1.920398   -5.264780
     45          1           0        7.118344    4.538119   -1.299587
     46          1           0        9.469316    2.334710    4.378707
     47          1           0        8.762851   -3.643137    2.385737
     48          1           0        6.956594    1.131030   -4.493797
     49          1           0        5.387622    2.957708   -2.745529
     50          1           0        7.485604    4.476379   -3.744465
     51          1           0        5.826087    4.259798   -4.454885
     52          1           0        7.181128    3.299032   -4.940390
     53          1           0        5.014927    0.027528   -4.958997
     54          1           0        4.354185    1.604016   -4.406713
     55          1           0        4.435447   -0.139875   -2.190405
     56          1           0        3.857800   -0.965128   -3.599350
     57          1           0        8.279540    6.280927   -0.292727
     58          1           0        8.838873    6.912334    1.266542
     59          1           0        7.165417    6.353270    1.095903
     60          1           0       10.926904    3.709673    4.186213
     61          1           0        9.831823    4.226738    5.513730
     62          1           0       11.259920    5.194646    5.177485
     63          1           0        8.444554   -0.211965    5.191862
     64          1           0       10.547108   -2.175464    3.890417
     65          1           0       11.317904   -0.737492    5.606152
     66          1           0       10.204166    0.362912    6.646040
     67          1           0       11.115329    0.966389    5.352699
     68          1           0        7.980652   -3.146468    4.565641
     69          1           0        8.594813   -2.372236    5.950993
     70          1           0        9.746451   -4.465939    6.410815
     71          1           0       10.667272   -4.200080    4.906700
     72          1           0        9.157313   -4.882722    4.749666
     73          1           0        8.150512   -5.831905   -0.734495
     74          1           0        6.853483   -5.475241    0.417330
     75          1           0        8.564457   -5.424326    0.870648
     76          1           0        5.891268   -1.999691   -3.690454
     77          1           0       11.123022   -1.440513   -4.784994
     78          1           0        9.930582   -1.299359   -6.093837
     79          1           0       10.728514   -2.770882   -5.767930
     80         12           0       -8.882722    0.164539   -0.291340
     81          6           0       -6.531741   -2.471181   -0.215554
     82          6           0       -6.626329    2.174176   -1.612133
     83          6           0      -10.924662    2.778271    0.528246
     84          6           0      -10.860079   -1.857775    2.090992
     85          7           0       -6.785942   -0.150198   -0.786152
     86          6           0       -6.129489   -1.322951   -0.900188
     87          6           0       -4.846163   -1.105070   -1.725521
     88          6           0       -4.891456    0.320011   -2.175450
     89          6           0       -6.163338    0.866904   -1.459293
     90          6           0       -3.517307    1.078011   -1.964661
     91          6           0       -4.518979   -2.113400   -2.877295
     92          6           0       -3.819857   -1.663684   -4.231176
     93          1           0       -2.678457   -2.527330   -4.787718
     94          7           0       -8.872839    2.163117   -0.745919
     95          6           0       -7.808015    2.818636   -1.321686
     96          6           0       -8.195504    4.186000   -1.522341
     97          6           0       -9.462254    4.444686   -0.867431
     98          6           0       -9.777601    3.122499   -0.283055
     99          6           0       -7.230568    5.092239   -2.173014
    100          6           0      -10.336823    5.722038   -0.823414
    101          8           0      -11.336985    5.739446   -0.184765
    102          6           0      -10.075714    6.849235   -1.768616
    103          7           0      -10.618432    0.402915    1.173990
    104          6           0      -11.297247    1.571881    1.150724
    105          6           0      -12.563119    1.533845    2.065384
    106          6           0      -12.584772    0.049967    2.544072
    107          6           0      -11.286091   -0.534549    1.935322
    108          6           0      -12.564773    2.504215    3.216564
    109          6           0      -13.825803   -0.831784    2.165455
    110          6           0      -13.936729   -1.377304    0.781915
    111          7           0       -8.840542   -1.749241    0.768243
    112          6           0       -9.706123   -2.395120    1.603761
    113          6           0       -9.228218   -3.735048    1.843055
    114          6           0       -7.984472   -3.848304    1.167801
    115          6           0       -7.775543   -2.590229    0.567121
    116          6           0       -9.793490   -4.752763    2.769822
    117          6           0       -6.856208   -4.691633    0.893541
    118          8           0       -6.582509   -5.851454    1.180201
    119          6           0       -5.883850   -3.858288   -0.056415
    120          6           0       -4.440543   -3.865440    0.418275
    121          8           0       -4.069616   -3.361571    1.446900
    122          8           0       -3.651038   -4.491745   -0.532983
    123          6           0       -2.242172   -4.579841   -0.147377
    124          1           0       -6.024262    2.848385   -2.225473
    125          1           0      -11.554694    3.652851    0.701701
    126          1           0      -11.494183   -2.496467    2.709254
    127          1           0       -4.120417   -1.305092   -0.937228
    128          1           0       -5.014178    0.316060   -3.258862
    129          1           0       -2.754559    0.363955   -1.654542
    130          1           0       -3.707341    1.925922   -1.306666
    131          1           0       -3.112010    1.432564   -2.912539
    132          1           0       -5.466397   -2.567132   -3.169238
    133          1           0       -3.922584   -2.954617   -2.523101
    134          1           0       -3.456637   -0.657016   -4.023350
    135          1           0       -4.579205   -1.573161   -5.007991
    136          1           0       -7.352221    6.053529   -1.674299
    137          1           0       -7.553794    5.211958   -3.206403
    138          1           0       -6.164047    4.869842   -2.211104
    139          1           0       -9.405359    7.483400   -1.189951
    140          1           0      -11.028293    7.271011   -2.090689
    141          1           0       -9.494704    6.586446   -2.652899
    142          1           0      -13.483141    1.636996    1.489690
    143          1           0      -12.422281   -0.178963    3.596833
    144          1           0      -11.758526    3.233173    3.125040
    145          1           0      -12.399706    2.009059    4.173838
    146          1           0      -13.534275    3.000226    3.177527
    147          1           0      -14.742480   -0.271903    2.351070
    148          1           0      -13.917666   -1.611353    2.922056
    149          1           0      -13.346230   -0.767628    0.097753
    150          1           0      -14.895642   -1.410530    0.264247
    151          1           0      -13.621160   -2.417699    0.866205
    152          1           0       -9.844283   -4.443980    3.813539
    153          1           0       -9.015672   -5.509957    2.871709
    154          1           0      -10.747065   -5.141982    2.411955
    155          1           0       -5.961720   -4.325720   -1.038224
    156          1           0       -1.978922   -3.875862   -0.936208
    157          1           0       -1.986046   -5.614260   -0.375235
    158          1           0       -2.055756   -4.258157    0.877482
 ---------------------------------------------------------------------

 SCF Done:  E(RwB97XD) =  -4070.54494243     A.U. after   19 cycles

 Excitation energies and oscillator strengths:

 Excited State   1:      Singlet-A      1.5763 eV  786.54 nm  f=0.3317  <S**2>=0.000
     309 -> 315       -0.17442
     311 -> 313        0.68445
     309 <- 315       -0.11827
 This state for optimization and/or second-order correction.
 Total Energy, E(TD-HF/TD-DFT) =  -4070.48701365
 Copying the excited state density for this state as the 1-particle RhoCI density.

 Excited State   2:      Singlet-A      1.6418 eV  755.17 nm  f=0.4162  <S**2>=0.000
     310 -> 316        0.19247
     312 -> 314        0.67955
     310 <- 316        0.11965

 Excited State   3:      Singlet-A      2.0919 eV  592.69 nm  f=0.1434  <S**2>=0.000
     309 -> 313        0.64940
     311 -> 315        0.25862

 Excited State   4:      Singlet-A      2.1314 eV  581.71 nm  f=0.1089  <S**2>=0.000
     310 -> 314        0.63986
     312 -> 316       -0.28472

 Excited State   5:      Singlet-A      3.1529 eV  393.24 nm  f=0.0000  <S**2>=0.000
     312 -> 313        0.70683

 The electronic state is 1-A.
 Alpha  occ. eigenvalues --  -46.96383 -46.96250 -19.31577 -19.29844 -19.25437
 Alpha  occ. eigenvalues --  -19.24836 -19.24532 -19.23700 -19.23592 -19.22247
 Alpha  occ. eigenvalues --  -14.47251 -14.46740 -14.46707 -14.46299 -14.44688
 Alpha  occ. eigenvalues --  -14.44365 -14.44031 -14.43305 -10.44505 -10.42845
 Alpha  occ. eigenvalues --  -10.39621 -10.38724 -10.38447 -10.37529 -10.36660
 Alpha  occ. eigenvalues --  -10.36244 -10.35724 -10.35586 -10.35112 -10.35049
 Alpha  occ. eigenvalues --  -10.34989 -10.34931 -10.34890 -10.34827 -10.34772
 Alpha  occ. eigenvalues --  -10.34668 -10.34276 -10.34237 -10.33531 -10.33436
 Alpha  occ. eigenvalues --  -10.33401 -10.33122 -10.32996 -10.32945 -10.32753
 Alpha  occ. eigenvalues --  -10.32685 -10.32650 -10.32477 -10.32451 -10.32400
 Alpha  occ. eigenvalues --  -10.32229 -10.32153 -10.32128 -10.31992 -10.31969
 Alpha  occ. eigenvalues --  -10.31953 -10.31775 -10.31665 -10.31650 -10.31591
 Alpha  occ. eigenvalues --  -10.31575 -10.31352 -10.31336 -10.31250 -10.30895
 Alpha  occ. eigenvalues --  -10.30882 -10.30829 -10.30766 -10.30766 -10.30668
 Alpha  occ. eigenvalues --  -10.30613 -10.30371 -10.30367 -10.30301 -10.30236
 Alpha  occ. eigenvalues --  -10.30179 -10.30067 -10.30054 -10.29989 -10.29702
 Alpha  occ. eigenvalues --  -10.29198 -10.29052 -10.29021 -10.28886 -10.28831
 Alpha  occ. eigenvalues --  -10.28712  -3.22317  -3.22044  -1.95858  -1.95596
 Alpha  occ. eigenvalues --   -1.95473  -1.95257  -1.95166  -1.94994  -1.18326
 Alpha  occ. eigenvalues --   -1.17991  -1.15059  -1.13641  -1.11749  -1.11351
 Alpha  occ. eigenvalues --   -1.10616  -1.09598  -1.07285  -1.06507  -1.06124
 Alpha  occ. eigenvalues --   -1.05054  -1.05028  -1.04435  -1.04248  -1.03793
 Alpha  occ. eigenvalues --   -0.95838  -0.93482  -0.91759  -0.91039  -0.90750
 Alpha  occ. eigenvalues --   -0.90667  -0.90414  -0.90112  -0.89990  -0.89278
 Alpha  occ. eigenvalues --   -0.89222  -0.89039  -0.87955  -0.87876  -0.86559
 Alpha  occ. eigenvalues --   -0.85965  -0.85804  -0.85496  -0.85114  -0.84380
 Alpha  occ. eigenvalues --   -0.84179  -0.83794  -0.83018  -0.82671  -0.82630
 Alpha  occ. eigenvalues --   -0.82261  -0.80531  -0.80187  -0.79844  -0.79030
 Alpha  occ. eigenvalues --   -0.78964  -0.78914  -0.78727  -0.77698  -0.77525
 Alpha  occ. eigenvalues --   -0.76516  -0.75674  -0.74237  -0.73831  -0.73336
 Alpha  occ. eigenvalues --   -0.72001  -0.71625  -0.71470  -0.71108  -0.70503
 Alpha  occ. eigenvalues --   -0.70115  -0.68852  -0.68651  -0.68252  -0.67597
 Alpha  occ. eigenvalues --   -0.66840  -0.66795  -0.66509  -0.66157  -0.65976
 Alpha  occ. eigenvalues --   -0.65900  -0.65698  -0.63562  -0.62368  -0.61967
 Alpha  occ. eigenvalues --   -0.61541  -0.61409  -0.60932  -0.60711  -0.60220
 Alpha  occ. eigenvalues --   -0.60133  -0.59881  -0.59674  -0.59315  -0.59308
 Alpha  occ. eigenvalues --   -0.58586  -0.57935  -0.57887  -0.57761  -0.57364
 Alpha  occ. eigenvalues --   -0.57226  -0.57187  -0.56903  -0.56469  -0.56420
 Alpha  occ. eigenvalues --   -0.56054  -0.55911  -0.55597  -0.55382  -0.55221
 Alpha  occ. eigenvalues --   -0.55137  -0.54618  -0.54536  -0.54213  -0.54124
 Alpha  occ. eigenvalues --   -0.53831  -0.53819  -0.53578  -0.53416  -0.53123
 Alpha  occ. eigenvalues --   -0.53053  -0.52794  -0.52706  -0.52673  -0.52636
 Alpha  occ. eigenvalues --   -0.52402  -0.52150  -0.51990  -0.51848  -0.51729
 Alpha  occ. eigenvalues --   -0.51542  -0.51317  -0.51203  -0.51035  -0.51024
 Alpha  occ. eigenvalues --   -0.50848  -0.50573  -0.50415  -0.50213  -0.50206
 Alpha  occ. eigenvalues --   -0.49919  -0.49565  -0.49564  -0.49372  -0.49251
 Alpha  occ. eigenvalues --   -0.49115  -0.49080  -0.48993  -0.48914  -0.48639
 Alpha  occ. eigenvalues --   -0.48457  -0.48135  -0.47866  -0.47655  -0.47645
 Alpha  occ. eigenvalues --   -0.47561  -0.47381  -0.47342  -0.47290  -0.47099
 Alpha  occ. eigenvalues --   -0.46905  -0.46463  -0.46423  -0.46208  -0.46161
 Alpha  occ. eigenvalues --   -0.45991  -0.45894  -0.45556  -0.45482  -0.45392
 Alpha  occ. eigenvalues --   -0.45131  -0.45062  -0.44901  -0.44797  -0.44756
 Alpha  occ. eigenvalues --   -0.44591  -0.44481  -0.44433  -0.44244  -0.44149
 Alpha  occ. eigenvalues --   -0.43999  -0.43884  -0.43758  -0.43655  -0.43471
 Alpha  occ. eigenvalues --   -0.43285  -0.43270  -0.42710  -0.42515  -0.42388
 Alpha  occ. eigenvalues --   -0.42316  -0.41948  -0.41056  -0.40998  -0.40776
 Alpha  occ. eigenvalues --   -0.40731  -0.40030  -0.39932  -0.39722  -0.39533
 Alpha  occ. eigenvalues --   -0.39251  -0.39079  -0.38914  -0.38346  -0.37779
 Alpha  occ. eigenvalues --   -0.37637  -0.37567  -0.36895  -0.36485  -0.35938
 Alpha  occ. eigenvalues --   -0.35481  -0.35404  -0.35286  -0.33886  -0.33685
 Alpha  occ. eigenvalues --   -0.33152  -0.32946  -0.32673  -0.32541  -0.31937
 Alpha  occ. eigenvalues --   -0.31598  -0.31426  -0.30469  -0.26466  -0.25653
 Alpha  occ. eigenvalues --   -0.23604  -0.22769
 Alpha virt. eigenvalues --   -0.08120  -0.06920  -0.00103   0.00375   0.02250
 Alpha virt. eigenvalues --    0.02550   0.04001   0.04334   0.04718   0.04758
 Alpha virt. eigenvalues --    0.06547   0.07165   0.07254   0.07914   0.08269

 Mulliken charges:
               1
     1  Mg   0.958763
     2  C    0.008224
     3  C   -0.083441
     4  C   -0.083551
     5  C   -0.096184
     6  N   -0.330919
     7  C   -0.005808
     8  C   -0.018545
     9  C   -0.091865
    10  C    0.035806
    11  C    0.041718
    12  C   -0.011000
    13  C   -0.167003
    14  H    0.026786
    15  N   -0.448424
    16  C    0.171638
    17  C   -0.181735
    18  C   -0.096432
    19  C    0.137375
    20  C    0.086303
    21  C    0.013516
    22  O   -0.209676
    23  C   -0.015001
    24  N   -0.361559
    25  C    0.084058
    26  C   -0.139058
    27  C   -0.084329
    28  C    0.074878
    29  C    0.049985
    30  C   -0.015592
    31  C   -0.044761
    32  N   -0.442034
    33  C    0.139259
    34  C   -0.187989
    35  C    0.058360
    36  C    0.109861
    37  C    0.078483
    38  C    0.062227
    39  O   -0.216589
    40  C   -0.121370
    41  C    0.313052
    42  O   -0.257041
    43  O   -0.379100
    44  C    0.144991
    45  H    0.008056
    46  H    0.004164
    47  H   -0.013717
    48  H    0.042177
    49  H    0.049159
    50  H    0.035793
    51  H    0.040755
    52  H    0.026967
    53  H    0.059207
    54  H    0.044411
    55  H    0.065351
    56  H    0.055359
    57  H    0.031482
    58  H    0.063323
    59  H    0.053756
    60  H    0.032328
    61  H    0.071253
    62  H    0.058160
    63  H    0.056608
    64  H    0.040670
    65  H    0.039036
    66  H    0.039936
    67  H    0.032244
    68  H    0.030572
    69  H    0.028188
    70  H    0.056792
    71  H    0.025682
    72  H    0.030990
    73  H    0.061036
    74  H    0.060996
    75  H    0.032281
    76  H    0.064696
    77  H    0.053733
    78  H    0.053787
    79  H    0.058490
    80  Mg   0.948175
    81  C   -0.025556
    82  C   -0.065314
    83  C   -0.064224
    84  C   -0.102492
    85  N   -0.370790
    86  C   -0.015708
    87  C   -0.028496
    88  C   -0.134430
    89  C    0.098581
    90  C    0.020529
    91  C   -0.030048
    92  C   -0.124176
    93  H    0.055424
    94  N   -0.508402
    95  C    0.144514
    96  C   -0.142106
    97  C   -0.082556
    98  C    0.113106
    99  C    0.033119
   100  C    0.056481
   101  O   -0.199238
   102  C   -0.018000
   103  N   -0.306791
   104  C    0.065707
   105  C   -0.068783
   106  C   -0.048041
   107  C    0.007428
   108  C    0.036466
   109  C   -0.047458
   110  C   -0.031110
   111  N   -0.393445
   112  C    0.166253
   113  C   -0.185051
   114  C   -0.031400
   115  C    0.106013
   116  C    0.061990
   117  C    0.130781
   118  O   -0.210284
   119  C   -0.060536
   120  C    0.252663
   121  O   -0.228911
   122  O   -0.379282
   123  C    0.117895
   124  H   -0.017380
   125  H    0.026067
   126  H   -0.005381
   127  H    0.049032
   128  H    0.042264
   129  H    0.043467
   130  H    0.049825
   131  H    0.031906
   132  H    0.029964
   133  H    0.046763
   134  H    0.034632
   135  H    0.055571
   136  H    0.037056
   137  H    0.055298
   138  H    0.058267
   139  H    0.064492
   140  H    0.073562
   141  H    0.037410
   142  H    0.039846
   143  H    0.035080
   144  H    0.044168
   145  H    0.034725
   146  H    0.041206
   147  H    0.023580
   148  H    0.022299
   149  H    0.035855
   150  H    0.033251
   151  H    0.037209
   152  H    0.045231
   153  H    0.051280
   154  H    0.052544
   155  H    0.071158
   156  H    0.052403
   157  H    0.069055
   158  H    0.085796
 Sum of Mulliken charges =  -0.00000

 Dipole moment (field-independent basis, Debye):
    X=              2.9329    Y=              2.2601    Z=             -1.3827  Tot=              3.9524
 Quadrupole moment (field-independent basis, Debye-Ang):
   XX=           -425.4699   YY=           -557.2128   ZZ=           -499.8117
   XY=            -39.1980   XZ=             30.7690   YZ=            -44.9388

 Normal termination of Gaussian 16 at Sat Sep 18 21:24:05 2021.
