 Gaussian 16, Revision A.03,
 Gaussian 16:  ES64L-G16RevA.03 25-Dec-2016

 --------------------------------
 #p wB97XD/Def2SVP td=(nstates=5)
 --------------------------------

 --------------------------------
 TDDFT excited states in gaussian
 --------------------------------
 Symbolic Z-matrix:
 Charge =  0 Multiplicity = 1

                         Standard orientation:
 ---------------------------------------------------------------------
 Center     Atomic      Atomic             Coordinates (Angstroms)
 Number     Number       Type             X           Y           Z
 ---------------------------------------------------------------------
      1         12           0       24.079128   -0.791055    0.139691
      2          6           0       24.140858    2.458107   -1.154445
      3          6           0       24.188078    0.398950    3.196121
      4          6           0       24.777507   -3.948821    1.299252
      5          6           0       24.478597   -2.060491   -3.130549
      6          7           0       24.052345    1.185777    0.869588
      7          6           0       24.012518    2.398331    0.217017
      8          6           0       23.788658    3.553779    1.183990
      9          6           0       24.039640    2.860979    2.561731
     10          6           0       23.988308    1.413243    2.217054
     11          6           0       25.224116    3.279243    3.405880
     12          6           0       22.418586    4.287303    1.025607
     13          6           0       22.197074    5.468540    1.976597
     14          1           0       21.779672    6.779625    1.326728
     15          7           0       24.513481   -1.681942    2.086246
     16          6           0       24.357183   -1.005168    3.243081
     17          6           0       24.490821   -1.916543    4.345576
     18          6           0       24.774171   -3.181204    3.801637
     19          6           0       24.708242   -2.963943    2.330817
     20          6           0       24.401726   -1.501608    5.799006
     21          6           0       24.980192   -4.492497    4.486492
     22          8           0       25.371816   -5.561496    3.946371
     23          6           0       24.667921   -4.637341    5.970904
     24          7           0       24.577879   -2.680654   -0.774211
     25          6           0       24.883250   -3.796723   -0.072227
     26          6           0       24.976570   -5.064362   -1.081042
     27          6           0       24.407777   -4.461175   -2.413193
     28          6           0       24.408364   -2.996600   -2.112872
     29          6           0       26.474661   -5.557518   -1.150695
     30          6           0       22.906976   -4.881690   -2.621226
     31          6           0       21.907669   -4.657019   -1.497097
     32          7           0       24.220518    0.012465   -1.842456
     33          6           0       24.372894   -0.657193   -3.025425
     34          6           0       24.402581    0.298683   -4.032746
     35          6           0       24.341148    1.582430   -3.418145
     36          6           0       24.231383    1.354311   -2.071622
     37          6           0       24.592827    0.110971   -5.496611
     38          6           0       24.355275    3.052258   -3.595312
     39          8           0       24.490428    3.784015   -4.569282
     40          6           0       24.120413    3.674083   -2.111164
     41          6           0       25.072772    4.787252   -1.854943
     42          8           0       26.268865    4.826317   -2.270603
     43          8           0       24.381291    5.761824   -1.279741
     44          6           0       25.006476    7.067023   -1.376035
     45          1           0       24.109777    0.734154    4.232559
     46          1           0       24.964542   -4.965780    1.652238
     47          1           0       24.471817   -2.493787   -4.131915
     48          1           0       24.523329    4.298696    0.877692
     49          1           0       23.208119    2.983373    3.256623
     50          1           0       25.664527    4.252261    3.188315
     51          1           0       25.990346    2.505422    3.351894
     52          1           0       24.937906    3.130636    4.447271
     53          1           0       21.604935    3.568543    1.126189
     54          1           0       22.331072    4.656604    0.004337
     55          1           0       23.144162    5.878055    2.327464
     56          1           0       21.544512    5.193188    2.805641
     57          1           0       24.351011   -0.425756    5.966130
     58          1           0       25.286780   -1.698035    6.403656
     59          1           0       23.555085   -1.943289    6.325472
     60          1           0       25.408833   -4.061482    6.524768
     61          1           0       24.916661   -5.630137    6.345165
     62          1           0       23.626557   -4.424194    6.214913
     63          1           0       24.391060   -5.892398   -0.681468
     64          1           0       25.144886   -4.719329   -3.173512
     65          1           0       27.105036   -5.147190   -0.361601
     66          1           0       26.988354   -5.294674   -2.075572
     67          1           0       26.586904   -6.631394   -1.008459
     68          1           0       23.056405   -5.943707   -2.816153
     69          1           0       22.432500   -4.454335   -3.504079
     70          1           0       22.431149   -4.402551   -0.575264
     71          1           0       21.169429   -5.442631   -1.339823
     72          1           0       21.301622   -3.839216   -1.887056
     73          1           0       23.888608   -0.583227   -5.955846
     74          1           0       25.584618   -0.329207   -5.595911
     75          1           0       24.586267    1.052988   -6.043977
     76          1           0       23.117284    4.096001   -2.167312
     77          1           0       24.259730    7.820786   -1.628780
     78          1           0       25.778189    7.178207   -2.137367
     79          1           0       25.406598    7.278949   -0.383989
     80         12           0      -24.805727   -0.540002   -0.049692
     81          6           0      -22.538981    2.118158   -0.351039
     82          6           0      -26.500682    1.304384    2.312421
     83          6           0      -26.907893   -3.067738    0.238638
     84          6           0      -22.859138   -2.333238   -2.360058
     85          7           0      -24.548801    1.502835    0.767764
     86          6           0      -23.544073    2.443308    0.539627
     87          6           0      -23.889908    3.876221    1.106038
     88          6           0      -25.032028    3.491256    2.026403
     89          6           0      -25.410339    1.990466    1.686912
     90          6           0      -24.562533    3.520695    3.552825
     91          6           0      -24.434417    4.671170   -0.162656
     92          6           0      -23.969684    6.185172   -0.323656
     93          1           0      -23.801104    6.811513    1.036984
     94          7           0      -26.339440   -0.876180    1.191541
     95          6           0      -26.885802   -0.047527    2.076937
     96          6           0      -28.038021   -0.612964    2.727590
     97          6           0      -28.300902   -1.808013    2.029068
     98          6           0      -27.108667   -2.004475    1.121142
     99          6           0      -28.812067    0.007162    3.832579
    100          6           0      -29.519615   -2.707566    2.043583
    101          8           0      -29.717994   -3.583080    1.193569
    102          6           0      -30.514447   -2.626428    3.204754
    103          7           0      -24.825567   -2.472933   -0.924640
    104          6           0      -25.901603   -3.282415   -0.646540
    105          6           0      -25.833268   -4.505882   -1.558038
    106          6           0      -24.570683   -4.227483   -2.510761
    107          6           0      -24.062386   -2.916271   -1.971597
    108          6           0      -25.819626   -5.814927   -0.692105
    109          6           0      -24.824286   -4.236220   -4.010100
    110          6           0      -23.862620   -5.174192   -4.804822
    111          7           0      -23.051025   -0.196753   -1.114150
    112          6           0      -22.348226   -1.046455   -2.025037
    113          6           0      -21.168770   -0.406499   -2.487449
    114          6           0      -21.222874    0.841991   -1.845130
    115          6           0      -22.350784    0.877793   -0.999211
    116          6           0      -20.124851   -0.863773   -3.454699
    117          6           0      -20.569711    2.103033   -1.696416
    118          8           0      -19.544673    2.555520   -2.149513
    119          6           0      -21.472905    3.001338   -0.804753
    120          6           0      -20.633776    3.639432    0.241983
    121          8           0      -20.110005    3.102086    1.213764
    122          8           0      -20.595036    4.945903   -0.037348
    123          6           0      -19.895810    5.797128    0.902256
    124          1           0      -27.203416    1.824914    2.966185
    125          1           0      -27.632249   -3.872170    0.389049
    126          1           0      -22.259222   -2.828631   -3.126395
    127          1           0      -22.935784    4.281693    1.441280
    128          1           0      -25.894160    4.132139    1.844798
    129          1           0      -23.509739    3.782984    3.659217
    130          1           0      -24.726840    2.531482    3.979664
    131          1           0      -25.221850    4.254675    4.016289
    132          1           0      -25.521909    4.725903   -0.202546
    133          1           0      -24.140797    4.085229   -1.034004
    134          1           0      -24.779112    6.793183   -0.727866
    135          1           0      -23.194331    6.287293   -1.083373
    136          1           0      -29.787143    0.267894    3.418814
    137          1           0      -28.343642    0.926991    4.179935
    138          1           0      -28.951535   -0.653890    4.687434
    139          1           0      -30.999657   -3.595935    3.094305
    140          1           0      -31.201526   -1.781772    3.141718
    141          1           0      -30.107390   -2.658573    4.215206
    142          1           0      -26.692053   -4.655757   -2.212289
    143          1           0      -23.810749   -4.979660   -2.298631
    144          1           0      -26.535181   -6.486946   -1.166023
    145          1           0      -26.036597   -5.650521    0.363402
    146          1           0      -24.911297   -6.393396   -0.864751
    147          1           0      -24.790862   -3.251950   -4.476159
    148          1           0      -25.786298   -4.741066   -4.108915
    149          1           0      -23.242941   -5.757609   -4.123655
    150          1           0      -23.102094   -4.608469   -5.342639
    151          1           0      -24.417109   -5.854486   -5.451558
    152          1           0      -20.654270   -0.757173   -4.401915
    153          1           0      -19.840765   -1.871034   -3.150826
    154          1           0      -19.267700   -0.192931   -3.491937
    155          1           0      -21.761922    3.807059   -1.480892
    156          1           0      -18.883575    5.423991    1.060471
    157          1           0      -20.297753    5.845606    1.914843
    158          1           0      -19.862908    6.786526    0.445708
 ---------------------------------------------------------------------

 SCF Done:  E(RwB97XD) =  -4070.64550026     A.U. after   19 cycles

 Excitation energies and oscillator strengths:

 Excited State   1:      Singlet-A      1.6680 eV  743.33 nm  f=0.3841  <S**2>=0.000
     310 -> 316        0.17123
     311 -> 313        0.68665
     310 <- 316        0.11160
 This state for optimization and/or second-order correction.
 Total Energy, E(TD-HF/TD-DFT) =  -4070.58420415
 Copying the excited state density for this state as the 1-particle RhoCI density.

 Excited State   2:      Singlet-A      1.6810 eV  737.56 nm  f=0.3886  <S**2>=0.000
     309 -> 315       -0.16569
     312 -> 314        0.68550
     309 <- 315       -0.10524

 Excited State   3:      Singlet-A      2.0911 eV  592.91 nm  f=0.1649  <S**2>=0.000
     310 -> 313        0.66094
     311 -> 316       -0.23075

 Excited State   4:      Singlet-A      2.2342 eV  554.93 nm  f=0.1201  <S**2>=0.000
     309 -> 314        0.63518
     312 -> 315        0.28431

 Excited State   5:      Singlet-A      3.0722 eV  403.57 nm  f=0.0091  <S**2>=0.000
     308 -> 313        0.67870

 The electronic state is 1-A.
 Alpha  occ. eigenvalues --  -46.95703 -46.94126 -19.31832 -19.30455 -19.25024
 Alpha  occ. eigenvalues --  -19.24206 -19.24000 -19.23734 -19.23439 -19.22388
 Alpha  occ. eigenvalues --  -14.47496 -14.46861 -14.46403 -14.46235 -14.44868
 Alpha  occ. eigenvalues --  -14.44348 -14.43037 -14.42569 -10.43050 -10.42148
 Alpha  occ. eigenvalues --  -10.40284 -10.39786 -10.38807 -10.37106 -10.36184
 Alpha  occ. eigenvalues --  -10.36011 -10.35718 -10.35157 -10.35151 -10.35097
 Alpha  occ. eigenvalues --  -10.34988 -10.34860 -10.34755 -10.34754 -10.34727
 Alpha  occ. eigenvalues --  -10.34468 -10.34064 -10.34037 -10.33985 -10.33302
 Alpha  occ. eigenvalues --  -10.33198 -10.32976 -10.32875 -10.32575 -10.32515
 Alpha  occ. eigenvalues --  -10.32405 -10.32366 -10.32338 -10.32335 -10.32333
 Alpha  occ. eigenvalues --  -10.32176 -10.32121 -10.31872 -10.31832 -10.31801
 Alpha  occ. eigenvalues --  -10.31791 -10.31780 -10.31780 -10.31642 -10.31616
 Alpha  occ. eigenvalues --  -10.31436 -10.31134 -10.31111 -10.31106 -10.31005
 Alpha  occ. eigenvalues --  -10.30696 -10.30604 -10.30562 -10.30481 -10.30428
 Alpha  occ. eigenvalues --  -10.30396 -10.30363 -10.30199 -10.30170 -10.30145
 Alpha  occ. eigenvalues --  -10.30027 -10.29962 -10.29919 -10.29626 -10.29597
 Alpha  occ. eigenvalues --  -10.29514 -10.29245 -10.29224 -10.28682 -10.28242
 Alpha  occ. eigenvalues --  -10.27552  -3.21547  -3.20243  -1.95142  -1.94639
 Alpha  occ. eigenvalues --   -1.94527  -1.93850  -1.93354  -1.93248  -1.20264
 Alpha  occ. eigenvalues --   -1.19273  -1.12639  -1.11543  -1.10969  -1.10627
 Alpha  occ. eigenvalues --   -1.09255  -1.08076  -1.07488  -1.07092  -1.06365
 Alpha  occ. eigenvalues --   -1.05908  -1.05303  -1.04925  -1.04445  -1.04365
 Alpha  occ. eigenvalues --   -0.94603  -0.93768  -0.91623  -0.91469  -0.91176
 Alpha  occ. eigenvalues --   -0.90424  -0.90329  -0.90298  -0.89952  -0.89903
 Alpha  occ. eigenvalues --   -0.89039  -0.88949  -0.88593  -0.87570  -0.86695
 Alpha  occ. eigenvalues --   -0.85885  -0.85650  -0.85430  -0.84749  -0.84268
 Alpha  occ. eigenvalues --   -0.83795  -0.83780  -0.83280  -0.83220  -0.82615
 Alpha  occ. eigenvalues --   -0.82325  -0.80923  -0.80861  -0.79478  -0.79344
 Alpha  occ. eigenvalues --   -0.79238  -0.78682  -0.78038  -0.77512  -0.77164
 Alpha  occ. eigenvalues --   -0.76921  -0.75094  -0.74698  -0.73694  -0.73397
 Alpha  occ. eigenvalues --   -0.71863  -0.71181  -0.71068  -0.70798  -0.70337
 Alpha  occ. eigenvalues --   -0.69667  -0.69618  -0.69339  -0.67440  -0.67380
 Alpha  occ. eigenvalues --   -0.67180  -0.67173  -0.67004  -0.66656  -0.66495
 Alpha  occ. eigenvalues --   -0.66489  -0.64680  -0.64437  -0.63057  -0.62838
 Alpha  occ. eigenvalues --   -0.61722  -0.61547  -0.61203  -0.61158  -0.60611
 Alpha  occ. eigenvalues --   -0.60517  -0.59715  -0.59493  -0.59287  -0.59223
 Alpha  occ. eigenvalues --   -0.58674  -0.58203  -0.57937  -0.57703  -0.57582
 Alpha  occ. eigenvalues --   -0.57359  -0.57311  -0.57267  -0.56367  -0.56319
 Alpha  occ. eigenvalues --   -0.55758  -0.55506  -0.55225  -0.55160  -0.55081
 Alpha  occ. eigenvalues --   -0.54881  -0.54562  -0.54487  -0.54448  -0.54065
 Alpha  occ. eigenvalues --   -0.53684  -0.53625  -0.53495  -0.53226  -0.53032
 Alpha  occ. eigenvalues --   -0.52893  -0.52698  -0.52500  -0.52401  -0.52348
 Alpha  occ. eigenvalues --   -0.52227  -0.52016  -0.51959  -0.51554  -0.51510
 Alpha  occ. eigenvalues --   -0.51210  -0.51054  -0.50799  -0.50621  -0.50499
 Alpha  occ. eigenvalues --   -0.50475  -0.50451  -0.50429  -0.50240  -0.49998
 Alpha  occ. eigenvalues --   -0.49815  -0.49569  -0.49467  -0.49198  -0.49115
 Alpha  occ. eigenvalues --   -0.49108  -0.48672  -0.48656  -0.48467  -0.48427
 Alpha  occ. eigenvalues --   -0.48319  -0.48267  -0.48014  -0.47859  -0.47747
 Alpha  occ. eigenvalues --   -0.47342  -0.47219  -0.47062  -0.46942  -0.46632
 Alpha  occ. eigenvalues --   -0.46600  -0.46488  -0.46395  -0.46332  -0.46240
 Alpha  occ. eigenvalues --   -0.46186  -0.45779  -0.45671  -0.45620  -0.45606
 Alpha  occ. eigenvalues --   -0.45336  -0.45129  -0.44992  -0.44908  -0.44808
 Alpha  occ. eigenvalues --   -0.44549  -0.44548  -0.44296  -0.44282  -0.43976
 Alpha  occ. eigenvalues --   -0.43867  -0.43793  -0.43553  -0.43357  -0.43126
 Alpha  occ. eigenvalues --   -0.43026  -0.42749  -0.42708  -0.42366  -0.42310
 Alpha  occ. eigenvalues --   -0.41986  -0.41630  -0.41499  -0.41115  -0.40731
 Alpha  occ. eigenvalues --   -0.40592  -0.40199  -0.39830  -0.39621  -0.39375
 Alpha  occ. eigenvalues --   -0.39352  -0.38895  -0.38848  -0.38549  -0.38458
 Alpha  occ. eigenvalues --   -0.38331  -0.38317  -0.36232  -0.36106  -0.35930
 Alpha  occ. eigenvalues --   -0.35883  -0.35025  -0.34972  -0.34319  -0.34144
 Alpha  occ. eigenvalues --   -0.33585  -0.33164  -0.33127  -0.32945  -0.32057
 Alpha  occ. eigenvalues --   -0.31685  -0.31313  -0.30611  -0.26060  -0.25970
 Alpha  occ. eigenvalues --   -0.23574  -0.22885
 Alpha virt. eigenvalues --   -0.07703  -0.06934   0.00224   0.00663   0.02002
 Alpha virt. eigenvalues --    0.02528   0.04552   0.04956   0.04964   0.06448
 Alpha virt. eigenvalues --    0.06638   0.07165   0.08107   0.08391   0.08427

 Mulliken charges:
               1
     1  Mg   0.940901
     2  C    0.025511
     3  C   -0.076095
     4  C   -0.054424
     5  C   -0.071354
     6  N   -0.396426
     7  C   -0.020315
     8  C   -0.029452
     9  C   -0.089367
    10  C    0.104832
    11  C    0.044335
    12  C    0.022473
    13  C   -0.128886
    14  H    0.030714
    15  N   -0.379785
    16  C    0.094797
    17  C   -0.112213
    18  C   -0.048684
    19  C    0.101646
    20  C    0.053233
    21  C    0.041145
    22  O   -0.259358
    23  C   -0.008778
    24  N   -0.351687
    25  C    0.069150
    26  C   -0.145201
    27  C   -0.029853
    28  C    0.039111
    29  C    0.014269
    30  C   -0.014319
    31  C   -0.051442
    32  N   -0.418393
    33  C    0.151623
    34  C   -0.204289
    35  C   -0.041209
    36  C    0.088680
    37  C    0.077105
    38  C    0.161988
    39  O   -0.201879
    40  C   -0.129312
    41  C    0.263367
    42  O   -0.280597
    43  O   -0.330245
    44  C    0.127203
    45  H   -0.027660
    46  H    0.024827
    47  H   -0.001104
    48  H    0.031570
    49  H    0.031556
    50  H    0.056307
    51  H    0.033570
    52  H    0.025682
    53  H    0.024452
    54  H    0.044945
    55  H    0.046484
    56  H    0.062200
    57  H    0.028539
    58  H    0.048685
    59  H    0.055069
    60  H    0.043656
    61  H    0.044620
    62  H    0.064156
    63  H    0.043776
    64  H    0.030740
    65  H    0.043527
    66  H    0.032439
    67  H    0.040101
    68  H    0.029591
    69  H    0.030972
    70  H    0.055272
    71  H    0.043848
    72  H    0.033859
    73  H    0.035268
    74  H    0.042840
    75  H    0.057969
    76  H    0.082094
    77  H    0.053511
    78  H    0.078551
    79  H    0.049566
    80  Mg   0.983475
    81  C    0.006758
    82  C   -0.113486
    83  C   -0.076007
    84  C   -0.074202
    85  N   -0.350858
    86  C   -0.049200
    87  C   -0.050271
    88  C   -0.097891
    89  C    0.098254
    90  C    0.023311
    91  C    0.001813
    92  C   -0.114960
    93  H    0.031924
    94  N   -0.466399
    95  C    0.154044
    96  C   -0.174242
    97  C   -0.070189
    98  C    0.138016
    99  C    0.077735
   100  C    0.062707
   101  O   -0.243511
   102  C   -0.045482
   103  N   -0.389950
   104  C    0.116248
   105  C   -0.106942
   106  C   -0.048729
   107  C    0.073187
   108  C    0.009940
   109  C    0.001437
   110  C   -0.071388
   111  N   -0.414151
   112  C    0.082039
   113  C   -0.193362
   114  C   -0.037931
   115  C    0.139258
   116  C    0.088175
   117  C    0.083161
   118  O   -0.205392
   119  C   -0.074308
   120  C    0.226333
   121  O   -0.256878
   122  O   -0.333939
   123  C    0.142511
   124  H   -0.000080
   125  H    0.028427
   126  H   -0.008037
   127  H    0.049745
   128  H    0.040053
   129  H    0.051975
   130  H    0.043564
   131  H    0.040183
   132  H    0.030987
   133  H    0.043327
   134  H    0.042795
   135  H    0.062634
   136  H    0.053215
   137  H    0.041065
   138  H    0.058500
   139  H    0.058589
   140  H    0.065485
   141  H    0.052878
   142  H    0.043247
   143  H    0.032363
   144  H    0.027662
   145  H    0.060856
   146  H    0.025928
   147  H    0.049353
   148  H    0.028171
   149  H    0.020853
   150  H    0.037409
   151  H    0.045775
   152  H    0.054250
   153  H    0.052856
   154  H    0.061467
   155  H    0.067068
   156  H    0.054638
   157  H    0.045137
   158  H    0.057002
 Sum of Mulliken charges =  -0.00000

 Dipole moment (field-independent basis, Debye):
    X=             -9.0167    Y=              0.4291    Z=              7.4230  Tot=             11.6870
 Quadrupole moment (field-independent basis, Debye-Ang):
   XX=           -445.1917   YY=           -481.1040   ZZ=           -485.7365
   XY=            -40.8383   XZ=             92.8791   YZ=             50.9441

 Normal termination of Gaussian 16 at Sun Sep 19 02:41:52 2021.
