 Gaussian 16, Revision A.03,
 Gaussian 16:  ES64L-G16RevA.03 25-Dec-2016

 --------------------------------
 #p wB97XD/Def2SVP td=(nstates=5)
 --------------------------------

 --------------------------------
 TDDFT excited states in gaussian
 --------------------------------
 Symbolic Z-matrix:
 Charge =  0 Multiplicity = 1

                         Standard orientation:
 ---------------------------------------------------------------------
 Center     Atomic      Atomic             Coordinates (Angstroms)
 Number     Number       Type             X           Y           Z
 ---------------------------------------------------------------------
      1         12           0       -0.701979    0.053843   -0.397823
      2          6           0        2.744528   -0.145074   -0.504842
      3          6           0       -0.803033   -3.386716   -0.346205
      4          6           0       -4.058377    0.239819    0.308721
      5          6           0       -0.511636    3.490622   -0.338553
      6          7           0        0.783663   -1.557755   -0.221067
      7          6           0        2.145208   -1.372784   -0.359150
      8          6           0        2.902988   -2.697744   -0.351353
      9          6           0        1.737352   -3.714278   -0.644743
     10          6           0        0.517428   -2.855780   -0.344153
     11          6           0        1.738019   -4.440524   -2.065586
     12          6           0        3.752764   -3.004643    0.922867
     13          6           0        5.145321   -3.542912    0.670647
     14          1           0        5.279667   -5.000857    1.081927
     15          7           0       -2.167542   -1.379863   -0.059274
     16          6           0       -2.024224   -2.709100   -0.107009
     17          6           0       -3.304676   -3.372566    0.067564
     18          6           0       -4.306460   -2.437547    0.267889
     19          6           0       -3.542879   -1.116921    0.232783
     20          6           0       -3.449933   -4.967737    0.116538
     21          6           0       -5.841471   -2.712618    0.411301
     22          8           0       -6.242144   -3.910762    0.434184
     23          6           0       -6.823343   -1.615783    0.570990
     24          7           0       -2.111959    1.684369    0.195417
     25          6           0       -3.414067    1.524619    0.253486
     26          6           0       -4.171771    2.832162    0.155259
     27          6           0       -3.095262    3.963687    0.035430
     28          6           0       -1.802548    3.028582   -0.124369
     29          6           0       -5.437767    2.935466   -0.754019
     30          6           0       -2.915872    5.008641    1.174621
     31          6           0       -2.157644    6.242747    0.731383
     32          7           0        0.833969    1.436203   -0.406101
     33          6           0        0.765732    2.847416   -0.465121
     34          6           0        2.102863    3.346027   -0.638107
     35          6           0        2.945725    2.209442   -0.697049
     36          6           0        2.102978    1.117824   -0.506990
     37          6           0        2.500889    4.777241   -0.966788
     38          6           0        4.261788    1.841649   -0.875433
     39          8           0        5.310760    2.421013   -0.953291
     40          6           0        4.235487    0.247462   -0.609607
     41          6           0        4.755950    0.105905    0.819948
     42          8           0        4.105429    0.279392    1.832522
     43          8           0        6.096081   -0.232750    0.724406
     44          6           0        6.824900   -0.312282    1.986206
     45          1           0       -0.915578   -4.457656   -0.526630
     46          1           0       -5.129539    0.225550    0.519061
     47          1           0       -0.309728    4.555571   -0.471007
     48          1           0        3.549217   -2.707805   -1.228592
     49          1           0        1.717637   -4.412618    0.192729
     50          1           0        0.685331   -4.699885   -2.177669
     51          1           0        2.230931   -5.413005   -2.071548
     52          1           0        2.118254   -3.867538   -2.911175
     53          1           0        3.152367   -3.749360    1.445778
     54          1           0        3.771916   -2.240850    1.699995
     55          1           0        5.839949   -2.916652    1.230926
     56          1           0        5.424897   -3.501207   -0.382249
     57          1           0       -2.513524   -5.522283    0.042382
     58          1           0       -4.110197   -5.316107   -0.678387
     59          1           0       -3.804795   -5.335339    1.078371
     60          1           0       -6.776883   -0.957155   -0.295701
     61          1           0       -6.742765   -1.143616    1.550194
     62          1           0       -7.784430   -2.100397    0.403594
     63          1           0       -4.621482    3.185455    1.083413
     64          1           0       -3.075415    4.417640   -0.955626
     65          1           0       -5.698030    1.909833   -1.019243
     66          1           0       -5.321793    3.618986   -1.595908
     67          1           0       -6.321205    3.325642   -0.248440
     68          1           0       -2.445818    4.474315    2.000129
     69          1           0       -3.932959    5.221091    1.503855
     70          1           0       -2.535039    7.084615    1.312380
     71          1           0       -2.265955    6.504163   -0.321915
     72          1           0       -1.116255    6.148063    1.039134
     73          1           0        3.546293    4.889837   -1.254254
     74          1           0        2.262512    5.392007   -0.099804
     75          1           0        1.906544    5.173827   -1.790014
     76          1           0        4.765623   -0.295111   -1.392946
     77          1           0        6.874290    0.677738    2.439851
     78          1           0        7.814489   -0.748993    1.856094
     79          1           0        6.263539   -0.925657    2.690444
 ---------------------------------------------------------------------

 SCF Done:  E(RwB97XD) =  -2035.30581117     A.U. after   19 cycles

 Excitation energies and oscillator strengths:

 Excited State   1:      Singlet-A      1.8711 eV  662.61 nm  f=0.3736  <S**2>=0.000
     155 ->158         0.14189
     156 ->157         0.68597
 This state for optimization and/or second-order correction.
 Total Energy, E(TD-HF/TD-DFT) =  -2035.23704790
 Copying the excited state density for this state as the 1-particle RhoCI density.

 Excited State   2:      Singlet-A      2.2254 eV  557.13 nm  f=0.1257  <S**2>=0.000
     155 ->157         0.64383
     156 ->158        -0.24649
     156 ->159         0.10826

 Excited State   3:      Singlet-A      3.5520 eV  349.06 nm  f=0.1252  <S**2>=0.000
     150 ->157        -0.18600
     150 ->158         0.17414
     150 ->159         0.20844
     150 ->160        -0.11001
     151 ->157         0.35575
     151 ->159        -0.12272
     152 ->157         0.29277
     153 ->157        -0.11756
     156 ->158         0.29727

 Excited State   4:      Singlet-A      3.6014 eV  344.26 nm  f=0.2004  <S**2>=0.000
     150 ->157         0.38298
     150 ->158        -0.20411
     150 ->159        -0.24625
     150 ->160         0.10102
     151 ->159         0.10149
     152 ->157         0.19291
     155 ->157         0.12973
     156 ->158         0.34397

 Excited State   5:      Singlet-A      3.6585 eV  338.89 nm  f=0.1523  <S**2>=0.000
     152 ->157        -0.19355
     153 ->157         0.28414
     154 ->157         0.41258
     155 ->157         0.15989
     156 ->158         0.36187
     156 ->159        -0.10293

 The electronic state is 1-A.
 Alpha  occ. eigenvalues --  -46.95753 -19.29688 -19.25350 -19.24732 -19.22654
 Alpha  occ. eigenvalues --  -14.46922 -14.46633 -14.45226 -14.43015 -10.42891
 Alpha  occ. eigenvalues --  -10.41106 -10.37350 -10.37294 -10.36531 -10.35834
 Alpha  occ. eigenvalues --  -10.35255 -10.34850 -10.34354 -10.34088 -10.33774
 Alpha  occ. eigenvalues --  -10.33393 -10.32496 -10.32418 -10.32305 -10.32244
 Alpha  occ. eigenvalues --  -10.32214 -10.32123 -10.31571 -10.31365 -10.31183
 Alpha  occ. eigenvalues --  -10.31110 -10.31062 -10.31041 -10.30949 -10.30828
 Alpha  occ. eigenvalues --  -10.30790 -10.30784 -10.30772 -10.30494 -10.29885
 Alpha  occ. eigenvalues --  -10.29635 -10.29087 -10.26997  -3.21648  -1.95218
 Alpha  occ. eigenvalues --   -1.94773  -1.94618  -1.17554  -1.11936  -1.11447
 Alpha  occ. eigenvalues --   -1.10032  -1.06611  -1.05877  -1.05286  -1.04545
 Alpha  occ. eigenvalues --   -0.93471  -0.91036  -0.90356  -0.89956  -0.89007
 Alpha  occ. eigenvalues --   -0.88705  -0.87720  -0.86410  -0.85549  -0.85132
 Alpha  occ. eigenvalues --   -0.83995  -0.82622  -0.82155  -0.79595  -0.79104
 Alpha  occ. eigenvalues --   -0.78645  -0.77265  -0.77093  -0.74358  -0.73681
 Alpha  occ. eigenvalues --   -0.71666  -0.71104  -0.69851  -0.69374  -0.67551
 Alpha  occ. eigenvalues --   -0.67399  -0.66703  -0.66032  -0.63671  -0.62037
 Alpha  occ. eigenvalues --   -0.61428  -0.61039  -0.60473  -0.59764  -0.59327
 Alpha  occ. eigenvalues --   -0.58467  -0.57409  -0.56970  -0.56090  -0.55920
 Alpha  occ. eigenvalues --   -0.55666  -0.55275  -0.55114  -0.54701  -0.53950
 Alpha  occ. eigenvalues --   -0.53500  -0.52976  -0.52670  -0.52499  -0.52135
 Alpha  occ. eigenvalues --   -0.51964  -0.51745  -0.51408  -0.50985  -0.50614
 Alpha  occ. eigenvalues --   -0.50402  -0.50129  -0.49524  -0.49283  -0.49170
 Alpha  occ. eigenvalues --   -0.48505  -0.48121  -0.48038  -0.47920  -0.47129
 Alpha  occ. eigenvalues --   -0.47112  -0.46964  -0.46799  -0.46602  -0.46260
 Alpha  occ. eigenvalues --   -0.45851  -0.45507  -0.45313  -0.45086  -0.44773
 Alpha  occ. eigenvalues --   -0.44457  -0.44448  -0.44089  -0.43979  -0.43503
 Alpha  occ. eigenvalues --   -0.42649  -0.42335  -0.42081  -0.41766  -0.41230
 Alpha  occ. eigenvalues --   -0.40885  -0.40005  -0.39274  -0.38599  -0.38317
 Alpha  occ. eigenvalues --   -0.37278  -0.36387  -0.36144  -0.35337  -0.34480
 Alpha  occ. eigenvalues --   -0.34129  -0.33067  -0.31602  -0.31158  -0.26052
 Alpha  occ. eigenvalues --   -0.23351
 Alpha virt. eigenvalues --   -0.06738   0.00150   0.02180   0.04094   0.04931
 Alpha virt. eigenvalues --    0.07620   0.08185   0.08917   0.09343   0.10821
 Alpha virt. eigenvalues --    0.12092   0.12467   0.12806   0.13436   0.13683

 Mulliken charges:
               1
     1  Mg   0.966460
     2  C   -0.041145
     3  C   -0.128770
     4  C   -0.109188
     5  C   -0.042133
     6  N   -0.332905
     7  C   -0.011796
     8  C   -0.074440
     9  C   -0.076015
    10  C    0.063455
    11  C    0.034897
    12  C    0.028224
    13  C   -0.107166
    14  H    0.024747
    15  N   -0.466167
    16  C    0.186209
    17  C   -0.152994
    18  C   -0.065533
    19  C    0.142271
    20  C    0.072221
    21  C    0.052410
    22  O   -0.253992
    23  C    0.003636
    24  N   -0.331013
    25  C    0.128638
    26  C   -0.083508
    27  C   -0.090860
    28  C    0.027246
    29  C    0.020525
    30  C    0.009854
    31  C   -0.034578
    32  N   -0.438336
    33  C    0.046254
    34  C   -0.148196
    35  C    0.002706
    36  C    0.157813
    37  C    0.059525
    38  C    0.057988
    39  O   -0.195152
    40  C   -0.118128
    41  C    0.297122
    42  O   -0.238891
    43  O   -0.364143
    44  C    0.141263
    45  H   -0.003545
    46  H   -0.019449
    47  H   -0.016865
    48  H    0.023277
    49  H    0.032766
    50  H    0.025027
    51  H    0.044679
    52  H    0.053883
    53  H    0.020251
    54  H    0.052794
    55  H    0.048269
    56  H    0.048685
    57  H    0.019585
    58  H    0.064667
    59  H    0.059484
    60  H    0.061880
    61  H    0.091279
    62  H    0.055064
    63  H    0.038397
    64  H    0.031581
    65  H    0.030241
    66  H    0.041606
    67  H    0.029155
    68  H    0.042106
    69  H    0.025819
    70  H    0.032467
    71  H    0.043080
    72  H    0.051700
    73  H    0.058577
    74  H    0.038066
    75  H    0.040759
    76  H    0.054829
    77  H    0.058160
    78  H    0.060943
    79  H    0.042368
 Sum of Mulliken charges =  -0.00000

 Dipole moment (field-independent basis, Debye):
    X=             -4.3506    Y=             -0.1189    Z=             -1.0728  Tot=              4.4825
 Quadrupole moment (field-independent basis, Debye-Ang):
   XX=           -260.4252   YY=           -243.5102   ZZ=           -253.9243
   XY=            -41.0076   XZ=              7.0253   YZ=              5.2299

 Normal termination of Gaussian 16 at Sun Sep 19 12:38:03 2021.
