 Gaussian 16, Revision A.03,
 Gaussian 16:  ES64L-G16RevA.03 25-Dec-2016

 --------------------------------
 #p wB97XD/Def2SVP td=(nstates=5)
 --------------------------------

 --------------------------------
 TDDFT excited states in gaussian
 --------------------------------
 Symbolic Z-matrix:
 Charge =  0 Multiplicity = 1

                         Standard orientation:
 ---------------------------------------------------------------------
 Center     Atomic      Atomic             Coordinates (Angstroms)
 Number     Number       Type             X           Y           Z
 ---------------------------------------------------------------------
      1         12           0       12.646296    0.251410    0.191033
      2          6           0        9.322480   -0.382001   -0.344319
      3          6           0       13.151600    0.468385   -3.110021
      4          6           0       15.927125    0.619321    0.872176
      5          6           0       12.126589   -0.511714    3.707682
      6          7           0       11.372320   -0.215695   -1.561303
      7          6           0       10.039240   -0.335918   -1.559331
      8          6           0        9.468938   -0.381203   -3.068767
      9          6           0       10.793860   -0.085964   -3.866514
     10          6           0       11.895833    0.032092   -2.794361
     11          6           0       11.072019   -1.092521   -4.999837
     12          6           0        8.334601    0.646764   -3.342400
     13          6           0        7.953541    0.952713   -4.827696
     14          1           0        6.635661    0.300614   -5.394484
     15          7           0       14.332291    0.462598   -0.978489
     16          6           0       14.334862    0.631766   -2.284378
     17          6           0       15.702547    0.872440   -2.718775
     18          6           0       16.585207    0.818272   -1.598396
     19          6           0       15.618182    0.631099   -0.494499
     20          6           0       16.162478    0.987176   -4.162710
     21          6           0       18.107323    0.880869   -1.525443
     22          8           0       18.707908    0.527202   -0.514875
     23          6           0       18.860620    1.377052   -2.709707
     24          7           0       13.858210    0.030169    2.036748
     25          6           0       15.161623    0.282966    2.041848
     26          6           0       15.739725    0.308987    3.466497
     27          6           0       14.466018    0.159277    4.294364
     28          6           0       13.434602   -0.159257    3.277285
     29          6           0       16.849033   -0.695082    3.813399
     30          6           0       14.232161    1.281310    5.274010
     31          6           0       14.239708    0.887764    6.794239
     32          7           0       11.106112   -0.263111    1.433065
     33          6           0       10.998922   -0.463534    2.850220
     34          6           0        9.621327   -0.652436    3.248471
     35          6           0        8.968463   -0.601429    1.985472
     36          6           0        9.895223   -0.381257    0.958722
     37          6           0        8.979056   -0.709839    4.589552
     38          6           0        7.627476   -0.521167    1.463715
     39          8           0        6.504385   -0.409537    1.977581
     40          6           0        7.736080   -0.507921   -0.040575
     41          6           0        7.267960   -1.879520   -0.574865
     42          8           0        7.530643   -3.001217   -0.114624
     43          8           0        6.499606   -1.650071   -1.677376
     44          6           0        5.891617   -2.835103   -2.361477
     45          1           0       13.425613    0.684279   -4.144808
     46          1           0       16.975955    0.526582    1.161687
     47          1           0       12.026402   -0.593522    4.791471
     48          1           0        9.150480   -1.415617   -3.192696
     49          1           0       10.700307    0.911266   -4.296431
     50          1           0       11.405765   -0.513940   -5.860519
     51          1           0       10.168791   -1.618656   -5.308996
     52          1           0       11.833360   -1.813571   -4.702017
     53          1           0        8.739028    1.605290   -3.017222
     54          1           0        7.417394    0.329794   -2.846181
     55          1           0        8.724016    0.496125   -5.449833
     56          1           0        7.841444    2.030181   -4.943494
     57          1           0       15.324844    0.901736   -4.854895
     58          1           0       16.874926    0.192599   -4.383110
     59          1           0       16.666277    1.933734   -4.354294
     60          1           0       18.367904    2.308708   -2.989232
     61          1           0       18.960480    0.806072   -3.632305
     62          1           0       19.908473    1.578252   -2.489571
     63          1           0       16.162350    1.299603    3.630824
     64          1           0       14.587716   -0.730534    4.911787
     65          1           0       17.532780   -0.123801    4.440788
     66          1           0       17.288008   -1.111136    2.906708
     67          1           0       16.496411   -1.605673    4.297634
     68          1           0       13.206541    1.587679    5.070709
     69          1           0       14.939863    2.103761    5.174001
     70          1           0       14.395157   -0.186213    6.900164
     71          1           0       13.253809    1.127793    7.193532
     72          1           0       14.924574    1.457834    7.422160
     73          1           0        9.699736   -0.443575    5.362293
     74          1           0        8.766752   -1.765067    4.757457
     75          1           0        8.144290   -0.010217    4.527237
     76          1           0        7.069599    0.298239   -0.347767
     77          1           0        6.570745   -3.670529   -2.533368
     78          1           0        5.384882   -2.603237   -3.297677
     79          1           0        5.156701   -3.226505   -1.658261
     80         12           0      -12.250560   -0.587499   -0.405665
     81          6           0      -11.989873    2.852705   -0.568368
     82          6           0       -8.941026   -0.785998   -1.331898
     83          6           0      -12.326232   -3.942339    0.328177
     84          6           0      -15.522429   -0.300658    0.625736
     85          7           0      -10.612432    0.850742   -0.694839
     86          6           0      -10.789233    2.217930   -0.776235
     87          6           0       -9.494956    2.937933   -1.145359
     88          6           0       -8.637720    1.746224   -1.713779
     89          6           0       -9.410904    0.548873   -1.180744
     90          6           0       -8.344442    1.736680   -3.282258
     91          6           0       -8.814751    3.769458   -0.011414
     92          6           0       -8.329772    5.148058   -0.407423
     93          1           0       -6.811779    5.238215   -0.426689
     94          7           0      -10.823013   -2.095360   -0.486101
     95          6           0       -9.558276   -1.989276   -0.909036
     96          6           0       -8.910121   -3.289176   -0.928450
     97          6           0       -9.778728   -4.265593   -0.470090
     98          6           0      -11.032290   -3.464806   -0.129999
     99          6           0       -7.371463   -3.479751   -1.333768
    100          6           0       -9.519105   -5.808755   -0.408955
    101          8           0       -8.375842   -6.243243   -0.726413
    102          6           0      -10.553758   -6.760407    0.056312
    103          7           0      -13.686305   -1.955152    0.627174
    104          6           0      -13.554635   -3.261637    0.638932
    105          6           0      -14.857856   -3.981401    0.916399
    106          6           0      -15.945071   -2.872542    1.121280
    107          6           0      -15.056419   -1.605615    0.701448
    108          6           0      -15.251556   -5.237359    0.075106
    109          6           0      -16.618451   -2.671983    2.509876
    110          6           0      -17.904960   -1.876033    2.434062
    111          7           0      -13.533197    0.986875   -0.023157
    112          6           0      -14.904593    0.958928    0.320578
    113          6           0      -15.392631    2.310818    0.294696
    114          6           0      -14.295359    3.121667   -0.085089
    115          6           0      -13.219675    2.247089   -0.211553
    116          6           0      -16.846079    2.751454    0.385022
    117          6           0      -13.955076    4.428081   -0.361861
    118          8           0      -14.501936    5.493525   -0.273312
    119          6           0      -12.352412    4.354869   -0.559080
    120          6           0      -11.796238    4.860763    0.771067
    121          8           0      -11.694370    4.208083    1.791955
    122          8           0      -11.459695    6.191458    0.581973
    123          6           0      -11.004470    6.908585    1.768624
    124          1           0       -7.968945   -0.927418   -1.808542
    125          1           0      -12.284109   -5.014972    0.526971
    126          1           0      -16.574879   -0.067817    0.800556
    127          1           0       -9.715223    3.589956   -1.990113
    128          1           0       -7.731468    1.700741   -1.108747
    129          1           0       -8.158275    0.677930   -3.462183
    130          1           0       -7.399637    2.201976   -3.564321
    131          1           0       -9.122344    2.139050   -3.931011
    132          1           0       -7.970146    3.144510    0.279438
    133          1           0       -9.325959    3.804534    0.950414
    134          1           0       -8.750965    5.856010    0.306734
    135          1           0       -8.660140    5.436316   -1.405549
    136          1           0       -6.833678   -2.558857   -1.563158
    137          1           0       -7.282163   -4.143813   -2.194155
    138          1           0       -6.756728   -3.851805   -0.515319
    139          1           0      -11.429452   -6.689100   -0.588031
    140          1           0      -10.726352   -6.673626    1.129138
    141          1           0      -10.164697   -7.733552   -0.240639
    142          1           0      -14.946423   -4.427670    1.907119
    143          1           0      -16.660617   -2.832714    0.299655
    144          1           0      -14.351248   -5.524540   -0.469848
    145          1           0      -16.142053   -5.096044   -0.538468
    146          1           0      -15.507923   -6.113070    0.671526
    147          1           0      -15.858539   -2.223189    3.149435
    148          1           0      -16.758357   -3.685025    2.886927
    149          1           0      -18.558162   -2.233712    3.230378
    150          1           0      -18.457336   -1.969292    1.498279
    151          1           0      -17.696618   -0.839988    2.701214
    152          1           0      -17.005068    3.801673    0.140186
    153          1           0      -17.196462    2.524252    1.391020
    154          1           0      -17.476937    2.174516   -0.291284
    155          1           0      -12.039013    4.875137   -1.464702
    156          1           0      -11.823360    6.982614    2.484385
    157          1           0      -10.593948    7.886369    1.518941
    158          1           0      -10.233208    6.325049    2.270568
 ---------------------------------------------------------------------

 SCF Done:  E(RwB97XD) =  -4070.61196299     A.U. after   20 cycles

 Excitation energies and oscillator strengths:

 Excited State   1:      Singlet-A      1.6635 eV  745.33 nm  f=0.4115  <S**2>=0.000
     310 -> 315        0.18169
     312 -> 313        0.68160
     310 <- 315        0.11253
 This state for optimization and/or second-order correction.
 Total Energy, E(TD-HF/TD-DFT) =  -4070.55083126
 Copying the excited state density for this state as the 1-particle RhoCI density.

 Excited State   2:      Singlet-A      1.8728 eV  662.03 nm  f=0.3729  <S**2>=0.000
     309 -> 316        0.14186
     311 -> 314        0.68593

 Excited State   3:      Singlet-A      2.2223 eV  557.91 nm  f=0.1217  <S**2>=0.000
     309 -> 314       -0.11350
     310 -> 313        0.62702
     312 -> 315       -0.28468

 Excited State   4:      Singlet-A      2.2259 eV  557.00 nm  f=0.1140  <S**2>=0.000
     309 -> 314        0.63380
     310 -> 313        0.11183
     311 -> 316       -0.24282
     311 -> 317        0.10599

 Excited State   5:      Singlet-A      3.4338 eV  361.07 nm  f=0.0045  <S**2>=0.000
     305 -> 313        0.28973
     305 -> 318        0.17483
     305 -> 320        0.20794
     306 -> 313        0.51122
     306 -> 318        0.15926
     306 -> 320        0.14343

 The electronic state is 1-A.
 Alpha  occ. eigenvalues --  -46.95663 -46.95542 -19.30852 -19.29598 -19.25249
 Alpha  occ. eigenvalues --  -19.24640 -19.24586 -19.24406 -19.22750 -19.22568
 Alpha  occ. eigenvalues --  -14.46830 -14.46673 -14.46542 -14.46280 -14.45128
 Alpha  occ. eigenvalues --  -14.44693 -14.43888 -14.42928 -10.43424 -10.42801
 Alpha  occ. eigenvalues --  -10.41005 -10.40087 -10.37362 -10.37259 -10.37209
 Alpha  occ. eigenvalues --  -10.36445 -10.35942 -10.35742 -10.35735 -10.35162
 Alpha  occ. eigenvalues --  -10.35012 -10.34760 -10.34494 -10.34443 -10.34358
 Alpha  occ. eigenvalues --  -10.34267 -10.34034 -10.33990 -10.33987 -10.33682
 Alpha  occ. eigenvalues --  -10.33369 -10.33294 -10.32800 -10.32743 -10.32449
 Alpha  occ. eigenvalues --  -10.32397 -10.32337 -10.32216 -10.32195 -10.32170
 Alpha  occ. eigenvalues --  -10.32136 -10.32134 -10.32122 -10.32042 -10.31820
 Alpha  occ. eigenvalues --  -10.31673 -10.31584 -10.31472 -10.31268 -10.31096
 Alpha  occ. eigenvalues --  -10.31056 -10.31021 -10.30981 -10.30971 -10.30946
 Alpha  occ. eigenvalues --  -10.30861 -10.30752 -10.30735 -10.30733 -10.30697
 Alpha  occ. eigenvalues --  -10.30694 -10.30675 -10.30618 -10.30415 -10.30402
 Alpha  occ. eigenvalues --  -10.30249 -10.30191 -10.30122 -10.30054 -10.29776
 Alpha  occ. eigenvalues --  -10.29563 -10.29542 -10.29513 -10.29011 -10.28440
 Alpha  occ. eigenvalues --  -10.26908  -3.21558  -3.21509  -1.95128  -1.95090
 Alpha  occ. eigenvalues --   -1.94682  -1.94624  -1.94529  -1.94493  -1.17739
 Alpha  occ. eigenvalues --   -1.17464  -1.12623  -1.11852  -1.11345  -1.10197
 Alpha  occ. eigenvalues --   -1.09941  -1.08736  -1.07740  -1.06518  -1.06418
 Alpha  occ. eigenvalues --   -1.05916  -1.05787  -1.05193  -1.04994  -1.04455
 Alpha  occ. eigenvalues --   -0.93381  -0.93249  -0.91783  -0.90956  -0.90600
 Alpha  occ. eigenvalues --   -0.90256  -0.90111  -0.89865  -0.89508  -0.89092
 Alpha  occ. eigenvalues --   -0.88957  -0.88917  -0.88607  -0.87632  -0.86320
 Alpha  occ. eigenvalues --   -0.86118  -0.85462  -0.85228  -0.85036  -0.84293
 Alpha  occ. eigenvalues --   -0.84075  -0.83902  -0.83047  -0.82531  -0.82065
 Alpha  occ. eigenvalues --   -0.82013  -0.80503  -0.79502  -0.79481  -0.79017
 Alpha  occ. eigenvalues --   -0.78680  -0.78550  -0.78027  -0.77295  -0.77173
 Alpha  occ. eigenvalues --   -0.77005  -0.74639  -0.74269  -0.73672  -0.73591
 Alpha  occ. eigenvalues --   -0.71583  -0.71369  -0.71072  -0.71012  -0.69757
 Alpha  occ. eigenvalues --   -0.69708  -0.69588  -0.69275  -0.67779  -0.67453
 Alpha  occ. eigenvalues --   -0.67316  -0.66903  -0.66611  -0.66427  -0.65942
 Alpha  occ. eigenvalues --   -0.65917  -0.64631  -0.63581  -0.62739  -0.61944
 Alpha  occ. eigenvalues --   -0.61629  -0.61336  -0.60947  -0.60879  -0.60625
 Alpha  occ. eigenvalues --   -0.60381  -0.59991  -0.59675  -0.59380  -0.59237
 Alpha  occ. eigenvalues --   -0.58374  -0.58318  -0.57651  -0.57320  -0.57094
 Alpha  occ. eigenvalues --   -0.56880  -0.56474  -0.56075  -0.56004  -0.55822
 Alpha  occ. eigenvalues --   -0.55694  -0.55573  -0.55354  -0.55184  -0.55020
 Alpha  occ. eigenvalues --   -0.54746  -0.54610  -0.54488  -0.54123  -0.53864
 Alpha  occ. eigenvalues --   -0.53632  -0.53421  -0.53134  -0.53057  -0.52887
 Alpha  occ. eigenvalues --   -0.52658  -0.52578  -0.52459  -0.52404  -0.52039
 Alpha  occ. eigenvalues --   -0.51876  -0.51867  -0.51740  -0.51655  -0.51610
 Alpha  occ. eigenvalues --   -0.51312  -0.51282  -0.51003  -0.50895  -0.50887
 Alpha  occ. eigenvalues --   -0.50522  -0.50493  -0.50314  -0.50133  -0.50050
 Alpha  occ. eigenvalues --   -0.49768  -0.49628  -0.49436  -0.49248  -0.49189
 Alpha  occ. eigenvalues --   -0.49077  -0.48739  -0.48407  -0.48332  -0.48081
 Alpha  occ. eigenvalues --   -0.48023  -0.47951  -0.47889  -0.47831  -0.47039
 Alpha  occ. eigenvalues --   -0.47022  -0.46917  -0.46873  -0.46709  -0.46680
 Alpha  occ. eigenvalues --   -0.46508  -0.46446  -0.46335  -0.46161  -0.46070
 Alpha  occ. eigenvalues --   -0.45938  -0.45785  -0.45760  -0.45546  -0.45418
 Alpha  occ. eigenvalues --   -0.45231  -0.44991  -0.44848  -0.44726  -0.44673
 Alpha  occ. eigenvalues --   -0.44364  -0.44358  -0.44184  -0.44002  -0.43985
 Alpha  occ. eigenvalues --   -0.43902  -0.43888  -0.43765  -0.43462  -0.43406
 Alpha  occ. eigenvalues --   -0.43113  -0.42730  -0.42560  -0.42359  -0.42252
 Alpha  occ. eigenvalues --   -0.41997  -0.41674  -0.41191  -0.41147  -0.40999
 Alpha  occ. eigenvalues --   -0.40785  -0.40191  -0.39910  -0.39791  -0.39188
 Alpha  occ. eigenvalues --   -0.39179  -0.38701  -0.38508  -0.38227  -0.38227
 Alpha  occ. eigenvalues --   -0.37895  -0.37183  -0.36291  -0.36280  -0.36053
 Alpha  occ. eigenvalues --   -0.36004  -0.35579  -0.35245  -0.34379  -0.34031
 Alpha  occ. eigenvalues --   -0.33931  -0.33340  -0.32976  -0.32798  -0.31963
 Alpha  occ. eigenvalues --   -0.31824  -0.31516  -0.31072  -0.25961  -0.25847
 Alpha  occ. eigenvalues --   -0.23263  -0.22927
 Alpha virt. eigenvalues --   -0.06911  -0.06643   0.00145   0.00242   0.02276
 Alpha virt. eigenvalues --    0.02616   0.04182   0.04604   0.05013   0.05062
 Alpha virt. eigenvalues --    0.07453   0.07718   0.07815   0.08279   0.08939

 Mulliken charges:
               1
     1  Mg   0.970344
     2  C   -0.074835
     3  C   -0.078829
     4  C   -0.049468
     5  C   -0.066221
     6  N   -0.355689
     7  C   -0.026045
     8  C   -0.008783
     9  C   -0.153520
    10  C    0.120048
    11  C    0.024353
    12  C   -0.009675
    13  C   -0.131261
    14  H    0.014737
    15  N   -0.438280
    16  C    0.116795
    17  C   -0.186950
    18  C   -0.059091
    19  C    0.130885
    20  C    0.069523
    21  C    0.087714
    22  O   -0.227286
    23  C   -0.033337
    24  N   -0.274198
    25  C   -0.007305
    26  C   -0.114744
    27  C   -0.055432
    28  C    0.009671
    29  C    0.036074
    30  C    0.000414
    31  C   -0.068121
    32  N   -0.456852
    33  C    0.123252
    34  C   -0.170354
    35  C   -0.077052
    36  C    0.206189
    37  C    0.109154
    38  C    0.102782
    39  O   -0.239444
    40  C   -0.055903
    41  C    0.293701
    42  O   -0.265934
    43  O   -0.365278
    44  C    0.138556
    45  H   -0.019894
    46  H    0.029585
    47  H    0.004140
    48  H    0.040429
    49  H    0.037063
    50  H    0.033995
    51  H    0.041416
    52  H    0.049700
    53  H    0.031968
    54  H    0.073414
    55  H    0.048394
    56  H    0.065614
    57  H    0.031720
    58  H    0.051511
    59  H    0.041245
    60  H    0.048802
    61  H    0.063174
    62  H    0.052481
    63  H    0.038885
    64  H    0.021360
    65  H    0.046554
    66  H    0.044284
    67  H    0.029794
    68  H    0.030516
    69  H    0.036941
    70  H    0.033096
    71  H    0.033466
    72  H    0.042003
    73  H    0.019363
    74  H    0.065470
    75  H    0.081100
    76  H    0.069538
    77  H    0.058657
    78  H    0.063402
    79  H    0.056509
    80  Mg   0.966497
    81  C   -0.041603
    82  C   -0.128604
    83  C   -0.109220
    84  C   -0.042252
    85  N   -0.333097
    86  C   -0.011541
    87  C   -0.074690
    88  C   -0.076006
    89  C    0.063706
    90  C    0.034865
    91  C    0.028182
    92  C   -0.107273
    93  H    0.025243
    94  N   -0.466004
    95  C    0.186012
    96  C   -0.152929
    97  C   -0.065516
    98  C    0.142500
    99  C    0.072186
   100  C    0.052407
   101  O   -0.253798
   102  C    0.003684
   103  N   -0.330975
   104  C    0.128611
   105  C   -0.083464
   106  C   -0.091018
   107  C    0.027324
   108  C    0.020539
   109  C    0.009941
   110  C   -0.034528
   111  N   -0.438459
   112  C    0.046329
   113  C   -0.148336
   114  C    0.002679
   115  C    0.157794
   116  C    0.059534
   117  C    0.057818
   118  O   -0.195373
   119  C   -0.117651
   120  C    0.296950
   121  O   -0.238758
   122  O   -0.364221
   123  C    0.141279
   124  H   -0.003367
   125  H   -0.019487
   126  H   -0.017022
   127  H    0.023106
   128  H    0.033249
   129  H    0.024951
   130  H    0.044737
   131  H    0.053639
   132  H    0.020693
   133  H    0.052878
   134  H    0.048132
   135  H    0.048410
   136  H    0.019841
   137  H    0.064406
   138  H    0.060091
   139  H    0.061678
   140  H    0.091389
   141  H    0.055021
   142  H    0.038420
   143  H    0.031461
   144  H    0.030257
   145  H    0.041457
   146  H    0.029104
   147  H    0.042199
   148  H    0.025753
   149  H    0.032359
   150  H    0.042965
   151  H    0.051707
   152  H    0.058445
   153  H    0.038009
   154  H    0.040603
   155  H    0.054688
   156  H    0.058055
   157  H    0.060837
   158  H    0.042573
 Sum of Mulliken charges =  -0.00000

 Dipole moment (field-independent basis, Debye):
    X=              2.8443    Y=             -1.7299    Z=             -4.2626  Tot=              5.4086
 Quadrupole moment (field-independent basis, Debye-Ang):
   XX=           -444.9375   YY=           -519.4578   ZZ=           -466.3546
   XY=            130.1333   XZ=            -20.2776   YZ=             -0.6523

 Normal termination of Gaussian 16 at Sun Sep 19 06:20:22 2021.
