 Gaussian 16, Revision A.03,
 Gaussian 16:  ES64L-G16RevA.03 25-Dec-2016

 --------------------------------
 #p wB97XD/Def2SVP td=(nstates=5)
 --------------------------------

 --------------------------------
 TDDFT excited states in gaussian
 --------------------------------
 Symbolic Z-matrix:
 Charge =  0 Multiplicity = 1

                         Standard orientation:
 ---------------------------------------------------------------------
 Center     Atomic      Atomic             Coordinates (Angstroms)
 Number     Number       Type             X           Y           Z
 ---------------------------------------------------------------------
      1         12           0       13.400035   -0.716136    0.196301
      2          6           0       11.794277    2.044343   -1.466076
      3          6           0       14.996611    1.595490    2.135676
      4          6           0       15.114924   -3.272235    1.529335
      5          6           0       12.073333   -2.778442   -2.156977
      6          7           0       13.334427    1.657452    0.335686
      7          6           0       12.563111    2.479826   -0.433214
      8          6           0       12.681705    3.844354    0.131885
      9          6           0       13.808296    3.750379    1.197873
     10          6           0       14.161968    2.238945    1.252257
     11          6           0       15.058611    4.597549    0.799789
     12          6           0       11.408136    4.447934    0.668977
     13          6           0       11.386828    5.920151    1.047218
     14          1           0       10.278628    6.726964    0.513481
     15          7           0       14.751643   -0.829784    1.688470
     16          6           0       15.382627    0.274619    2.324818
     17          6           0       16.229687   -0.286557    3.394016
     18          6           0       16.311451   -1.652900    3.138432
     19          6           0       15.403187   -1.968801    2.021105
     20          6           0       16.956271    0.611921    4.372949
     21          6           0       17.099234   -2.749476    3.887327
     22          8           0       17.284820   -3.899560    3.447344
     23          6           0       17.630178   -2.397458    5.216810
     24          7           0       13.640582   -2.767291   -0.277214
     25          6           0       14.363545   -3.647485    0.384369
     26          6           0       14.302195   -5.076994   -0.220451
     27          6           0       13.148071   -4.914900   -1.212129
     28          6           0       12.907620   -3.422833   -1.186840
     29          6           0       15.651243   -5.467685   -0.913127
     30          6           0       11.888978   -5.703533   -0.930842
     31          6           0       11.217732   -6.385223   -2.136387
     32          7           0       12.123855   -0.440088   -1.394558
     33          6           0       11.664835   -1.408058   -2.260930
     34          6           0       10.707446   -0.837197   -3.255809
     35          6           0       10.805684    0.499641   -2.926430
     36          6           0       11.685956    0.716031   -1.859382
     37          6           0        9.803970   -1.559501   -4.202913
     38          6           0       10.297542    1.805839   -3.319002
     39          8           0        9.468528    2.055859   -4.186718
     40          6           0       10.909084    2.880906   -2.391588
     41          6           0       11.445006    3.905688   -3.250737
     42          8           0       12.507806    3.853107   -3.915428
     43          8           0       10.719681    5.051545   -3.126705
     44          6           0       11.249697    6.273560   -3.691030
     45          1           0       15.449393    2.315598    2.820054
     46          1           0       15.786237   -4.073313    1.845184
     47          1           0       11.895982   -3.469246   -2.983663
     48          1           0       13.032899    4.425507   -0.719765
     49          1           0       13.484069    4.101348    2.177720
     50          1           0       15.532253    5.320391    1.464816
     51          1           0       14.728080    5.160448   -0.072990
     52          1           0       15.882891    4.029792    0.367312
     53          1           0       11.116978    3.981218    1.610141
     54          1           0       10.535598    4.134235    0.096609
     55          1           0       12.294052    6.417692    0.707725
     56          1           0       11.133231    5.937373    2.106849
     57          1           0       18.004138    0.353960    4.524934
     58          1           0       16.492217    0.662028    5.357752
     59          1           0       17.044806    1.653018    4.061523
     60          1           0       16.819615   -1.973045    5.809402
     61          1           0       18.369003   -1.634367    4.974492
     62          1           0       17.909007   -3.336684    5.693102
     63          1           0       14.051763   -5.743170    0.605844
     64          1           0       13.377272   -5.134177   -2.254564
     65          1           0       15.538963   -5.547222   -1.994003
     66          1           0       15.993787   -6.449747   -0.587017
     67          1           0       16.341824   -4.659456   -0.671888
     68          1           0       11.136987   -5.098719   -0.425076
     69          1           0       12.156865   -6.326283   -0.077923
     70          1           0       10.692050   -7.257246   -1.748588
     71          1           0       11.907132   -6.573855   -2.959916
     72          1           0       10.542518   -5.597428   -2.469739
     73          1           0        8.771925   -1.643566   -3.861938
     74          1           0       10.323351   -2.487477   -4.440384
     75          1           0        9.869786   -1.090929   -5.185641
     76          1           0       10.045618    3.356026   -1.926068
     77          1           0       12.264008    6.191348   -4.082467
     78          1           0       11.146876    7.098386   -2.986441
     79          1           0       10.658109    6.622476   -4.537828
     80         12           0      -13.623363   -0.600000    0.105387
     81          6           0      -11.387204    2.015480    0.556196
     82          6           0      -16.189887    1.586597    0.028802
     83          6           0      -15.695215   -3.216973   -0.147123
     84          6           0      -10.911709   -2.801000    0.359376
     85          7           0      -13.690534    1.581567    0.252806
     86          6           0      -12.701875    2.439460    0.335408
     87          6           0      -13.334107    3.906697    0.304268
     88          6           0      -14.683186    3.570011    0.903506
     89          6           0      -14.921568    2.137784    0.327984
     90          6           0      -14.629962    3.687000    2.442074
     91          6           0      -13.202783    4.543189   -1.145866
     92          6           0      -13.325835    6.069499   -1.185930
     93          1           0      -13.787123    6.799757    0.063519
     94          7           0      -15.613014   -0.780193   -0.214563
     95          6           0      -16.510276    0.282286   -0.293282
     96          6           0      -17.819429   -0.268452   -0.755845
     97          6           0      -17.708844   -1.723880   -0.751196
     98          6           0      -16.311627   -1.917652   -0.280382
     99          6           0      -19.008068    0.606685   -1.076000
    100          6           0      -18.745764   -2.863300   -1.176388
    101          8           0      -18.473838   -4.068632   -1.187187
    102          6           0      -20.122748   -2.397577   -1.601390
    103          7           0      -13.370967   -2.650814    0.216360
    104          6           0      -14.363815   -3.528686    0.100890
    105          6           0      -13.897133   -5.001347    0.317195
    106          6           0      -12.375700   -4.816495    0.224405
    107          6           0      -12.172680   -3.334010    0.206907
    108          6           0      -14.387728   -5.650116    1.641622
    109          6           0      -11.575753   -5.650438   -0.872615
    110          6           0      -11.129224   -4.924340   -2.098842
    111          7           0      -11.595489   -0.493857    0.600933
    112          6           0      -10.619624   -1.432792    0.602200
    113          6           0       -9.338529   -0.907372    0.914717
    114          6           0       -9.583371    0.501904    0.904973
    115          6           0      -10.938427    0.636153    0.705663
    116          6           0       -7.992509   -1.523074    1.196423
    117          6           0       -9.027406    1.816768    1.025133
    118          8           0       -7.896920    2.203928    1.228585
    119          6           0      -10.117386    2.872481    0.654620
    120          6           0      -10.172746    3.906154    1.692684
    121          8           0      -10.461174    3.654592    2.852814
    122          8           0       -9.688795    5.170551    1.269752
    123          6           0       -9.612272    6.212121    2.306135
    124          1           0      -16.997276    2.318804    0.075961
    125          1           0      -16.401577   -4.047779   -0.188827
    126          1           0      -10.099358   -3.519775    0.482717
    127          1           0      -12.744682    4.574673    0.930904
    128          1           0      -15.508940    4.165758    0.515319
    129          1           0      -15.283757    4.539705    2.628308
    130          1           0      -13.626063    3.885194    2.819886
    131          1           0      -15.129391    2.797560    2.825584
    132          1           0      -13.976534    4.143183   -1.801766
    133          1           0      -12.185633    4.309811   -1.461442
    134          1           0      -14.003461    6.303979   -2.006294
    135          1           0      -12.348974    6.454926   -1.476946
    136          1           0      -18.696729    1.563022   -1.497775
    137          1           0      -19.702854    0.817885   -0.263771
    138          1           0      -19.580209    0.129166   -1.871305
    139          1           0      -20.436979   -1.755649   -0.778755
    140          1           0      -20.867082   -3.189746   -1.676862
    141          1           0      -20.063088   -1.907171   -2.573148
    142          1           0      -14.255795   -5.652782   -0.479585
    143          1           0      -11.997324   -5.049638    1.219012
    144          1           0      -13.521450   -6.185868    2.030496
    145          1           0      -15.247971   -6.314617    1.577431
    146          1           0      -14.726359   -4.848255    2.297763
    147          1           0      -12.149556   -6.547038   -1.107329
    148          1           0      -10.625031   -5.970310   -0.446713
    149          1           0      -10.040937   -4.868456   -2.064628
    150          1           0      -11.360683   -3.859237   -2.138907
    151          1           0      -11.383068   -5.419378   -3.036243
    152          1           0       -8.033410   -2.612156    1.236094
    153          1           0       -7.568442   -1.054213    2.084837
    154          1           0       -7.236498   -1.416735    0.418153
    155          1           0       -9.906460    3.354254   -0.299741
    156          1           0       -9.407428    7.216447    1.936185
    157          1           0       -8.797906    5.864716    2.942499
    158          1           0      -10.542226    6.127668    2.867180
 ---------------------------------------------------------------------

 SCF Done:  E(RwB97XD) =  -4070.62702256     A.U. after   19 cycles

 Excitation energies and oscillator strengths:

 Excited State   1:      Singlet-A      1.6893 eV  733.93 nm  f=0.6362  <S**2>=0.000
     310 -> 316        0.16093
     311 -> 313        0.60692
     312 -> 314        0.31390
     310 <- 316        0.10173
 This state for optimization and/or second-order correction.
 Total Energy, E(TD-HF/TD-DFT) =  -4070.56494139
 Copying the excited state density for this state as the 1-particle RhoCI density.

 Excited State   2:      Singlet-A      1.6945 eV  731.69 nm  f=0.1375  <S**2>=0.000
     309 -> 315       -0.18167
     311 -> 313       -0.31590
     312 -> 314        0.60244
     309 <- 315       -0.10873

 Excited State   3:      Singlet-A      2.1644 eV  572.82 nm  f=0.1434  <S**2>=0.000
     310 -> 313        0.65220
     311 -> 316       -0.26036

 Excited State   4:      Singlet-A      2.2626 eV  547.97 nm  f=0.0704  <S**2>=0.000
     309 -> 314        0.61589
     312 -> 315        0.33996

 Excited State   5:      Singlet-A      3.6854 eV  336.42 nm  f=0.0000  <S**2>=0.000
     312 -> 313        0.70701

 The electronic state is 1-A.
 Alpha  occ. eigenvalues --  -46.94761 -46.94099 -19.30321 -19.29124 -19.25560
 Alpha  occ. eigenvalues --  -19.24384 -19.24007 -19.23741 -19.23588 -19.22893
 Alpha  occ. eigenvalues --  -14.46595 -14.46397 -14.46014 -14.45629 -14.44736
 Alpha  occ. eigenvalues --  -14.44315 -14.44109 -14.43177 -10.42914 -10.42701
 Alpha  occ. eigenvalues --  -10.41279 -10.39152 -10.38394 -10.38057 -10.35395
 Alpha  occ. eigenvalues --  -10.35237 -10.35121 -10.34872 -10.34770 -10.34709
 Alpha  occ. eigenvalues --  -10.34631 -10.34559 -10.34530 -10.34508 -10.34480
 Alpha  occ. eigenvalues --  -10.34434 -10.34383 -10.34361 -10.34004 -10.33781
 Alpha  occ. eigenvalues --  -10.33218 -10.33120 -10.32735 -10.32594 -10.32439
 Alpha  occ. eigenvalues --  -10.32296 -10.32253 -10.32087 -10.32059 -10.32029
 Alpha  occ. eigenvalues --  -10.32014 -10.32001 -10.31964 -10.31930 -10.31639
 Alpha  occ. eigenvalues --  -10.31625 -10.31576 -10.31576 -10.31425 -10.31354
 Alpha  occ. eigenvalues --  -10.31326 -10.31258 -10.31171 -10.31070 -10.31039
 Alpha  occ. eigenvalues --  -10.30961 -10.30954 -10.30884 -10.30766 -10.30217
 Alpha  occ. eigenvalues --  -10.30130 -10.30006 -10.29894 -10.29837 -10.29773
 Alpha  occ. eigenvalues --  -10.29767 -10.29765 -10.29696 -10.29621 -10.29588
 Alpha  occ. eigenvalues --  -10.29567 -10.29516 -10.29485 -10.28564 -10.28275
 Alpha  occ. eigenvalues --  -10.28154  -3.20798  -3.20265  -1.94399  -1.93916
 Alpha  occ. eigenvalues --   -1.93875  -1.93779  -1.93361  -1.93289  -1.18226
 Alpha  occ. eigenvalues --   -1.16613  -1.12753  -1.11755  -1.11628  -1.11209
 Alpha  occ. eigenvalues --   -1.08918  -1.08075  -1.07693  -1.07567  -1.06724
 Alpha  occ. eigenvalues --   -1.06536  -1.06160  -1.05219  -1.05008  -1.04156
 Alpha  occ. eigenvalues --   -0.95077  -0.94071  -0.91878  -0.91101  -0.91078
 Alpha  occ. eigenvalues --   -0.90430  -0.90335  -0.90198  -0.89463  -0.89256
 Alpha  occ. eigenvalues --   -0.89026  -0.88933  -0.88497  -0.88153  -0.86546
 Alpha  occ. eigenvalues --   -0.86195  -0.85878  -0.85500  -0.84740  -0.84683
 Alpha  occ. eigenvalues --   -0.84504  -0.84455  -0.83117  -0.82870  -0.82782
 Alpha  occ. eigenvalues --   -0.82021  -0.80574  -0.80557  -0.79570  -0.79290
 Alpha  occ. eigenvalues --   -0.79131  -0.78554  -0.78405  -0.77745  -0.77104
 Alpha  occ. eigenvalues --   -0.76984  -0.74909  -0.74788  -0.73851  -0.73141
 Alpha  occ. eigenvalues --   -0.71383  -0.71145  -0.71111  -0.70717  -0.69955
 Alpha  occ. eigenvalues --   -0.69875  -0.68649  -0.68452  -0.68254  -0.67291
 Alpha  occ. eigenvalues --   -0.67026  -0.67007  -0.66565  -0.66487  -0.66167
 Alpha  occ. eigenvalues --   -0.65945  -0.64453  -0.63230  -0.62676  -0.62317
 Alpha  occ. eigenvalues --   -0.61819  -0.61530  -0.61411  -0.61104  -0.60685
 Alpha  occ. eigenvalues --   -0.60279  -0.59993  -0.59936  -0.59554  -0.59543
 Alpha  occ. eigenvalues --   -0.58396  -0.57822  -0.57638  -0.57615  -0.57443
 Alpha  occ. eigenvalues --   -0.57340  -0.56664  -0.56287  -0.55880  -0.55866
 Alpha  occ. eigenvalues --   -0.55753  -0.55554  -0.55349  -0.55319  -0.55051
 Alpha  occ. eigenvalues --   -0.54932  -0.54800  -0.54569  -0.54224  -0.54067
 Alpha  occ. eigenvalues --   -0.53831  -0.53724  -0.53716  -0.53555  -0.53116
 Alpha  occ. eigenvalues --   -0.53045  -0.52703  -0.52681  -0.52641  -0.52378
 Alpha  occ. eigenvalues --   -0.52209  -0.52144  -0.51800  -0.51780  -0.51502
 Alpha  occ. eigenvalues --   -0.51401  -0.51091  -0.50970  -0.50932  -0.50772
 Alpha  occ. eigenvalues --   -0.50522  -0.50466  -0.50396  -0.50231  -0.50195
 Alpha  occ. eigenvalues --   -0.49806  -0.49734  -0.49683  -0.49293  -0.49221
 Alpha  occ. eigenvalues --   -0.49079  -0.48899  -0.48777  -0.48393  -0.48334
 Alpha  occ. eigenvalues --   -0.48156  -0.48072  -0.47921  -0.47886  -0.47687
 Alpha  occ. eigenvalues --   -0.47436  -0.47429  -0.47008  -0.46936  -0.46836
 Alpha  occ. eigenvalues --   -0.46563  -0.46384  -0.46242  -0.45917  -0.45865
 Alpha  occ. eigenvalues --   -0.45798  -0.45747  -0.45555  -0.45421  -0.45264
 Alpha  occ. eigenvalues --   -0.45252  -0.45138  -0.44989  -0.44915  -0.44413
 Alpha  occ. eigenvalues --   -0.44381  -0.44273  -0.44006  -0.43899  -0.43724
 Alpha  occ. eigenvalues --   -0.43589  -0.43564  -0.43433  -0.43288  -0.43136
 Alpha  occ. eigenvalues --   -0.42939  -0.42895  -0.42843  -0.42693  -0.42406
 Alpha  occ. eigenvalues --   -0.42071  -0.41961  -0.41861  -0.41737  -0.41087
 Alpha  occ. eigenvalues --   -0.40635  -0.40180  -0.39958  -0.39763  -0.39432
 Alpha  occ. eigenvalues --   -0.39143  -0.38622  -0.38110  -0.37924  -0.37837
 Alpha  occ. eigenvalues --   -0.37601  -0.37579  -0.36423  -0.35872  -0.35802
 Alpha  occ. eigenvalues --   -0.35421  -0.35413  -0.35085  -0.34188  -0.33701
 Alpha  occ. eigenvalues --   -0.33373  -0.32918  -0.32702  -0.32677  -0.32447
 Alpha  occ. eigenvalues --   -0.32357  -0.32137  -0.31676  -0.25925  -0.25806
 Alpha  occ. eigenvalues --   -0.23198  -0.22646
 Alpha virt. eigenvalues --   -0.07157  -0.06431   0.00177   0.00679   0.02018
 Alpha virt. eigenvalues --    0.02866   0.04594   0.04698   0.06217   0.06626
 Alpha virt. eigenvalues --    0.06765   0.06996   0.08057   0.08210   0.08733

 Mulliken charges:
               1
     1  Mg   0.974713
     2  C    0.002952
     3  C   -0.074050
     4  C   -0.058788
     5  C   -0.108706
     6  N   -0.330680
     7  C   -0.063304
     8  C    0.015554
     9  C   -0.121590
    10  C    0.063777
    11  C    0.011261
    12  C    0.011622
    13  C   -0.120100
    14  H    0.035555
    15  N   -0.515839
    16  C    0.189973
    17  C   -0.128866
    18  C   -0.091738
    19  C    0.167087
    20  C    0.036583
    21  C    0.055178
    22  O   -0.254880
    23  C    0.008737
    24  N   -0.326248
    25  C   -0.014296
    26  C   -0.059923
    27  C   -0.104975
    28  C    0.037598
    29  C    0.034243
    30  C    0.005152
    31  C   -0.035318
    32  N   -0.421265
    33  C    0.133232
    34  C   -0.209137
    35  C   -0.009001
    36  C    0.152923
    37  C    0.109006
    38  C    0.073515
    39  O   -0.209006
    40  C   -0.032205
    41  C    0.264696
    42  O   -0.283784
    43  O   -0.351358
    44  C    0.134960
    45  H   -0.012428
    46  H    0.030514
    47  H    0.003561
    48  H    0.033895
    49  H    0.037579
    50  H    0.040942
    51  H    0.017632
    52  H    0.035808
    53  H    0.014450
    54  H    0.025967
    55  H    0.056415
    56  H    0.056808
    57  H    0.040244
    58  H    0.054030
    59  H    0.038937
    60  H    0.053202
    61  H    0.060347
    62  H    0.061818
    63  H    0.043746
    64  H    0.028049
    65  H    0.033480
    66  H    0.047913
    67  H    0.054481
    68  H    0.023251
    69  H    0.008833
    70  H    0.052162
    71  H    0.038422
    72  H    0.041255
    73  H    0.077737
    74  H    0.016992
    75  H    0.049390
    76  H    0.081152
    77  H    0.066682
    78  H    0.047374
    79  H    0.046102
    80  Mg   0.985728
    81  C   -0.033859
    82  C   -0.089515
    83  C   -0.081499
    84  C   -0.113001
    85  N   -0.312396
    86  C   -0.022005
    87  C   -0.084951
    88  C   -0.106074
    89  C    0.035597
    90  C    0.056893
    91  C    0.017415
    92  C   -0.109409
    93  H    0.037345
    94  N   -0.477398
    95  C    0.190132
    96  C   -0.158400
    97  C   -0.108925
    98  C    0.127331
    99  C    0.048961
   100  C    0.101759
   101  O   -0.227687
   102  C   -0.029691
   103  N   -0.378879
   104  C    0.081033
   105  C   -0.097549
   106  C   -0.032419
   107  C    0.052861
   108  C    0.021176
   109  C   -0.006324
   110  C   -0.048400
   111  N   -0.374613
   112  C    0.116233
   113  C   -0.174776
   114  C   -0.023246
   115  C    0.102013
   116  C    0.084899
   117  C    0.096574
   118  O   -0.204478
   119  C   -0.019880
   120  C    0.245757
   121  O   -0.251887
   122  O   -0.402655
   123  C    0.147388
   124  H    0.004647
   125  H    0.017850
   126  H   -0.007230
   127  H    0.021248
   128  H    0.004267
   129  H    0.035488
   130  H    0.070883
   131  H    0.036969
   132  H    0.035406
   133  H    0.041394
   134  H    0.045590
   135  H    0.053188
   136  H    0.040790
   137  H    0.065795
   138  H    0.031037
   139  H    0.059250
   140  H    0.056212
   141  H    0.081409
   142  H    0.037172
   143  H    0.030639
   144  H    0.038383
   145  H    0.045342
   146  H    0.041206
   147  H    0.033831
   148  H    0.027997
   149  H    0.018096
   150  H    0.047832
   151  H    0.040871
   152  H    0.015322
   153  H    0.065936
   154  H    0.046278
   155  H    0.068456
   156  H    0.063951
   157  H    0.057267
   158  H    0.048046
 Sum of Mulliken charges =  -0.00000

 Dipole moment (field-independent basis, Debye):
    X=             -4.6060    Y=              0.9383    Z=              2.1451  Tot=              5.1669
 Quadrupole moment (field-independent basis, Debye-Ang):
   XX=           -363.0872   YY=           -463.0820   ZZ=           -520.6031
   XY=            -14.2639   XZ=             82.3429   YZ=             18.5117

 Normal termination of Gaussian 16 at Mon Sep 20 04:47:07 2021.
