 Gaussian 16, Revision A.03,
 Gaussian 16:  ES64L-G16RevA.03 25-Dec-2016

 --------------------------------
 #p wB97XD/Def2SVP td=(nstates=5)
 --------------------------------

 --------------------------------
 TDDFT excited states in gaussian
 --------------------------------
 Symbolic Z-matrix:
 Charge =  0 Multiplicity = 1

                         Standard orientation:
 ---------------------------------------------------------------------
 Center     Atomic      Atomic             Coordinates (Angstroms)
 Number     Number       Type             X           Y           Z
 ---------------------------------------------------------------------
      1         12           0       28.746041    0.210052   -0.476744
      2          6           0       26.847748   -1.897264    1.660991
      3          6           0       28.516454    2.620949    2.101410
      4          6           0       30.165002    2.373977   -2.463781
      5          6           0       28.568326   -2.228660   -2.950140
      6          7           0       27.762628    0.352133    1.681093
      7          6           0       27.148077   -0.704920    2.306440
      8          6           0       26.789130   -0.416720    3.754344
      9          6           0       27.232535    1.107664    3.816718
     10          6           0       27.917545    1.385362    2.469752
     11          6           0       26.060011    2.002707    4.206976
     12          6           0       27.588922   -1.330473    4.708761
     13          6           0       26.887360   -1.846535    6.022539
     14          1           0       25.653630   -1.071548    6.542267
     15          7           0       29.346203    2.207163   -0.202638
     16          6           0       29.084100    3.027042    0.895364
     17          6           0       29.674385    4.348377    0.628998
     18          6           0       30.251459    4.250139   -0.679068
     19          6           0       29.952975    2.876640   -1.127874
     20          6           0       29.556256    5.460231    1.528061
     21          6           0       30.996967    5.319629   -1.471005
     22          8           0       31.356847    5.114777   -2.641164
     23          6           0       31.465080    6.558089   -0.813431
     24          7           0       29.198681    0.125206   -2.468539
     25          6           0       29.880100    1.121908   -3.039632
     26          6           0       30.151468    0.824080   -4.550107
     27          6           0       29.817093   -0.699359   -4.629229
     28          6           0       29.147062   -0.981628   -3.321143
     29          6           0       29.369806    1.756469   -5.544147
     30          6           0       31.214089   -1.423504   -4.725301
     31          6           0       31.927829   -1.941159   -3.429161
     32          7           0       27.996677   -1.707956   -0.629080
     33          6           0       27.993913   -2.578314   -1.734149
     34          6           0       27.240150   -3.800842   -1.360465
     35          6           0       26.749650   -3.528590   -0.088730
     36          6           0       27.218379   -2.312373    0.361054
     37          6           0       26.900961   -4.790461   -2.368447
     38          6           0       25.825986   -4.062861    0.908990
     39          8           0       25.161934   -5.091366    0.846444
     40          6           0       25.821237   -3.001446    2.106987
     41          6           0       24.453536   -2.488900    2.364705
     42          8           0       23.962828   -1.465574    1.896592
     43          8           0       23.799290   -3.358379    3.257819
     44          6           0       22.424301   -3.145396    3.649435
     45          1           0       28.707664    3.322131    2.916903
     46          1           0       30.658155    3.041457   -3.174049
     47          1           0       28.619161   -2.929110   -3.785996
     48          1           0       25.724020   -0.535442    3.954886
     49          1           0       27.898059    1.187728    4.675800
     50          1           0       26.233213    2.633396    5.078241
     51          1           0       25.109653    1.499503    4.385201
     52          1           0       25.937746    2.719458    3.393842
     53          1           0       28.519246   -0.851865    5.014355
     54          1           0       27.838694   -2.148389    4.032052
     55          1           0       27.571544   -1.779275    6.867733
     56          1           0       26.804330   -2.925492    5.892011
     57          1           0       30.569504    5.828119    1.690865
     58          1           0       28.909679    5.214420    2.369896
     59          1           0       28.929004    6.121873    0.929829
     60          1           0       30.662062    7.258034   -0.580509
     61          1           0       32.135567    7.092407   -1.486251
     62          1           0       31.864117    6.281707    0.162096
     63          1           0       31.211020    1.079509   -4.566243
     64          1           0       29.247355   -0.944373   -5.525945
     65          1           0       30.008378    2.580523   -5.862640
     66          1           0       28.445625    2.041663   -5.042539
     67          1           0       29.118885    1.131874   -6.401318
     68          1           0       31.861609   -0.865239   -5.401734
     69          1           0       30.951774   -2.398666   -5.136683
     70          1           0       32.964492   -1.641148   -3.579440
     71          1           0       31.901624   -3.027276   -3.332073
     72          1           0       31.600612   -1.496300   -2.490034
     73          1           0       26.484510   -4.274814   -3.232827
     74          1           0       26.117976   -5.414143   -1.935915
     75          1           0       27.725972   -5.483855   -2.529471
     76          1           0       26.150505   -3.591891    2.962569
     77          1           0       21.712593   -3.727277    3.064289
     78          1           0       22.215497   -2.087416    3.808832
     79          1           0       22.456630   -3.486675    4.684520
     80         12           0      -28.629920    0.385958    0.206636
     81          6           0      -26.154716   -2.031222   -0.145524
     82          6           0      -26.141285    2.657247    1.026159
     83          6           0      -30.783615    2.887827    0.040929
     84          6           0      -30.943640   -1.830367   -1.102231
     85          7           0      -26.407915    0.370900    0.259243
     86          6           0      -25.621481   -0.762060    0.216615
     87          6           0      -24.192395   -0.493201    0.585034
     88          6           0      -24.310182    0.916877    1.315171
     89          6           0      -25.673028    1.387383    0.824733
     90          6           0      -23.988634    1.096693    2.874456
     91          6           0      -23.147001   -0.573341   -0.621921
     92          6           0      -23.642135   -0.155158   -2.038398
     93          1           0      -22.647045    0.660730   -2.828158
     94          7           0      -28.472319    2.511375    0.377771
     95          6           0      -27.341467    3.253755    0.740078
     96          6           0      -27.612149    4.665243    0.731638
     97          6           0      -28.987949    4.773943    0.417884
     98          6           0      -29.496904    3.382584    0.230695
     99          6           0      -26.580969    5.651364    1.282698
    100          6           0      -29.702625    6.143013    0.354514
    101          8           0      -29.090265    7.208560    0.478565
    102          6           0      -31.163957    6.099398    0.194074
    103          7           0      -30.545124    0.473464   -0.566517
    104          6           0      -31.307899    1.584722   -0.249087
    105          6           0      -32.809347    1.392796   -0.556539
    106          6           0      -32.735684   -0.076383   -1.143286
    107          6           0      -31.342329   -0.496074   -0.983812
    108          6           0      -33.809924    1.533863    0.546813
    109          6           0      -33.138461   -0.150915   -2.702338
    110          6           0      -34.090529   -1.288968   -2.962884
    111          7           0      -28.660849   -1.629045   -0.323524
    112          6           0      -29.686709   -2.395918   -0.844118
    113          6           0      -29.202052   -3.768624   -1.115406
    114          6           0      -27.792717   -3.669207   -0.845785
    115          6           0      -27.548719   -2.369912   -0.385791
    116          6           0      -29.861577   -4.900161   -1.793271
    117          6           0      -26.472232   -4.332228   -0.895651
    118          8           0      -26.180142   -5.427718   -1.316332
    119          6           0      -25.382778   -3.322154   -0.411219
    120          6           0      -24.635488   -3.882496    0.715318
    121          8           0      -23.438797   -4.154578    0.814902
    122          8           0      -25.595004   -4.356711    1.647877
    123          6           0      -25.040886   -4.915510    2.899678
    124          1           0      -25.378929    3.264730    1.519375
    125          1           0      -31.617453    3.585532    0.141615
    126          1           0      -31.764073   -2.468412   -1.435478
    127          1           0      -23.832930   -1.252159    1.279832
    128          1           0      -23.555130    1.481998    0.768117
    129          1           0      -23.594442    0.216636    3.382292
    130          1           0      -24.862837    1.340353    3.478054
    131          1           0      -23.151933    1.786199    2.990076
    132          1           0      -22.682853   -1.558235   -0.661574
    133          1           0      -22.314671    0.071527   -0.340113
    134          1           0      -24.587901    0.383539   -1.972324
    135          1           0      -23.836456   -1.044089   -2.637884
    136          1           0      -26.612517    6.632539    0.807935
    137          1           0      -25.580339    5.289711    1.047405
    138          1           0      -26.811813    5.757349    2.342951
    139          1           0      -31.601853    5.722504    1.117877
    140          1           0      -31.421256    5.487185   -0.670842
    141          1           0      -31.459904    7.136931    0.039285
    142          1           0      -33.042596    2.004852   -1.428106
    143          1           0      -33.294803   -0.649681   -0.403842
    144          1           0      -34.748770    1.152489    0.144950
    145          1           0      -33.974483    2.601544    0.692126
    146          1           0      -33.458727    1.030201    1.448197
    147          1           0      -32.203602   -0.237935   -3.255870
    148          1           0      -33.535739    0.757646   -3.156639
    149          1           0      -33.557846   -2.042407   -3.542630
    150          1           0      -34.864737   -1.025771   -3.684366
    151          1           0      -34.362145   -1.765965   -2.021405
    152          1           0      -30.889903   -4.728107   -2.114605
    153          1           0      -29.910468   -5.700273   -1.055487
    154          1           0      -29.273915   -4.945433   -2.709950
    155          1           0      -24.741890   -3.176897   -1.280538
    156          1           0      -25.681943   -4.455950    3.652847
    157          1           0      -24.003426   -4.739261    3.183919
    158          1           0      -25.372173   -5.954112    2.899828
 ---------------------------------------------------------------------

 SCF Done:  E(RwB97XD) =  -4070.60937618     A.U. after   20 cycles

 Excitation energies and oscillator strengths:

 Excited State   1:      Singlet-A      1.6615 eV  746.22 nm  f=0.3667  <S**2>=0.000
     309 -> 315       -0.18778
     311 -> 313        0.68150
     309 <- 315       -0.11478
 This state for optimization and/or second-order correction.
 Total Energy, E(TD-HF/TD-DFT) =  -4070.54831738
 Copying the excited state density for this state as the 1-particle RhoCI density.

 Excited State   2:      Singlet-A      1.6997 eV  729.44 nm  f=0.3749  <S**2>=0.000
     310 -> 316       -0.19454
     312 -> 314        0.67892
     310 <- 316       -0.11677

 Excited State   3:      Singlet-A      2.1479 eV  577.24 nm  f=0.0863  <S**2>=0.000
     309 -> 313        0.62823
     311 -> 315        0.30709

 Excited State   4:      Singlet-A      2.2204 eV  558.39 nm  f=0.0706  <S**2>=0.000
     310 -> 314        0.62145
     312 -> 316        0.32313

 Excited State   5:      Singlet-A      3.4236 eV  362.15 nm  f=0.0606  <S**2>=0.000
     306 -> 313       -0.15724
     307 -> 313        0.62234
     311 -> 315       -0.23360

 The electronic state is 1-A.
 Alpha  occ. eigenvalues --  -46.95444 -46.94810 -19.29572 -19.29195 -19.25482
 Alpha  occ. eigenvalues --  -19.24782 -19.24312 -19.24055 -19.23869 -19.23796
 Alpha  occ. eigenvalues --  -14.46839 -14.46780 -14.46718 -14.45815 -14.44270
 Alpha  occ. eigenvalues --  -14.44257 -14.43767 -14.43497 -10.43593 -10.43298
 Alpha  occ. eigenvalues --  -10.39350 -10.39276 -10.39137 -10.39072 -10.35682
 Alpha  occ. eigenvalues --  -10.35205 -10.35034 -10.35016 -10.34870 -10.34733
 Alpha  occ. eigenvalues --  -10.34727 -10.34660 -10.34516 -10.34431 -10.34419
 Alpha  occ. eigenvalues --  -10.34186 -10.34134 -10.34079 -10.33391 -10.33210
 Alpha  occ. eigenvalues --  -10.33196 -10.33139 -10.32940 -10.32891 -10.32791
 Alpha  occ. eigenvalues --  -10.32610 -10.32564 -10.32372 -10.32368 -10.32311
 Alpha  occ. eigenvalues --  -10.32269 -10.32184 -10.32145 -10.32108 -10.31715
 Alpha  occ. eigenvalues --  -10.31678 -10.31562 -10.31426 -10.31419 -10.31401
 Alpha  occ. eigenvalues --  -10.31393 -10.31332 -10.31201 -10.31172 -10.31087
 Alpha  occ. eigenvalues --  -10.31045 -10.31007 -10.30861 -10.30822 -10.30743
 Alpha  occ. eigenvalues --  -10.30736 -10.30387 -10.30378 -10.30286 -10.30072
 Alpha  occ. eigenvalues --  -10.30060 -10.29899 -10.29894 -10.29590 -10.29561
 Alpha  occ. eigenvalues --  -10.29438 -10.29350 -10.29183 -10.29074 -10.28892
 Alpha  occ. eigenvalues --  -10.28659  -3.21414  -3.20800  -1.94986  -1.94552
 Alpha  occ. eigenvalues --   -1.94395  -1.94375  -1.93934  -1.93758  -1.16964
 Alpha  occ. eigenvalues --   -1.16781  -1.12602  -1.11844  -1.11588  -1.11434
 Alpha  occ. eigenvalues --   -1.09408  -1.09104  -1.07055  -1.06782  -1.06071
 Alpha  occ. eigenvalues --   -1.05718  -1.05213  -1.05057  -1.04386  -1.03342
 Alpha  occ. eigenvalues --   -0.94425  -0.93908  -0.91848  -0.91502  -0.91161
 Alpha  occ. eigenvalues --   -0.90510  -0.90223  -0.89878  -0.89554  -0.89280
 Alpha  occ. eigenvalues --   -0.88809  -0.88615  -0.88152  -0.88073  -0.86725
 Alpha  occ. eigenvalues --   -0.86357  -0.86039  -0.85181  -0.84656  -0.84561
 Alpha  occ. eigenvalues --   -0.84269  -0.83839  -0.82790  -0.82735  -0.82387
 Alpha  occ. eigenvalues --   -0.82100  -0.80938  -0.80231  -0.79451  -0.78989
 Alpha  occ. eigenvalues --   -0.78754  -0.78748  -0.78135  -0.77699  -0.77676
 Alpha  occ. eigenvalues --   -0.76712  -0.74625  -0.74118  -0.74072  -0.73261
 Alpha  occ. eigenvalues --   -0.71350  -0.71236  -0.71112  -0.70843  -0.70076
 Alpha  occ. eigenvalues --   -0.69810  -0.68819  -0.68721  -0.68338  -0.66910
 Alpha  occ. eigenvalues --   -0.66895  -0.66613  -0.66507  -0.66403  -0.66153
 Alpha  occ. eigenvalues --   -0.65983  -0.64522  -0.63496  -0.62343  -0.62246
 Alpha  occ. eigenvalues --   -0.61395  -0.61289  -0.61026  -0.60932  -0.60268
 Alpha  occ. eigenvalues --   -0.59993  -0.59817  -0.59504  -0.59190  -0.59120
 Alpha  occ. eigenvalues --   -0.58291  -0.58253  -0.57761  -0.57443  -0.57338
 Alpha  occ. eigenvalues --   -0.57176  -0.57039  -0.56541  -0.56152  -0.55918
 Alpha  occ. eigenvalues --   -0.55787  -0.55727  -0.55270  -0.55079  -0.54856
 Alpha  occ. eigenvalues --   -0.54684  -0.54646  -0.54553  -0.54165  -0.54103
 Alpha  occ. eigenvalues --   -0.53909  -0.53686  -0.53536  -0.53418  -0.53204
 Alpha  occ. eigenvalues --   -0.53038  -0.52744  -0.52742  -0.52472  -0.52363
 Alpha  occ. eigenvalues --   -0.52226  -0.51875  -0.51685  -0.51545  -0.51518
 Alpha  occ. eigenvalues --   -0.51489  -0.51248  -0.50878  -0.50809  -0.50751
 Alpha  occ. eigenvalues --   -0.50493  -0.50416  -0.50301  -0.50181  -0.50091
 Alpha  occ. eigenvalues --   -0.50002  -0.49675  -0.49525  -0.49277  -0.49197
 Alpha  occ. eigenvalues --   -0.48866  -0.48832  -0.48596  -0.48457  -0.48208
 Alpha  occ. eigenvalues --   -0.48136  -0.48002  -0.47912  -0.47652  -0.47313
 Alpha  occ. eigenvalues --   -0.47267  -0.47051  -0.46911  -0.46903  -0.46851
 Alpha  occ. eigenvalues --   -0.46625  -0.46567  -0.46474  -0.46186  -0.46129
 Alpha  occ. eigenvalues --   -0.45965  -0.45855  -0.45799  -0.45531  -0.45351
 Alpha  occ. eigenvalues --   -0.45351  -0.45263  -0.45159  -0.45038  -0.44882
 Alpha  occ. eigenvalues --   -0.44741  -0.44442  -0.44414  -0.44057  -0.43953
 Alpha  occ. eigenvalues --   -0.43831  -0.43668  -0.43663  -0.43574  -0.43325
 Alpha  occ. eigenvalues --   -0.43116  -0.42863  -0.42566  -0.42365  -0.42186
 Alpha  occ. eigenvalues --   -0.41872  -0.41734  -0.41257  -0.41006  -0.40482
 Alpha  occ. eigenvalues --   -0.40427  -0.39955  -0.39683  -0.39395  -0.39338
 Alpha  occ. eigenvalues --   -0.39079  -0.38899  -0.38596  -0.38541  -0.38092
 Alpha  occ. eigenvalues --   -0.37650  -0.37614  -0.37140  -0.36764  -0.36094
 Alpha  occ. eigenvalues --   -0.35984  -0.35564  -0.35498  -0.33493  -0.33166
 Alpha  occ. eigenvalues --   -0.33136  -0.33126  -0.32789  -0.32758  -0.32364
 Alpha  occ. eigenvalues --   -0.32164  -0.31826  -0.31447  -0.26012  -0.25787
 Alpha  occ. eigenvalues --   -0.23016  -0.22564
 Alpha virt. eigenvalues --   -0.07002  -0.06461  -0.00309   0.00230   0.02320
 Alpha virt. eigenvalues --    0.02728   0.04305   0.04567   0.04864   0.06217
 Alpha virt. eigenvalues --    0.06397   0.07107   0.07468   0.07693   0.08329

 Mulliken charges:
               1
     1  Mg   0.958701
     2  C    0.014277
     3  C   -0.116088
     4  C   -0.071759
     5  C   -0.091795
     6  N   -0.268480
     7  C   -0.050176
     8  C   -0.080505
     9  C   -0.081145
    10  C    0.061326
    11  C    0.017843
    12  C   -0.000850
    13  C   -0.101173
    14  H    0.041880
    15  N   -0.420507
    16  C    0.160624
    17  C   -0.187234
    18  C   -0.089581
    19  C    0.146099
    20  C    0.087507
    21  C    0.060899
    22  O   -0.251527
    23  C   -0.004610
    24  N   -0.411349
    25  C    0.041715
    26  C   -0.106394
    27  C   -0.056861
    28  C    0.053236
    29  C    0.041986
    30  C   -0.057124
    31  C   -0.040322
    32  N   -0.481741
    33  C    0.164270
    34  C   -0.192696
    35  C   -0.021516
    36  C    0.159928
    37  C    0.077990
    38  C    0.119401
    39  O   -0.196954
    40  C   -0.104506
    41  C    0.296028
    42  O   -0.245652
    43  O   -0.393133
    44  C    0.148811
    45  H    0.010746
    46  H    0.016620
    47  H   -0.005071
    48  H    0.045983
    49  H    0.028864
    50  H    0.025208
    51  H    0.045315
    52  H    0.027079
    53  H    0.030842
    54  H    0.034375
    55  H    0.044111
    56  H    0.052231
    57  H    0.062313
    58  H    0.037763
    59  H    0.061555
    60  H    0.050630
    61  H    0.063457
    62  H    0.049893
    63  H    0.039304
    64  H    0.036125
    65  H    0.056257
    66  H    0.049510
    67  H    0.029628
    68  H    0.044647
    69  H    0.027433
    70  H    0.033411
    71  H    0.043540
    72  H    0.047362
    73  H    0.057821
    74  H    0.044363
    75  H    0.045822
    76  H    0.074975
    77  H    0.071707
    78  H    0.047348
    79  H    0.039990
    80  Mg   0.956508
    81  C   -0.040754
    82  C   -0.109779
    83  C   -0.099738
    84  C   -0.098436
    85  N   -0.351128
    86  C    0.005579
    87  C   -0.079499
    88  C   -0.050031
    89  C    0.025587
    90  C    0.014893
    91  C   -0.013892
    92  C   -0.131312
    93  H    0.040672
    94  N   -0.438274
    95  C    0.180572
    96  C   -0.147262
    97  C   -0.107028
    98  C    0.207191
    99  C    0.079939
   100  C    0.051271
   101  O   -0.236328
   102  C   -0.010392
   103  N   -0.368956
   104  C    0.022506
   105  C   -0.081714
   106  C   -0.120585
   107  C    0.043020
   108  C    0.052826
   109  C   -0.004588
   110  C   -0.029180
   111  N   -0.431216
   112  C    0.160399
   113  C   -0.200529
   114  C   -0.051328
   115  C    0.127765
   116  C    0.085795
   117  C    0.113391
   118  O   -0.186385
   119  C   -0.041046
   120  C    0.283629
   121  O   -0.239882
   122  O   -0.406696
   123  C    0.140508
   124  H   -0.005325
   125  H   -0.020527
   126  H   -0.017683
   127  H    0.039158
   128  H    0.033403
   129  H    0.033389
   130  H    0.047803
   131  H    0.043639
   132  H    0.053290
   133  H    0.034493
   134  H    0.067872
   135  H    0.053331
   136  H    0.060248
   137  H    0.036783
   138  H    0.064841
   139  H    0.070848
   140  H    0.065198
   141  H    0.051336
   142  H    0.031704
   143  H    0.032431
   144  H    0.042835
   145  H    0.037336
   146  H    0.047643
   147  H    0.039941
   148  H    0.030704
   149  H    0.027374
   150  H    0.038720
   151  H    0.043345
   152  H    0.019163
   153  H    0.066786
   154  H    0.074756
   155  H    0.069353
   156  H    0.037384
   157  H    0.075542
   158  H    0.056794
 Sum of Mulliken charges =  -0.00000

 Dipole moment (field-independent basis, Debye):
    X=             -2.5621    Y=              4.1560    Z=              5.3422  Tot=              7.2371
 Quadrupole moment (field-independent basis, Debye-Ang):
   XX=            -84.6554   YY=           -565.1170   ZZ=           -469.7439
   XY=             60.9183   XZ=             12.3518   YZ=             10.3073

 Normal termination of Gaussian 16 at Sun Sep 19 05:44:43 2021.
