 Gaussian 16, Revision A.03,
 Gaussian 16:  ES64L-G16RevA.03 25-Dec-2016

 --------------------------------
 #p wB97XD/Def2SVP td=(nstates=5)
 --------------------------------

 --------------------------------
 TDDFT excited states in gaussian
 --------------------------------
 Symbolic Z-matrix:
 Charge =  0 Multiplicity = 1

                         Standard orientation:
 ---------------------------------------------------------------------
 Center     Atomic      Atomic             Coordinates (Angstroms)
 Number     Number       Type             X           Y           Z
 ---------------------------------------------------------------------
      1         12           0       23.768274    0.561574   -0.612373
      2          6           0       22.805399   -2.600234    0.981824
      3          6           0       20.394637    1.321270   -0.467055
      4          6           0       24.624785    3.611951   -0.974947
      5          6           0       27.153958   -0.537534   -0.121581
      6          7           0       21.797623   -0.554659    0.349569
      7          6           0       21.652549   -1.802232    0.915942
      8          6           0       20.170267   -1.980518    1.409729
      9          6           0       19.388942   -0.863513    0.696261
     10          6           0       20.580033    0.019545    0.162047
     11          6           0       18.437402   -1.255054   -0.509622
     12          6           0       20.022323   -1.989072    2.969834
     13          6           0       19.023724   -2.970001    3.545499
     14          1           0       17.646184   -2.387973    3.992925
     15          7           0       22.690054    2.206760   -0.831717
     16          6           0       21.328273    2.339049   -0.855744
     17          6           0       20.963662    3.762377   -1.094467
     18          6           0       22.210566    4.429120   -1.216717
     19          6           0       23.236727    3.420600   -0.964086
     20          6           0       19.550933    4.368682   -1.111976
     21          6           0       22.481725    5.932978   -1.316795
     22          8           0       21.506941    6.674141   -1.409433
     23          6           0       23.761845    6.522726   -1.342845
     24          7           0       25.666487    1.448986   -0.283434
     25          6           0       25.727620    2.734560   -0.783506
     26          6           0       27.245878    3.156766   -0.860605
     27          6           0       28.005580    1.909011   -0.283205
     28          6           0       26.880925    0.846880   -0.327196
     29          6           0       27.753146    3.594017   -2.262216
     30          6           0       28.703578    2.026174    1.131503
     31          6           0       30.074731    2.720136    1.206421
     32          7           0       24.860239   -1.191054    0.191263
     33          6           0       26.203134   -1.511371    0.188275
     34          6           0       26.430804   -2.879551    0.585840
     35          6           0       25.102748   -3.357517    0.895995
     36          6           0       24.137958   -2.306741    0.709756
     37          6           0       27.785419   -3.506938    0.705762
     38          6           0       24.408635   -4.457188    1.399223
     39          8           0       24.807948   -5.499026    1.901501
     40          6           0       22.934309   -4.004305    1.606519
     41          6           0       22.117242   -5.004219    0.822078
     42          8           0       21.132266   -5.586999    1.282274
     43          8           0       22.460272   -5.124879   -0.584615
     44          6           0       21.426075   -5.815128   -1.353716
     45          1           0       19.329784    1.558711   -0.501359
     46          1           0       25.065636    4.566819   -1.268755
     47          1           0       28.224126   -0.754110   -0.110802
     48          1           0       19.758926   -2.878402    0.946328
     49          1           0       18.855810   -0.227040    1.402492
     50          1           0       17.429995   -1.159581   -0.105059
     51          1           0       18.568218   -2.299401   -0.791560
     52          1           0       18.584400   -0.688390   -1.429012
     53          1           0       19.629332   -1.064994    3.394561
     54          1           0       20.973839   -2.240322    3.438933
     55          1           0       19.536184   -3.513695    4.339171
     56          1           0       18.792567   -3.696774    2.766087
     57          1           0       19.478565    5.112123   -1.906247
     58          1           0       19.427898    4.769156   -0.105771
     59          1           0       18.803713    3.612468   -1.348740
     60          1           0       24.250979    6.224207   -2.270613
     61          1           0       24.372274    6.332925   -0.459924
     62          1           0       23.500148    7.578116   -1.259518
     63          1           0       27.500848    3.995624   -0.213854
     64          1           0       28.746663    1.534314   -0.988833
     65          1           0       28.587056    2.927497   -2.482754
     66          1           0       28.105254    4.622695   -2.191715
     67          1           0       26.876043    3.470168   -2.898575
     68          1           0       28.812179    0.986881    1.443336
     69          1           0       28.098583    2.620259    1.816761
     70          1           0       30.262911    2.905221    0.148471
     71          1           0       30.854948    2.021632    1.512190
     72          1           0       30.133086    3.645136    1.779557
     73          1           0       28.332420   -2.875070    1.404267
     74          1           0       28.372500   -3.452919   -0.210861
     75          1           0       27.762402   -4.474690    1.206932
     76          1           0       22.711110   -4.134454    2.665280
     77          1           0       21.678572   -5.353085   -2.308859
     78          1           0       20.435773   -5.692798   -0.915092
     79          1           0       21.740764   -6.856638   -1.420665
     80         12           0      -23.866787    0.520235    0.333179
     81          6           0      -23.139756   -2.425471   -1.460269
     82          6           0      -22.275938    2.249932   -2.200982
     83          6           0      -24.393895    3.443366    2.016049
     84          6           0      -25.076990   -1.306418    2.876410
     85          7           0      -22.844637   -0.034007   -1.650978
     86          6           0      -22.778738   -1.281824   -2.259099
     87          6           0      -22.317887   -1.146297   -3.696463
     88          6           0      -21.717511    0.305318   -3.755738
     89          6           0      -22.323273    0.862434   -2.487113
     90          6           0      -20.144416    0.392822   -3.860465
     91          6           0      -23.460963   -1.278471   -4.713843
     92          6           0      -23.100255   -1.995902   -6.019045
     93          1           0      -22.140536   -1.286133   -7.014152
     94          7           0      -23.487893    2.561014   -0.068440
     95          6           0      -22.792120    2.993078   -1.145341
     96          6           0      -22.597861    4.401568   -1.025675
     97          6           0      -23.319518    4.870751    0.125895
     98          6           0      -23.712346    3.623361    0.757385
     99          6           0      -21.801337    5.187541   -2.029857
    100          6           0      -23.518305    6.271807    0.704468
    101          8           0      -24.327596    6.491378    1.632577
    102          6           0      -22.695409    7.471983    0.250062
    103          7           0      -24.699720    0.995606    2.120149
    104          6           0      -24.762808    2.269851    2.675956
    105          6           0      -25.324883    2.170819    4.056929
    106          6           0      -25.639205    0.667000    4.385548
    107          6           0      -25.166792    0.049630    3.059325
    108          6           0      -24.515798    2.937561    5.145965
    109          6           0      -27.119606    0.345297    4.683995
    110          6           0      -27.449890    0.309793    6.188690
    111          7           0      -24.046905   -1.412323    0.712294
    112          6           0      -24.629803   -2.086655    1.784313
    113          6           0      -24.665752   -3.582276    1.580332
    114          6           0      -24.048529   -3.694595    0.323926
    115          6           0      -23.746672   -2.388808   -0.180300
    116          6           0      -25.232921   -4.618711    2.533178
    117          6           0      -23.642116   -4.694045   -0.652444
    118          8           0      -23.703303   -5.923864   -0.623278
    119          6           0      -23.143625   -3.858669   -1.907058
    120          6           0      -21.754501   -4.432486   -2.248899
    121          8           0      -20.896376   -4.764737   -1.457437
    122          8           0      -21.698502   -4.670115   -3.620915
    123          6           0      -20.415491   -5.225170   -4.052472
    124          1           0      -21.838765    2.770923   -3.055102
    125          1           0      -24.618860    4.313769    2.635558
    126          1           0      -25.369759   -1.826330    3.790597
    127          1           0      -21.530398   -1.840720   -3.988242
    128          1           0      -22.041189    0.897011   -4.612070
    129          1           0      -19.628142   -0.558675   -3.991024
    130          1           0      -19.621700    0.820773   -3.005389
    131          1           0      -19.848275    0.962321   -4.741430
    132          1           0      -23.868404   -0.303749   -4.981201
    133          1           0      -24.274074   -1.878060   -4.304155
    134          1           0      -23.987169   -2.314003   -6.566863
    135          1           0      -22.636489   -2.962460   -5.823198
    136          1           0      -20.892968    4.589893   -2.107365
    137          1           0      -21.481743    6.191428   -1.750642
    138          1           0      -22.250640    5.252596   -3.020551
    139          1           0      -21.630597    7.238602    0.259136
    140          1           0      -22.971668    8.225303    0.987679
    141          1           0      -22.949368    7.758842   -0.770381
    142          1           0      -26.215923    2.799139    4.073864
    143          1           0      -25.023914    0.225590    5.170620
    144          1           0      -23.630275    3.355688    4.666808
    145          1           0      -24.193677    2.228296    5.907913
    146          1           0      -25.202191    3.714774    5.483642
    147          1           0      -27.372447   -0.556955    4.127558
    148          1           0      -27.768180    1.152329    4.342481
    149          1           0      -26.725796    0.910563    6.739371
    150          1           0      -27.376118   -0.659368    6.682381
    151          1           0      -28.426675    0.773976    6.327990
    152          1           0      -26.318747   -4.529578    2.495139
    153          1           0      -24.952810   -4.500304    3.579708
    154          1           0      -24.908396   -5.583514    2.143706
    155          1           0      -23.775883   -3.914626   -2.792984
    156          1           0      -19.664885   -4.483302   -4.326756
    157          1           0      -20.681472   -5.863521   -4.894891
    158          1           0      -19.843051   -5.842339   -3.360022
 ---------------------------------------------------------------------

 SCF Done:  E(RwB97XD) =  -4070.58710761     A.U. after   17 cycles

 Excitation energies and oscillator strengths:

 Excited State   1:      Singlet-A      1.6477 eV  752.49 nm  f=0.3642  <S**2>=0.000
     310 -> 316        0.19178
     312 -> 314        0.68135
     310 <- 316        0.11857
 This state for optimization and/or second-order correction.
 Total Energy, E(TD-HF/TD-DFT) =  -4070.52655729
 Copying the excited state density for this state as the 1-particle RhoCI density.

 Excited State   2:      Singlet-A      1.6685 eV  743.09 nm  f=0.3611  <S**2>=0.000
     309 -> 315       -0.20209
     311 -> 313        0.67705
     309 <- 315       -0.11956

 Excited State   3:      Singlet-A      2.1798 eV  568.78 nm  f=0.0976  <S**2>=0.000
     310 -> 314        0.63414
     312 -> 316       -0.30024

 Excited State   4:      Singlet-A      2.1894 eV  566.28 nm  f=0.0671  <S**2>=0.000
     309 -> 313        0.61431
     311 -> 315        0.33152

 Excited State   5:      Singlet-A      3.2140 eV  385.76 nm  f=0.0156  <S**2>=0.000
     308 -> 313        0.61824
     308 -> 317       -0.12008
     311 -> 315       -0.24297

 The electronic state is 1-A.
 Alpha  occ. eigenvalues --  -46.97103 -46.93988 -19.30977 -19.28942 -19.25333
 Alpha  occ. eigenvalues --  -19.25033 -19.24264 -19.24130 -19.23839 -19.22905
 Alpha  occ. eigenvalues --  -14.47352 -14.47280 -14.46575 -14.45875 -14.45421
 Alpha  occ. eigenvalues --  -14.44488 -14.44100 -14.43747 -10.43533 -10.43276
 Alpha  occ. eigenvalues --  -10.39857 -10.39091 -10.38902 -10.37492 -10.36418
 Alpha  occ. eigenvalues --  -10.35971 -10.35652 -10.35611 -10.35463 -10.35449
 Alpha  occ. eigenvalues --  -10.35220 -10.35011 -10.34899 -10.34830 -10.34792
 Alpha  occ. eigenvalues --  -10.34497 -10.34312 -10.34279 -10.33880 -10.33653
 Alpha  occ. eigenvalues --  -10.33372 -10.33240 -10.33190 -10.33078 -10.33071
 Alpha  occ. eigenvalues --  -10.32986 -10.32918 -10.32907 -10.32883 -10.32833
 Alpha  occ. eigenvalues --  -10.32695 -10.32685 -10.32584 -10.32452 -10.32433
 Alpha  occ. eigenvalues --  -10.32377 -10.32305 -10.32278 -10.32119 -10.31894
 Alpha  occ. eigenvalues --  -10.31685 -10.31598 -10.31404 -10.31301 -10.31222
 Alpha  occ. eigenvalues --  -10.31162 -10.31019 -10.30877 -10.30855 -10.30781
 Alpha  occ. eigenvalues --  -10.30735 -10.30627 -10.30519 -10.30476 -10.30314
 Alpha  occ. eigenvalues --  -10.30254 -10.30243 -10.30127 -10.30041 -10.30031
 Alpha  occ. eigenvalues --  -10.29971 -10.29716 -10.29657 -10.29523 -10.29367
 Alpha  occ. eigenvalues --  -10.29260  -3.23006  -3.20182  -1.96530  -1.96172
 Alpha  occ. eigenvalues --   -1.95925  -1.93776  -1.93287  -1.93199  -1.18456
 Alpha  occ. eigenvalues --   -1.16086  -1.12694  -1.11443  -1.11199  -1.11162
 Alpha  occ. eigenvalues --   -1.10373  -1.08555  -1.07114  -1.06721  -1.05742
 Alpha  occ. eigenvalues --   -1.05369  -1.05360  -1.05073  -1.03444  -1.03096
 Alpha  occ. eigenvalues --   -0.94881  -0.94537  -0.91292  -0.90914  -0.90903
 Alpha  occ. eigenvalues --   -0.90829  -0.90413  -0.90209  -0.89396  -0.88993
 Alpha  occ. eigenvalues --   -0.88987  -0.88892  -0.88081  -0.87862  -0.86933
 Alpha  occ. eigenvalues --   -0.86322  -0.85777  -0.85607  -0.85432  -0.84489
 Alpha  occ. eigenvalues --   -0.84213  -0.83666  -0.83121  -0.82914  -0.82042
 Alpha  occ. eigenvalues --   -0.81854  -0.80430  -0.80249  -0.79381  -0.79287
 Alpha  occ. eigenvalues --   -0.79194  -0.78967  -0.78085  -0.77774  -0.77238
 Alpha  occ. eigenvalues --   -0.77000  -0.74835  -0.74671  -0.73928  -0.73630
 Alpha  occ. eigenvalues --   -0.71348  -0.71109  -0.70733  -0.70560  -0.70158
 Alpha  occ. eigenvalues --   -0.69720  -0.69324  -0.69010  -0.67719  -0.67520
 Alpha  occ. eigenvalues --   -0.67442  -0.67337  -0.67009  -0.66485  -0.66159
 Alpha  occ. eigenvalues --   -0.66040  -0.64551  -0.63894  -0.62424  -0.62360
 Alpha  occ. eigenvalues --   -0.62148  -0.61820  -0.61272  -0.60937  -0.60917
 Alpha  occ. eigenvalues --   -0.60473  -0.59700  -0.59494  -0.59196  -0.59008
 Alpha  occ. eigenvalues --   -0.58676  -0.58033  -0.57600  -0.57457  -0.57081
 Alpha  occ. eigenvalues --   -0.56758  -0.56534  -0.56307  -0.55845  -0.55752
 Alpha  occ. eigenvalues --   -0.55691  -0.55485  -0.55425  -0.55236  -0.55084
 Alpha  occ. eigenvalues --   -0.54860  -0.54819  -0.54508  -0.54449  -0.54115
 Alpha  occ. eigenvalues --   -0.53915  -0.53776  -0.53695  -0.53688  -0.53430
 Alpha  occ. eigenvalues --   -0.53163  -0.52979  -0.52532  -0.52390  -0.52194
 Alpha  occ. eigenvalues --   -0.51996  -0.51824  -0.51807  -0.51723  -0.51520
 Alpha  occ. eigenvalues --   -0.51265  -0.51111  -0.51010  -0.50909  -0.50846
 Alpha  occ. eigenvalues --   -0.50574  -0.50400  -0.50344  -0.50188  -0.50096
 Alpha  occ. eigenvalues --   -0.50004  -0.49907  -0.49673  -0.49579  -0.49324
 Alpha  occ. eigenvalues --   -0.49250  -0.48772  -0.48667  -0.48591  -0.48478
 Alpha  occ. eigenvalues --   -0.48451  -0.48211  -0.48053  -0.47862  -0.47831
 Alpha  occ. eigenvalues --   -0.47450  -0.47325  -0.46915  -0.46835  -0.46617
 Alpha  occ. eigenvalues --   -0.46585  -0.46459  -0.46449  -0.46327  -0.46293
 Alpha  occ. eigenvalues --   -0.46259  -0.46034  -0.45733  -0.45573  -0.45517
 Alpha  occ. eigenvalues --   -0.45369  -0.45164  -0.45137  -0.44957  -0.44633
 Alpha  occ. eigenvalues --   -0.44568  -0.44394  -0.44299  -0.44270  -0.44053
 Alpha  occ. eigenvalues --   -0.43916  -0.43855  -0.43730  -0.43522  -0.43434
 Alpha  occ. eigenvalues --   -0.43266  -0.43111  -0.42973  -0.42397  -0.42179
 Alpha  occ. eigenvalues --   -0.42160  -0.42129  -0.41840  -0.41598  -0.41225
 Alpha  occ. eigenvalues --   -0.40787  -0.40599  -0.40238  -0.39859  -0.39821
 Alpha  occ. eigenvalues --   -0.39625  -0.39293  -0.39172  -0.38848  -0.38716
 Alpha  occ. eigenvalues --   -0.38295  -0.37351  -0.37150  -0.36954  -0.36555
 Alpha  occ. eigenvalues --   -0.35947  -0.35276  -0.35095  -0.33850  -0.33537
 Alpha  occ. eigenvalues --   -0.33503  -0.33216  -0.33154  -0.32937  -0.32681
 Alpha  occ. eigenvalues --   -0.32205  -0.32127  -0.30876  -0.26411  -0.25872
 Alpha  occ. eigenvalues --   -0.23278  -0.22887
 Alpha virt. eigenvalues --   -0.07146  -0.06916  -0.00813   0.00138   0.01868
 Alpha virt. eigenvalues --    0.02045   0.03631   0.03850   0.04308   0.06780
 Alpha virt. eigenvalues --    0.06806   0.06973   0.07114   0.07422   0.08142

 Mulliken charges:
               1
     1  Mg   0.966099
     2  C   -0.023735
     3  C   -0.063245
     4  C   -0.091981
     5  C   -0.100964
     6  N   -0.282596
     7  C   -0.034218
     8  C    0.018335
     9  C   -0.119718
    10  C   -0.008030
    11  C    0.015368
    12  C    0.017575
    13  C   -0.125810
    14  H    0.022214
    15  N   -0.499314
    16  C    0.163149
    17  C   -0.190095
    18  C   -0.055597
    19  C    0.215010
    20  C    0.096844
    21  C    0.017695
    22  O   -0.245752
    23  C    0.020162
    24  N   -0.384780
    25  C    0.048459
    26  C   -0.125739
    27  C   -0.090072
    28  C    0.045089
    29  C    0.037746
    30  C   -0.003812
    31  C   -0.042744
    32  N   -0.423374
    33  C    0.155233
    34  C   -0.159482
    35  C   -0.021104
    36  C    0.159117
    37  C    0.093589
    38  C    0.074396
    39  O   -0.216324
    40  C   -0.098782
    41  C    0.286757
    42  O   -0.256819
    43  O   -0.417815
    44  C    0.139064
    45  H   -0.001318
    46  H   -0.023791
    47  H   -0.001912
    48  H    0.034664
    49  H    0.044273
    50  H    0.048564
    51  H    0.036652
    52  H    0.049356
    53  H    0.048452
    54  H    0.043936
    55  H    0.057375
    56  H    0.052612
    57  H    0.068245
    58  H    0.069359
    59  H    0.030898
    60  H    0.075431
    61  H    0.064010
    62  H    0.054809
    63  H    0.035888
    64  H    0.019939
    65  H    0.037848
    66  H    0.042225
    67  H    0.042231
    68  H    0.028955
    69  H    0.036391
    70  H    0.015402
    71  H    0.040196
    72  H    0.050252
    73  H    0.034127
    74  H    0.047822
    75  H    0.062846
    76  H    0.072106
    77  H    0.050734
    78  H    0.068829
    79  H    0.052595
    80  Mg   1.001776
    81  C   -0.064750
    82  C   -0.110665
    83  C   -0.083522
    84  C   -0.100697
    85  N   -0.307657
    86  C    0.022544
    87  C   -0.031942
    88  C   -0.097649
    89  C    0.018905
    90  C    0.007951
    91  C    0.023200
    92  C   -0.123372
    93  H    0.016981
    94  N   -0.428133
    95  C    0.224118
    96  C   -0.180579
    97  C   -0.042747
    98  C    0.127569
    99  C    0.061926
   100  C    0.049218
   101  O   -0.257573
   102  C   -0.023817
   103  N   -0.456812
   104  C    0.108966
   105  C   -0.100392
   106  C   -0.055355
   107  C    0.059258
   108  C    0.015923
   109  C    0.000254
   110  C   -0.055611
   111  N   -0.483465
   112  C    0.140287
   113  C   -0.167230
   114  C   -0.071734
   115  C    0.182617
   116  C    0.080907
   117  C    0.161395
   118  O   -0.208542
   119  C   -0.105852
   120  C    0.266273
   121  O   -0.223762
   122  O   -0.369661
   123  C    0.126373
   124  H   -0.009070
   125  H    0.016362
   126  H   -0.010446
   127  H    0.030655
   128  H    0.039908
   129  H    0.034302
   130  H    0.041864
   131  H    0.034260
   132  H    0.040674
   133  H    0.036913
   134  H    0.048532
   135  H    0.050346
   136  H    0.046117
   137  H    0.026854
   138  H    0.058689
   139  H    0.061379
   140  H    0.063755
   141  H    0.063652
   142  H    0.042762
   143  H    0.042947
   144  H    0.043677
   145  H    0.034126
   146  H    0.043580
   147  H    0.037025
   148  H    0.028019
   149  H    0.024575
   150  H    0.041188
   151  H    0.040906
   152  H    0.050545
   153  H    0.047773
   154  H    0.066181
   155  H    0.072891
   156  H    0.043201
   157  H    0.055689
   158  H    0.065250
 Sum of Mulliken charges =  -0.00000

 Dipole moment (field-independent basis, Debye):
    X=              2.4832    Y=              7.8158    Z=             -5.4069  Tot=              9.8229
 Quadrupole moment (field-independent basis, Debye-Ang):
   XX=           -435.0808   YY=           -589.3765   ZZ=           -479.2709
   XY=             54.7763   XZ=            -39.7876   YZ=             12.3458

 Normal termination of Gaussian 16 at Mon Sep 20 07:18:05 2021.
