 Gaussian 16, Revision A.03,
 Gaussian 16:  ES64L-G16RevA.03 25-Dec-2016

 --------------------------------
 #p wB97XD/Def2SVP td=(nstates=5)
 --------------------------------

 --------------------------------
 TDDFT excited states in gaussian
 --------------------------------
 Symbolic Z-matrix:
 Charge =  0 Multiplicity = 1

                         Standard orientation:
 ---------------------------------------------------------------------
 Center     Atomic      Atomic             Coordinates (Angstroms)
 Number     Number       Type             X           Y           Z
 ---------------------------------------------------------------------
      1         12           0      -21.210051    0.133338   -0.143619
      2          6           0      -17.667345    0.259653   -0.141794
      3          6           0      -21.000561   -2.327568   -2.473357
      4          6           0      -24.486506   -0.531520    0.474598
      5          6           0      -21.184261    2.265127    2.589062
      6          7           0      -19.430894   -0.955942   -1.012317
      7          6           0      -18.084814   -0.705085   -0.977374
      8          6           0      -17.332668   -1.568263   -1.920852
      9          6           0      -18.477994   -2.138388   -2.883072
     10          6           0      -19.700672   -1.815196   -2.094137
     11          6           0      -18.436342   -1.492480   -4.258591
     12          6           0      -16.544855   -2.585183   -1.080110
     13          6           0      -14.979834   -2.683466   -1.322937
     14          1           0      -14.298351   -4.039941   -1.675444
     15          7           0      -22.611756   -1.183256   -0.886825
     16          6           0      -22.324379   -2.072982   -1.931248
     17          6           0      -23.561296   -2.653626   -2.360009
     18          6           0      -24.616848   -2.185706   -1.506496
     19          6           0      -23.929721   -1.198464   -0.631423
     20          6           0      -23.608452   -3.592967   -3.558262
     21          6           0      -26.082306   -2.559378   -1.514121
     22          8           0      -26.406488   -3.306068   -2.482541
     23          6           0      -27.173955   -2.238153   -0.454437
     24          7           0      -22.678815    0.779819    1.333817
     25          6           0      -23.970114    0.382076    1.349900
     26          6           0      -24.783584    0.994069    2.520988
     27          6           0      -23.733959    1.985091    3.132411
     28          6           0      -22.409481    1.607988    2.316050
     29          6           0      -26.033200    1.664739    1.979136
     30          6           0      -23.505741    1.850182    4.607025
     31          6           0      -23.992941    3.026769    5.408401
     32          7           0      -19.843808    1.209677    0.898861
     33          6           0      -19.927882    2.102408    1.974839
     34          6           0      -18.742747    2.761571    2.191707
     35          6           0      -17.822924    2.097538    1.354684
     36          6           0      -18.525118    1.119038    0.654764
     37          6           0      -18.616322    4.001668    3.051082
     38          6           0      -16.412235    2.119053    0.884544
     39          8           0      -15.524270    2.850912    1.194999
     40          6           0      -16.326558    0.843418   -0.036158
     41          6           0      -15.478242    1.218807   -1.231600
     42          8           0      -14.307489    0.874988   -1.394608
     43          8           0      -16.238537    1.974981   -2.156481
     44          6           0      -15.500373    2.255739   -3.387547
     45          1           0      -20.965243   -2.952097   -3.368721
     46          1           0      -25.560425   -0.639359    0.644057
     47          1           0      -21.069879    2.754507    3.557877
     48          1           0      -16.626340   -0.959019   -2.484929
     49          1           0      -18.313908   -3.208421   -3.007542
     50          1           0      -18.178686   -0.434667   -4.229224
     51          1           0      -19.443013   -1.515992   -4.677251
     52          1           0      -17.802650   -2.018560   -4.972540
     53          1           0      -16.986644   -3.563665   -1.267955
     54          1           0      -16.708222   -2.490218   -0.006612
     55          1           0      -14.620345   -2.363633   -0.344547
     56          1           0      -14.637505   -1.871143   -1.962981
     57          1           0      -22.863334   -4.383236   -3.466617
     58          1           0      -23.349941   -2.986601   -4.426276
     59          1           0      -24.521820   -4.169481   -3.711162
     60          1           0      -27.317862   -1.163972   -0.566282
     61          1           0      -26.780849   -2.481649    0.532686
     62          1           0      -28.088368   -2.811881   -0.607720
     63          1           0      -25.120486    0.264853    3.257333
     64          1           0      -23.957169    3.003515    2.815503
     65          1           0      -26.541508    0.945537    1.336673
     66          1           0      -25.725402    2.531977    1.394082
     67          1           0      -26.737467    2.123775    2.671930
     68          1           0      -22.454061    1.766219    4.880935
     69          1           0      -23.933456    0.972621    5.091443
     70          1           0      -24.664628    2.650562    6.179041
     71          1           0      -24.604386    3.713053    4.822525
     72          1           0      -23.196939    3.642360    5.828718
     73          1           0      -17.674474    4.470198    2.763784
     74          1           0      -18.596833    3.767637    4.115217
     75          1           0      -19.493035    4.599403    2.802701
     76          1           0      -15.667492    0.195586    0.542966
     77          1           0      -16.187862    2.391519   -4.222535
     78          1           0      -14.923223    1.390673   -3.711042
     79          1           0      -14.818393    3.101317   -3.293963
     80         12           0       20.590341   -0.806100    0.266725
     81          6           0       21.446519    2.342637   -1.069907
     82          6           0       17.488635    0.455984    1.040015
     83          6           0       19.723538   -3.750527    1.630368
     84          6           0       23.916545   -1.855776   -0.012082
     85          7           0       19.638096    1.119730   -0.140324
     86          6           0       20.068228    2.261092   -0.670482
     87          6           0       19.043949    3.411948   -0.753862
     88          6           0       17.942199    2.759549    0.213990
     89          6           0       18.413945    1.342115    0.428443
     90          6           0       17.767455    3.496943    1.519382
     91          6           0       18.476844    3.697555   -2.252657
     92          6           0       18.007530    5.141622   -2.452318
     93          1           0       18.783092    5.914487   -3.550066
     94          7           0       18.772345   -1.636359    1.078814
     95          6           0       17.601855   -0.885562    1.350564
     96          6           0       16.567695   -1.837031    1.689603
     97          6           0       17.179693   -3.077265    1.847318
     98          6           0       18.623141   -2.888786    1.499860
     99          6           0       15.144002   -1.448961    2.041657
    100          6           0       16.619579   -4.433593    2.209821
    101          8           0       17.335850   -5.391861    2.207587
    102          6           0       15.167304   -4.641384    2.503519
    103          7           0       21.678864   -2.479987    0.928770
    104          6           0       21.085675   -3.615382    1.398586
    105          6           0       22.219110   -4.666523    1.557277
    106          6           0       23.299083   -4.275521    0.564452
    107          6           0       23.004904   -2.759721    0.471800
    108          6           0       22.784375   -4.590359    2.974852
    109          6           0       23.240794   -4.994614   -0.732281
    110          6           0       21.914639   -5.125845   -1.439512
    111          7           0       22.353038    0.006259   -0.422989
    112          6           0       23.635324   -0.506881   -0.476928
    113          6           0       24.522870    0.498486   -1.081588
    114          6           0       23.691079    1.601216   -1.342715
    115          6           0       22.428454    1.262083   -0.939297
    116          6           0       25.968519    0.367680   -1.298229
    117          6           0       23.601271    2.882658   -1.989815
    118          8           0       24.473149    3.561620   -2.607720
    119          6           0       22.086755    3.382743   -1.844190
    120          6           0       22.137680    4.668223   -1.059797
    121          8           0       22.766176    4.788443   -0.050222
    122          8           0       21.335264    5.726858   -1.565116
    123          6           0       21.131017    6.872180   -0.626850
    124          1           0       16.517114    0.852445    1.340444
    125          1           0       19.510085   -4.682918    2.157878
    126          1           0       24.924008   -2.175080   -0.287852
    127          1           0       19.503807    4.345294   -0.426671
    128          1           0       17.022513    2.808314   -0.370326
    129          1           0       16.900963    4.144533    1.386495
    130          1           0       18.675825    4.004775    1.844223
    131          1           0       17.415926    2.727508    2.206691
    132          1           0       17.625701    3.046976   -2.456038
    133          1           0       19.222995    3.432706   -3.002072
    134          1           0       18.126855    5.547359   -1.447497
    135          1           0       16.935469    5.203095   -2.638444
    136          1           0       15.028223   -0.450851    1.620898
    137          1           0       15.183965   -1.350585    3.126099
    138          1           0       14.408048   -2.127594    1.609983
    139          1           0       14.765017   -4.522389    1.497338
    140          1           0       14.722429   -3.887641    3.152616
    141          1           0       15.001149   -5.640991    2.906579
    142          1           0       21.911581   -5.704317    1.433539
    143          1           0       24.321882   -4.461093    0.890711
    144          1           0       23.731236   -4.080675    3.153402
    145          1           0       22.884325   -5.613042    3.338342
    146          1           0       22.033683   -4.117961    3.609438
    147          1           0       23.681183   -5.989743   -0.665669
    148          1           0       23.898464   -4.415086   -1.379870
    149          1           0       21.997755   -4.509311   -2.335003
    150          1           0       20.959328   -4.854529   -0.989236
    151          1           0       21.819892   -6.153729   -1.789268
    152          1           0       26.459866    0.392655   -0.325633
    153          1           0       26.207403    1.204730   -1.954166
    154          1           0       26.221171   -0.599130   -1.735670
    155          1           0       21.726188    3.458660   -2.870187
    156          1           0       22.016144    7.507950   -0.608178
    157          1           0       20.902413    6.557298    0.392351
    158          1           0       20.356440    7.585738   -0.906395
 ---------------------------------------------------------------------

 SCF Done:  E(RwB97XD) =  -4070.60366694     A.U. after   19 cycles

 Excitation energies and oscillator strengths:

 Excited State   1:      Singlet-A      1.6249 eV  763.04 nm  f=0.3669  <S**2>=0.000
     309 -> 315        0.17974
     311 -> 313        0.68472
     309 <- 315        0.11750
 This state for optimization and/or second-order correction.
 Total Energy, E(TD-HF/TD-DFT) =  -4070.54395363
 Copying the excited state density for this state as the 1-particle RhoCI density.

 Excited State   2:      Singlet-A      1.6530 eV  750.07 nm  f=0.3655  <S**2>=0.000
     310 -> 316       -0.17777
     312 -> 314        0.68536
     310 <- 316       -0.11376

 Excited State   3:      Singlet-A      2.1348 eV  580.79 nm  f=0.1159  <S**2>=0.000
     310 -> 314        0.64478
     312 -> 316        0.27144

 Excited State   4:      Singlet-A      2.1635 eV  573.07 nm  f=0.1554  <S**2>=0.000
     309 -> 313        0.64646
     311 -> 315       -0.27022

 Excited State   5:      Singlet-A      3.2314 eV  383.68 nm  f=0.0021  <S**2>=0.000
     305 -> 313        0.25085
     305 -> 317       -0.10110
     307 -> 313        0.63460

 The electronic state is 1-A.
 Alpha  occ. eigenvalues --  -46.95428 -46.94925 -19.30932 -19.29683 -19.26040
 Alpha  occ. eigenvalues --  -19.24950 -19.24905 -19.24114 -19.23424 -19.23244
 Alpha  occ. eigenvalues --  -14.48002 -14.47055 -14.46885 -14.45895 -14.44763
 Alpha  occ. eigenvalues --  -14.44311 -14.43679 -14.43594 -10.44322 -10.43206
 Alpha  occ. eigenvalues --  -10.39737 -10.39560 -10.39148 -10.38723 -10.36127
 Alpha  occ. eigenvalues --  -10.35915 -10.35477 -10.35419 -10.35334 -10.35184
 Alpha  occ. eigenvalues --  -10.35067 -10.35032 -10.34951 -10.34802 -10.34776
 Alpha  occ. eigenvalues --  -10.34723 -10.34619 -10.34485 -10.33628 -10.33312
 Alpha  occ. eigenvalues --  -10.33128 -10.32931 -10.32922 -10.32773 -10.32747
 Alpha  occ. eigenvalues --  -10.32657 -10.32655 -10.32503 -10.32494 -10.32487
 Alpha  occ. eigenvalues --  -10.32437 -10.32339 -10.32289 -10.32287 -10.32280
 Alpha  occ. eigenvalues --  -10.32210 -10.32154 -10.32096 -10.31923 -10.31670
 Alpha  occ. eigenvalues --  -10.31631 -10.31459 -10.31314 -10.31151 -10.31143
 Alpha  occ. eigenvalues --  -10.31119 -10.31109 -10.31001 -10.30876 -10.30674
 Alpha  occ. eigenvalues --  -10.30586 -10.30527 -10.30461 -10.30433 -10.30267
 Alpha  occ. eigenvalues --  -10.30244 -10.29932 -10.29633 -10.29379 -10.29265
 Alpha  occ. eigenvalues --  -10.29198 -10.29063 -10.28930 -10.28890 -10.28358
 Alpha  occ. eigenvalues --  -10.28244  -3.21434  -3.20857  -1.95003  -1.94561
 Alpha  occ. eigenvalues --   -1.94470  -1.94408  -1.93958  -1.93845  -1.17828
 Alpha  occ. eigenvalues --   -1.17701  -1.14350  -1.14347  -1.10245  -1.09915
 Alpha  occ. eigenvalues --   -1.09538  -1.08815  -1.07323  -1.07288  -1.06362
 Alpha  occ. eigenvalues --   -1.05602  -1.05462  -1.04889  -1.04873  -1.03729
 Alpha  occ. eigenvalues --   -0.95357  -0.94886  -0.91962  -0.91841  -0.91325
 Alpha  occ. eigenvalues --   -0.91290  -0.91020  -0.90739  -0.89865  -0.89778
 Alpha  occ. eigenvalues --   -0.89034  -0.88819  -0.88078  -0.87975  -0.86840
 Alpha  occ. eigenvalues --   -0.86581  -0.86270  -0.85393  -0.84634  -0.84551
 Alpha  occ. eigenvalues --   -0.84395  -0.83930  -0.83014  -0.82730  -0.82523
 Alpha  occ. eigenvalues --   -0.81837  -0.80895  -0.79839  -0.79444  -0.79226
 Alpha  occ. eigenvalues --   -0.78974  -0.78896  -0.78493  -0.78179  -0.77530
 Alpha  occ. eigenvalues --   -0.76909  -0.75590  -0.74399  -0.74281  -0.73279
 Alpha  occ. eigenvalues --   -0.71578  -0.71444  -0.70985  -0.70816  -0.69789
 Alpha  occ. eigenvalues --   -0.69737  -0.69322  -0.69064  -0.68308  -0.67750
 Alpha  occ. eigenvalues --   -0.67743  -0.67449  -0.67015  -0.66931  -0.66174
 Alpha  occ. eigenvalues --   -0.65306  -0.65185  -0.63725  -0.62596  -0.62386
 Alpha  occ. eigenvalues --   -0.62137  -0.61878  -0.61674  -0.61121  -0.61036
 Alpha  occ. eigenvalues --   -0.60926  -0.60510  -0.60154  -0.59564  -0.58894
 Alpha  occ. eigenvalues --   -0.58390  -0.58297  -0.57860  -0.57726  -0.57699
 Alpha  occ. eigenvalues --   -0.56927  -0.56674  -0.56416  -0.56387  -0.55974
 Alpha  occ. eigenvalues --   -0.55910  -0.55905  -0.55644  -0.55589  -0.55567
 Alpha  occ. eigenvalues --   -0.55238  -0.54958  -0.54702  -0.54328  -0.54309
 Alpha  occ. eigenvalues --   -0.54074  -0.53780  -0.53740  -0.53592  -0.53417
 Alpha  occ. eigenvalues --   -0.53119  -0.52890  -0.52716  -0.52594  -0.52535
 Alpha  occ. eigenvalues --   -0.52314  -0.52166  -0.52067  -0.51900  -0.51884
 Alpha  occ. eigenvalues --   -0.51672  -0.51594  -0.51511  -0.51053  -0.50999
 Alpha  occ. eigenvalues --   -0.50919  -0.50636  -0.50334  -0.50240  -0.50125
 Alpha  occ. eigenvalues --   -0.50006  -0.49737  -0.49653  -0.49556  -0.49229
 Alpha  occ. eigenvalues --   -0.49060  -0.48912  -0.48639  -0.48620  -0.48493
 Alpha  occ. eigenvalues --   -0.48243  -0.48025  -0.47904  -0.47770  -0.47761
 Alpha  occ. eigenvalues --   -0.47509  -0.47430  -0.47323  -0.47302  -0.47198
 Alpha  occ. eigenvalues --   -0.47083  -0.46889  -0.46884  -0.46205  -0.46057
 Alpha  occ. eigenvalues --   -0.46056  -0.45954  -0.45727  -0.45618  -0.45410
 Alpha  occ. eigenvalues --   -0.45270  -0.45102  -0.45009  -0.44745  -0.44698
 Alpha  occ. eigenvalues --   -0.44496  -0.44442  -0.44435  -0.44389  -0.44370
 Alpha  occ. eigenvalues --   -0.44048  -0.43724  -0.43717  -0.43543  -0.43476
 Alpha  occ. eigenvalues --   -0.43464  -0.43109  -0.42926  -0.42866  -0.42256
 Alpha  occ. eigenvalues --   -0.42132  -0.42105  -0.41623  -0.41392  -0.41034
 Alpha  occ. eigenvalues --   -0.40750  -0.40280  -0.40222  -0.39820  -0.39654
 Alpha  occ. eigenvalues --   -0.39567  -0.39347  -0.39255  -0.39060  -0.38447
 Alpha  occ. eigenvalues --   -0.38351  -0.38196  -0.37455  -0.36750  -0.36596
 Alpha  occ. eigenvalues --   -0.36475  -0.35546  -0.35378  -0.34050  -0.33880
 Alpha  occ. eigenvalues --   -0.33344  -0.33190  -0.32615  -0.32308  -0.32233
 Alpha  occ. eigenvalues --   -0.32119  -0.32023  -0.31423  -0.26392  -0.26050
 Alpha  occ. eigenvalues --   -0.23530  -0.23180
 Alpha virt. eigenvalues --   -0.07761  -0.07269   0.00012   0.00213   0.02250
 Alpha virt. eigenvalues --    0.02508   0.04324   0.04367   0.04934   0.06202
 Alpha virt. eigenvalues --    0.06289   0.07174   0.07370   0.07743   0.08083

 Mulliken charges:
               1
     1  Mg   0.972340
     2  C    0.037542
     3  C   -0.077601
     4  C   -0.047423
     5  C   -0.092996
     6  N   -0.359397
     7  C   -0.051892
     8  C   -0.053851
     9  C   -0.081912
    10  C    0.068534
    11  C    0.030566
    12  C    0.005085
    13  C   -0.116236
    14  H    0.047877
    15  N   -0.473465
    16  C    0.150733
    17  C   -0.148688
    18  C   -0.063192
    19  C    0.180327
    20  C    0.070458
    21  C    0.021660
    22  O   -0.276206
    23  C    0.023512
    24  N   -0.303570
    25  C    0.005023
    26  C   -0.045758
    27  C   -0.064930
    28  C    0.055464
    29  C    0.009346
    30  C   -0.002871
    31  C   -0.061536
    32  N   -0.466638
    33  C    0.108637
    34  C   -0.190739
    35  C   -0.079823
    36  C    0.148002
    37  C    0.086704
    38  C    0.122336
    39  O   -0.159553
    40  C   -0.057492
    41  C    0.245587
    42  O   -0.241556
    43  O   -0.390666
    44  C    0.140101
    45  H    0.005738
    46  H   -0.060299
    47  H    0.006952
    48  H    0.035200
    49  H    0.038499
    50  H    0.038036
    51  H    0.024566
    52  H    0.047523
    53  H    0.031377
    54  H    0.047674
    55  H    0.050579
    56  H    0.054772
    57  H    0.034285
    58  H    0.046829
    59  H    0.065127
    60  H    0.062922
    61  H    0.064275
    62  H    0.063614
    63  H    0.043514
    64  H    0.043112
    65  H    0.033496
    66  H    0.024407
    67  H    0.040248
    68  H    0.030911
    69  H    0.026680
    70  H    0.031381
    71  H    0.020899
    72  H    0.039945
    73  H    0.062254
    74  H    0.052040
    75  H    0.046510
    76  H    0.069765
    77  H    0.047317
    78  H    0.043918
    79  H    0.064090
    80  Mg   0.953683
    81  C   -0.042841
    82  C   -0.110228
    83  C   -0.074550
    84  C   -0.071330
    85  N   -0.321057
    86  C   -0.004266
    87  C   -0.076165
    88  C   -0.141348
    89  C    0.116574
    90  C    0.056653
    91  C    0.008942
    92  C   -0.101835
    93  H    0.060714
    94  N   -0.444591
    95  C    0.147121
    96  C   -0.177181
    97  C   -0.058195
    98  C    0.148344
    99  C    0.068356
   100  C    0.023143
   101  O   -0.209966
   102  C   -0.009794
   103  N   -0.406204
   104  C    0.080333
   105  C   -0.093975
   106  C   -0.044065
   107  C    0.108016
   108  C    0.034253
   109  C    0.007522
   110  C   -0.069543
   111  N   -0.442570
   112  C    0.083838
   113  C   -0.209096
   114  C    0.007013
   115  C    0.127201
   116  C    0.079114
   117  C    0.099117
   118  O   -0.251554
   119  C   -0.045790
   120  C    0.263304
   121  O   -0.210419
   122  O   -0.401486
   123  C    0.135738
   124  H    0.006561
   125  H    0.021254
   126  H   -0.000422
   127  H    0.038081
   128  H    0.036003
   129  H    0.032167
   130  H    0.057737
   131  H    0.022868
   132  H    0.027461
   133  H    0.042882
   134  H    0.027507
   135  H    0.044668
   136  H    0.032569
   137  H    0.076113
   138  H    0.059669
   139  H    0.059891
   140  H    0.052728
   141  H    0.061976
   142  H    0.024991
   143  H    0.018215
   144  H    0.044972
   145  H    0.032924
   146  H    0.031289
   147  H    0.032099
   148  H    0.016166
   149  H    0.030682
   150  H    0.056753
   151  H    0.029925
   152  H    0.053905
   153  H    0.066178
   154  H    0.035036
   155  H    0.077674
   156  H    0.056880
   157  H    0.049874
   158  H    0.051795
 Sum of Mulliken charges =  -0.00000

 Dipole moment (field-independent basis, Debye):
    X=            -10.6877    Y=             -0.5463    Z=              2.1280  Tot=             10.9112
 Quadrupole moment (field-independent basis, Debye-Ang):
   XX=           -652.2235   YY=           -516.9979   ZZ=           -497.3980
   XY=           -116.1540   XZ=              0.8207   YZ=              8.1198

 Normal termination of Gaussian 16 at Sun Sep 19 17:45:04 2021.
