 Gaussian 16, Revision A.03,
 Gaussian 16:  ES64L-G16RevA.03 25-Dec-2016

 --------------------------------
 #p wB97XD/Def2SVP td=(nstates=5)
 --------------------------------

 --------------------------------
 TDDFT excited states in gaussian
 --------------------------------
 Symbolic Z-matrix:
 Charge =  0 Multiplicity = 1

                         Standard orientation:
 ---------------------------------------------------------------------
 Center     Atomic      Atomic             Coordinates (Angstroms)
 Number     Number       Type             X           Y           Z
 ---------------------------------------------------------------------
      1         12           0      -21.728826    0.216016   -0.764044
      2          6           0      -18.329629   -0.837656   -0.652788
      3          6           0      -22.716826   -3.062987   -0.832925
      4          6           0      -24.944693    1.216102    0.187314
      5          6           0      -20.662634    3.498170   -0.101348
      6          7           0      -20.518215   -1.760179   -0.479518
      7          6           0      -19.206324   -1.949751   -0.695743
      8          6           0      -18.968389   -3.390373   -1.109940
      9          6           0      -20.379960   -4.152204   -1.106235
     10          6           0      -21.283126   -2.829229   -0.925686
     11          6           0      -20.569395   -4.855661   -2.468968
     12          6           0      -17.955993   -4.057392   -0.192756
     13          6           0      -18.026102   -3.691052    1.308800
     14          1           0      -18.588261   -4.774573    2.269133
     15          7           0      -23.638792   -0.788749   -0.453680
     16          6           0      -23.766514   -2.158756   -0.527559
     17          6           0      -25.168815   -2.422280   -0.443406
     18          6           0      -25.877888   -1.224252   -0.048967
     19          6           0      -24.845710   -0.159809   -0.128631
     20          6           0      -25.739047   -3.820827   -0.494488
     21          6           0      -27.309837   -1.109786    0.476213
     22          8           0      -27.981732   -2.110800    0.634448
     23          6           0      -27.927269    0.135961    0.820128
     24          7           0      -22.662081    2.059133    0.041506
     25          6           0      -23.968545    2.222685    0.188489
     26          6           0      -24.353201    3.618169    0.652372
     27          6           0      -22.904873    4.222049    0.903934
     28          6           0      -22.013902    3.263767    0.199264
     29          6           0      -25.208601    4.448527   -0.424225
     30          6           0      -22.640916    4.408910    2.468741
     31          6           0      -22.532036    5.783608    3.065286
     32          7           0      -19.966211    1.178677   -0.687319
     33          6           0      -19.685256    2.551624   -0.533779
     34          6           0      -18.242241    2.808594   -0.697212
     35          6           0      -17.734965    1.511103   -0.764625
     36          6           0      -18.765289    0.515528   -0.634052
     37          6           0      -17.482640    4.168729   -0.873289
     38          6           0      -16.468059    0.781448   -0.878343
     39          8           0      -15.286355    1.144884   -0.998322
     40          6           0      -16.783907   -0.749934   -0.830198
     41          6           0      -16.056786   -1.116548    0.417326
     42          8           0      -16.256410   -0.639479    1.504961
     43          8           0      -15.064047   -1.955772    0.136446
     44          6           0      -14.243530   -2.530701    1.259006
     45          1           0      -23.033881   -4.057630   -1.152798
     46          1           0      -25.903307    1.678672    0.430538
     47          1           0      -20.437445    4.517186    0.221780
     48          1           0      -18.538094   -3.200857   -2.093345
     49          1           0      -20.475355   -4.852722   -0.276184
     50          1           0      -20.679010   -5.924391   -2.285937
     51          1           0      -19.726458   -4.752677   -3.152794
     52          1           0      -21.501957   -4.465961   -2.876205
     53          1           0      -16.947175   -3.817722   -0.528941
     54          1           0      -18.084908   -5.140072   -0.204255
     55          1           0      -18.703354   -2.889878    1.604365
     56          1           0      -16.998210   -3.443461    1.574071
     57          1           0      -24.955691   -4.576191   -0.561815
     58          1           0      -26.473627   -3.846975   -1.300084
     59          1           0      -26.355998   -3.949984    0.394086
     60          1           0      -27.473060    0.668501    1.655986
     61          1           0      -28.968274   -0.041188    1.089686
     62          1           0      -27.794176    0.726289   -0.087106
     63          1           0      -24.844309    3.643428    1.624810
     64          1           0      -23.034896    5.237488    0.529234
     65          1           0      -25.419341    3.815781   -1.286882
     66          1           0      -24.582016    5.273264   -0.764316
     67          1           0      -26.126195    4.908842   -0.054615
     68          1           0      -21.662805    4.020633    2.752949
     69          1           0      -23.396294    3.889548    3.056864
     70          1           0      -21.507201    6.102682    3.255206
     71          1           0      -23.055906    5.611258    4.006053
     72          1           0      -23.165553    6.537893    2.598290
     73          1           0      -17.431878    4.646918    0.104521
     74          1           0      -18.019543    4.738119   -1.632169
     75          1           0      -16.453985    3.951740   -1.160619
     76          1           0      -16.396625   -1.164341   -1.761718
     77          1           0      -13.427039   -1.875908    1.564304
     78          1           0      -13.809997   -3.491328    0.977933
     79          1           0      -14.956359   -2.688175    2.068417
     80         12           0       20.875875    0.704680   -0.442550
     81          6           0       21.512953   -2.757272    0.232305
     82          6           0       17.714158    0.243891    1.077414
     83          6           0       20.534452    4.041547   -0.347488
     84          6           0       24.209981    1.065990   -1.258989
     85          7           0       19.709664   -1.062075    0.546525
     86          6           0       20.247835   -2.309837    0.693629
     87          6           0       19.381538   -3.131018    1.635457
     88          6           0       18.083913   -2.219295    1.617694
     89          6           0       18.464626   -0.901712    1.058186
     90          6           0       16.831869   -2.768635    0.854898
     91          6           0       20.133606   -3.373195    2.983375
     92          6           0       20.130651   -4.814377    3.640463
     93          1           0       19.499655   -5.018002    5.029618
     94          7           0       19.345481    1.940771    0.059743
     95          6           0       18.107269    1.586605    0.657552
     96          6           0       17.273009    2.761227    0.831992
     97          6           0       18.119647    3.867971    0.416200
     98          6           0       19.384395    3.281798    0.013770
     99          6           0       15.947774    2.683941    1.467559
    100          6           0       17.641020    5.330246    0.420729
    101          8           0       16.492264    5.541649    0.908105
    102          6           0       18.440441    6.536710   -0.115610
    103          7           0       22.237329    2.422477   -0.496977
    104          6           0       21.830744    3.672129   -0.612672
    105          6           0       23.027298    4.543250   -0.820622
    106          6           0       24.166000    3.546972   -1.166901
    107          6           0       23.529274    2.222807   -0.876129
    108          6           0       22.961154    5.749380   -1.852204
    109          6           0       25.543648    3.763036   -0.351835
    110          6           0       26.812562    4.169996   -1.140309
    111          7           0       22.466551   -0.544662   -0.701829
    112          6           0       23.741115   -0.273779   -1.030002
    113          6           0       24.527350   -1.451518   -1.081446
    114          6           0       23.665788   -2.455652   -0.633691
    115          6           0       22.411294   -1.851670   -0.365901
    116          6           0       25.928325   -1.664628   -1.493883
    117          6           0       23.662629   -3.854013   -0.332617
    118          8           0       24.585364   -4.636415   -0.376812
    119          6           0       22.165469   -4.112666    0.329584
    120          6           0       21.437611   -5.113924   -0.459061
    121          8           0       21.391306   -5.161458   -1.694825
    122          8           0       20.809956   -5.946549    0.442773
    123          6           0       20.018089   -7.037573   -0.122839
    124          1           0       16.725371    0.165582    1.531953
    125          1           0       20.516720    5.127600   -0.238295
    126          1           0       25.197039    1.088645   -1.725922
    127          1           0       19.111103   -4.035218    1.089518
    128          1           0       17.983244   -2.086671    2.695542
    129          1           0       16.560373   -2.027616    0.101684
    130          1           0       15.951249   -2.905729    1.482055
    131          1           0       16.991443   -3.684434    0.284914
    132          1           0       19.583532   -2.677821    3.616998
    133          1           0       21.172066   -3.044318    3.015557
    134          1           0       21.179276   -5.110861    3.656210
    135          1           0       19.733336   -5.517102    2.908687
    136          1           0       16.093707    2.164976    2.415204
    137          1           0       15.289331    2.046492    0.877829
    138          1           0       15.370892    3.604594    1.559171
    139          1           0       19.258015    6.732437    0.578392
    140          1           0       17.673750    7.260399   -0.390346
    141          1           0       18.843475    6.156100   -1.054725
    142          1           0       23.217774    5.039175    0.130349
    143          1           0       24.193658    3.613281   -2.254605
    144          1           0       23.669982    6.478253   -1.458459
    145          1           0       21.935337    6.115665   -1.889506
    146          1           0       23.312732    5.357497   -2.806785
    147          1           0       25.689140    2.810826    0.158024
    148          1           0       25.332649    4.451557    0.466302
    149          1           0       27.676505    3.552741   -0.897572
    150          1           0       27.032814    5.216105   -0.925955
    151          1           0       26.675483    4.168782   -2.221816
    152          1           0       26.126257   -2.710489   -1.726468
    153          1           0       26.400945   -1.337851   -0.567446
    154          1           0       26.207402   -0.853183   -2.165905
    155          1           0       22.234720   -4.314857    1.397827
    156          1           0       20.588753   -7.615978   -0.849755
    157          1           0       19.111451   -6.636971   -0.578687
    158          1           0       19.738022   -7.717430    0.681844
 ---------------------------------------------------------------------

 SCF Done:  E(RwB97XD) =  -4070.55274421     A.U. after   20 cycles

 Excitation energies and oscillator strengths:

 Excited State   1:      Singlet-A      1.6284 eV  761.37 nm  f=0.3758  <S**2>=0.000
     309 -> 315       -0.20609
     311 -> 314        0.67598
     309 <- 315       -0.12476
 This state for optimization and/or second-order correction.
 Total Energy, E(TD-HF/TD-DFT) =  -4070.49290004
 Copying the excited state density for this state as the 1-particle RhoCI density.

 Excited State   2:      Singlet-A      1.6377 eV  757.07 nm  f=0.3664  <S**2>=0.000
     310 -> 316       -0.19028
     312 -> 313        0.68068
     310 <- 316       -0.12077

 Excited State   3:      Singlet-A      2.1415 eV  578.95 nm  f=0.0703  <S**2>=0.000
     309 -> 314        0.61694
     311 -> 315        0.33160

 Excited State   4:      Singlet-A      2.1989 eV  563.84 nm  f=0.1290  <S**2>=0.000
     310 -> 313        0.63865
     312 -> 316        0.29227

 Excited State   5:      Singlet-A      3.1859 eV  389.16 nm  f=0.0154  <S**2>=0.000
     308 -> 314        0.65681
     308 -> 317       -0.10729
     311 -> 315       -0.20211

 The electronic state is 1-A.
 Alpha  occ. eigenvalues --  -46.96544 -46.95238 -19.31500 -19.30291 -19.25520
 Alpha  occ. eigenvalues --  -19.24806 -19.23906 -19.23790 -19.23172 -19.23087
 Alpha  occ. eigenvalues --  -14.47013 -14.46561 -14.46539 -14.45962 -14.44748
 Alpha  occ. eigenvalues --  -14.44545 -14.44417 -14.44154 -10.43946 -10.42566
 Alpha  occ. eigenvalues --  -10.39490 -10.39239 -10.39000 -10.38263 -10.36223
 Alpha  occ. eigenvalues --  -10.36191 -10.36113 -10.35397 -10.35206 -10.35012
 Alpha  occ. eigenvalues --  -10.35009 -10.34778 -10.34728 -10.34716 -10.34665
 Alpha  occ. eigenvalues --  -10.34389 -10.34385 -10.34316 -10.33966 -10.33911
 Alpha  occ. eigenvalues --  -10.33766 -10.33090 -10.33001 -10.32952 -10.32945
 Alpha  occ. eigenvalues --  -10.32808 -10.32781 -10.32712 -10.32437 -10.32384
 Alpha  occ. eigenvalues --  -10.32246 -10.32222 -10.32216 -10.32196 -10.31899
 Alpha  occ. eigenvalues --  -10.31841 -10.31723 -10.31661 -10.31623 -10.31615
 Alpha  occ. eigenvalues --  -10.31549 -10.31538 -10.31468 -10.31429 -10.31227
 Alpha  occ. eigenvalues --  -10.31186 -10.31143 -10.31098 -10.30989 -10.30861
 Alpha  occ. eigenvalues --  -10.30679 -10.30660 -10.30549 -10.30544 -10.30470
 Alpha  occ. eigenvalues --  -10.30337 -10.30268 -10.30119 -10.30078 -10.29890
 Alpha  occ. eigenvalues --  -10.29822 -10.29502 -10.29315 -10.28987 -10.28970
 Alpha  occ. eigenvalues --  -10.28609  -3.22338  -3.21236  -1.95883  -1.95486
 Alpha  occ. eigenvalues --   -1.95271  -1.94814  -1.94347  -1.94218  -1.19231
 Alpha  occ. eigenvalues --   -1.18723  -1.13080  -1.12426  -1.11037  -1.10367
 Alpha  occ. eigenvalues --   -1.09898  -1.09445  -1.07461  -1.06748  -1.06596
 Alpha  occ. eigenvalues --   -1.05745  -1.05674  -1.04428  -1.04386  -1.03659
 Alpha  occ. eigenvalues --   -0.95154  -0.93920  -0.91236  -0.90831  -0.90677
 Alpha  occ. eigenvalues --   -0.90198  -0.90163  -0.89996  -0.89881  -0.89409
 Alpha  occ. eigenvalues --   -0.89023  -0.88069  -0.87963  -0.87333  -0.86598
 Alpha  occ. eigenvalues --   -0.86581  -0.85917  -0.85754  -0.84780  -0.84601
 Alpha  occ. eigenvalues --   -0.84526  -0.83911  -0.83325  -0.83053  -0.82437
 Alpha  occ. eigenvalues --   -0.82209  -0.80181  -0.79838  -0.79584  -0.79290
 Alpha  occ. eigenvalues --   -0.78815  -0.78336  -0.78216  -0.78210  -0.77278
 Alpha  occ. eigenvalues --   -0.76914  -0.75192  -0.74848  -0.74188  -0.73716
 Alpha  occ. eigenvalues --   -0.71722  -0.71374  -0.70852  -0.70445  -0.70426
 Alpha  occ. eigenvalues --   -0.70093  -0.68737  -0.68689  -0.68062  -0.67615
 Alpha  occ. eigenvalues --   -0.67490  -0.67156  -0.67108  -0.66773  -0.66770
 Alpha  occ. eigenvalues --   -0.66028  -0.64950  -0.64416  -0.62247  -0.62136
 Alpha  occ. eigenvalues --   -0.61920  -0.61499  -0.61254  -0.61004  -0.60893
 Alpha  occ. eigenvalues --   -0.60636  -0.60393  -0.59814  -0.59587  -0.59252
 Alpha  occ. eigenvalues --   -0.58219  -0.58173  -0.57894  -0.57817  -0.57594
 Alpha  occ. eigenvalues --   -0.56969  -0.56872  -0.56844  -0.56476  -0.56463
 Alpha  occ. eigenvalues --   -0.55814  -0.55656  -0.55390  -0.55284  -0.55013
 Alpha  occ. eigenvalues --   -0.54885  -0.54577  -0.54566  -0.54455  -0.54051
 Alpha  occ. eigenvalues --   -0.53964  -0.53680  -0.53637  -0.53453  -0.53343
 Alpha  occ. eigenvalues --   -0.53173  -0.52600  -0.52519  -0.52241  -0.52068
 Alpha  occ. eigenvalues --   -0.51983  -0.51892  -0.51733  -0.51616  -0.51519
 Alpha  occ. eigenvalues --   -0.51385  -0.51342  -0.51164  -0.50924  -0.50720
 Alpha  occ. eigenvalues --   -0.50477  -0.50397  -0.50181  -0.49848  -0.49710
 Alpha  occ. eigenvalues --   -0.49648  -0.49593  -0.49534  -0.49390  -0.49229
 Alpha  occ. eigenvalues --   -0.48975  -0.48908  -0.48835  -0.48567  -0.48533
 Alpha  occ. eigenvalues --   -0.48379  -0.48200  -0.48081  -0.47883  -0.47738
 Alpha  occ. eigenvalues --   -0.47545  -0.47535  -0.47372  -0.47235  -0.47087
 Alpha  occ. eigenvalues --   -0.47031  -0.46956  -0.46798  -0.46467  -0.46263
 Alpha  occ. eigenvalues --   -0.45916  -0.45677  -0.45600  -0.45565  -0.45526
 Alpha  occ. eigenvalues --   -0.45495  -0.45202  -0.45127  -0.45012  -0.44901
 Alpha  occ. eigenvalues --   -0.44856  -0.44763  -0.44338  -0.44237  -0.43967
 Alpha  occ. eigenvalues --   -0.43484  -0.43452  -0.43349  -0.43253  -0.43136
 Alpha  occ. eigenvalues --   -0.43072  -0.42775  -0.42772  -0.42234  -0.42133
 Alpha  occ. eigenvalues --   -0.41992  -0.41961  -0.41722  -0.40857  -0.40654
 Alpha  occ. eigenvalues --   -0.40542  -0.40208  -0.39901  -0.39763  -0.39583
 Alpha  occ. eigenvalues --   -0.39383  -0.39137  -0.38843  -0.38541  -0.38333
 Alpha  occ. eigenvalues --   -0.37746  -0.37682  -0.37141  -0.36189  -0.36095
 Alpha  occ. eigenvalues --   -0.36083  -0.35611  -0.35285  -0.33590  -0.33548
 Alpha  occ. eigenvalues --   -0.33142  -0.32754  -0.32604  -0.32380  -0.32317
 Alpha  occ. eigenvalues --   -0.32230  -0.31544  -0.31117  -0.26197  -0.26077
 Alpha  occ. eigenvalues --   -0.23117  -0.23107
 Alpha virt. eigenvalues --   -0.07285  -0.07117  -0.00660   0.00185   0.02350
 Alpha virt. eigenvalues --    0.02393   0.04143   0.04507   0.04580   0.05485
 Alpha virt. eigenvalues --    0.06408   0.07182   0.07582   0.07600   0.08521

 Mulliken charges:
               1
     1  Mg   0.941935
     2  C   -0.037971
     3  C   -0.073429
     4  C   -0.078420
     5  C   -0.055621
     6  N   -0.319977
     7  C   -0.052824
     8  C   -0.003322
     9  C   -0.147409
    10  C    0.056692
    11  C    0.022588
    12  C   -0.011247
    13  C   -0.138201
    14  H    0.013824
    15  N   -0.462223
    16  C    0.168061
    17  C   -0.175016
    18  C   -0.086702
    19  C    0.201842
    20  C    0.084743
    21  C    0.035938
    22  O   -0.236027
    23  C    0.005181
    24  N   -0.322737
    25  C    0.047358
    26  C   -0.151697
    27  C   -0.062464
    28  C    0.046714
    29  C    0.017244
    30  C   -0.028946
    31  C   -0.050495
    32  N   -0.501268
    33  C    0.150907
    34  C   -0.184784
    35  C   -0.035044
    36  C    0.186893
    37  C    0.087888
    38  C    0.097790
    39  O   -0.231056
    40  C   -0.050763
    41  C    0.238415
    42  O   -0.235954
    43  O   -0.346805
    44  C    0.130807
    45  H    0.013633
    46  H   -0.019923
    47  H    0.003347
    48  H    0.035240
    49  H    0.061569
    50  H    0.033374
    51  H    0.044480
    52  H    0.040387
    53  H    0.041096
    54  H    0.041276
    55  H    0.087285
    56  H    0.047398
    57  H    0.029795
    58  H    0.048557
    59  H    0.062081
    60  H    0.066409
    61  H    0.056724
    62  H    0.054719
    63  H    0.040392
    64  H    0.018090
    65  H    0.043565
    66  H    0.031209
    67  H    0.046337
    68  H    0.037499
    69  H    0.032155
    70  H    0.053229
    71  H    0.028094
    72  H    0.026649
    73  H    0.054303
    74  H    0.056626
    75  H    0.063030
    76  H    0.067949
    77  H    0.072785
    78  H    0.059138
    79  H    0.067079
    80  Mg   0.980651
    81  C   -0.124203
    82  C   -0.080697
    83  C   -0.101782
    84  C   -0.096468
    85  N   -0.314519
    86  C   -0.024802
    87  C   -0.047817
    88  C   -0.085488
    89  C    0.061065
    90  C    0.030207
    91  C   -0.009417
    92  C   -0.101152
    93  H    0.050317
    94  N   -0.481297
    95  C    0.127641
    96  C   -0.142735
    97  C   -0.097877
    98  C    0.230159
    99  C    0.077062
   100  C    0.025871
   101  O   -0.277681
   102  C    0.020063
   103  N   -0.347118
   104  C    0.018981
   105  C   -0.090647
   106  C   -0.108965
   107  C    0.094401
   108  C    0.033666
   109  C    0.010068
   110  C   -0.047579
   111  N   -0.436791
   112  C    0.106320
   113  C   -0.206217
   114  C   -0.066821
   115  C    0.193007
   116  C    0.118064
   117  C    0.144187
   118  O   -0.188455
   119  C   -0.050568
   120  C    0.292324
   121  O   -0.254427
   122  O   -0.371210
   123  C    0.136637
   124  H   -0.000060
   125  H   -0.036444
   126  H    0.002955
   127  H    0.018607
   128  H    0.029571
   129  H    0.037189
   130  H    0.045361
   131  H    0.037051
   132  H    0.031083
   133  H    0.053684
   134  H    0.048064
   135  H    0.042422
   136  H    0.047764
   137  H    0.033341
   138  H    0.069414
   139  H    0.083958
   140  H    0.065123
   141  H    0.043345
   142  H    0.038409
   143  H    0.032673
   144  H    0.040651
   145  H    0.041135
   146  H    0.031823
   147  H    0.033597
   148  H    0.025551
   149  H    0.046659
   150  H    0.035580
   151  H    0.033270
   152  H    0.080982
   153  H    0.046766
   154  H    0.029905
   155  H    0.059557
   156  H    0.065642
   157  H    0.052752
   158  H    0.056657
 Sum of Mulliken charges =  -0.00000

 Dipole moment (field-independent basis, Debye):
    X=             -0.2504    Y=              2.4369    Z=             -1.3282  Tot=              2.7867
 Quadrupole moment (field-independent basis, Debye-Ang):
   XX=           -468.7368   YY=           -479.2573   ZZ=           -512.4695
   XY=              8.3759   XZ=             42.5975   YZ=             -8.8746

 Normal termination of Gaussian 16 at Sat Sep 18 14:46:05 2021.
