 Gaussian 16, Revision A.03,
 Gaussian 16:  ES64L-G16RevA.03 25-Dec-2016

 --------------------------------
 #p wB97XD/Def2SVP td=(nstates=5)
 --------------------------------

 --------------------------------
 TDDFT excited states in gaussian
 --------------------------------
 Symbolic Z-matrix:
 Charge =  0 Multiplicity = 1

                         Standard orientation:
 ---------------------------------------------------------------------
 Center     Atomic      Atomic             Coordinates (Angstroms)
 Number     Number       Type             X           Y           Z
 ---------------------------------------------------------------------
      1         12           0       30.664730    0.559651   -0.188807
      2          6           0       28.745566   -2.311618   -0.368184
      3          6           0       27.912187    2.206560    1.329092
      4          6           0       32.654279    3.249104    0.553284
      5          6           0       33.466968   -1.176797   -1.218965
      6          7           0       28.548832    0.004815    0.271039
      7          6           0       28.031565   -1.271388    0.196838
      8          6           0       26.621044   -1.429381    0.878829
      9          6           0       26.203293    0.106227    1.056463
     10          6           0       27.612414    0.894114    0.841298
     11          6           0       25.054621    0.701852    0.156360
     12          6           0       26.618778   -2.169542    2.169978
     13          6           0       25.831020   -3.456140    2.325823
     14          1           0       25.325321   -3.769915    3.743064
     15          7           0       30.299649    2.518097    0.728962
     16          6           0       29.059698    2.965152    1.222972
     17          6           0       29.175479    4.323308    1.649876
     18          6           0       30.631958    4.611195    1.575639
     19          6           0       31.297694    3.431774    0.940866
     20          6           0       28.042055    5.117404    2.307514
     21          6           0       31.209190    5.947503    2.074201
     22          8           0       30.594552    6.876626    2.590027
     23          6           0       32.684699    6.021755    2.249317
     24          7           0       32.887281    0.944958   -0.148370
     25          6           0       33.369210    2.183380    0.023957
     26          6           0       34.889004    2.049789    0.108358
     27          6           0       35.231877    0.633755   -0.552474
     28          6           0       33.751224    0.061278   -0.693312
     29          6           0       35.565654    3.178674   -0.747289
     30          6           0       36.190085   -0.376727    0.202045
     31          6           0       37.545771   -0.741229   -0.384357
     32          7           0       31.051618   -1.377320   -0.785602
     33          6           0       32.249045   -1.952978   -1.221794
     34          6           0       32.053649   -3.346456   -1.482106
     35          6           0       30.679517   -3.573313   -1.161383
     36          6           0       30.130923   -2.285222   -0.786516
     37          6           0       33.052265   -4.356377   -1.952801
     38          6           0       29.624545   -4.500241   -1.129105
     39          8           0       29.654739   -5.678251   -1.424028
     40          6           0       28.358967   -3.761625   -0.544070
     41          6           0       27.190365   -4.110823   -1.366925
     42          8           0       26.324266   -4.899405   -1.005485
     43          8           0       27.245680   -3.445570   -2.582605
     44          6           0       26.119516   -3.786353   -3.480735
     45          1           0       27.127024    2.827597    1.764319
     46          1           0       33.195004    4.179155    0.742713
     47          1           0       34.372313   -1.717727   -1.501718
     48          1           0       25.935979   -1.913885    0.183966
     49          1           0       25.969071    0.240635    2.113092
     50          1           0       24.550428   -0.141063   -0.316172
     51          1           0       25.391519    1.410264   -0.600561
     52          1           0       24.395272    1.263880    0.816732
     53          1           0       26.169620   -1.500117    2.905166
     54          1           0       27.636847   -2.447714    2.440357
     55          1           0       26.500746   -4.283279    2.092243
     56          1           0       24.928222   -3.486368    1.716215
     57          1           0       27.081537    4.654733    2.533217
     58          1           0       27.955738    5.976596    1.642810
     59          1           0       28.530268    5.577066    3.166257
     60          1           0       33.310220    6.352469    1.421300
     61          1           0       33.094888    5.109524    2.682801
     62          1           0       32.857192    6.806211    2.987126
     63          1           0       35.262426    2.098071    1.131512
     64          1           0       35.559093    0.769990   -1.582643
     65          1           0       36.315660    3.647246   -0.110097
     66          1           0       34.889376    3.936242   -1.145324
     67          1           0       36.057890    2.801744   -1.644093
     68          1           0       35.584496   -1.276164    0.311084
     69          1           0       36.419575    0.109301    1.151328
     70          1           0       37.787981   -1.711975    0.048914
     71          1           0       38.287750   -0.026650   -0.027387
     72          1           0       37.660269   -0.861410   -1.461127
     73          1           0       32.508343   -5.298020   -2.031811
     74          1           0       33.865823   -4.366647   -1.228094
     75          1           0       33.481808   -4.162257   -2.935775
     76          1           0       28.220413   -4.229294    0.431292
     77          1           0       26.382670   -4.641344   -4.103414
     78          1           0       25.877811   -2.867772   -4.015375
     79          1           0       25.212301   -4.018061   -2.923451
     80         12           0      -30.176347   -0.474749    0.572370
     81          6           0      -30.142716    2.149060   -1.863997
     82          6           0      -29.546815   -2.741434   -1.929576
     83          6           0      -30.648079   -3.050492    2.705639
     84          6           0      -31.746703    1.799764    2.763701
     85          7           0      -29.873424   -0.283562   -1.622729
     86          6           0      -29.825448    0.870885   -2.419927
     87          6           0      -29.449411    0.483096   -3.827018
     88          6           0      -29.795126   -1.065365   -3.855715
     89          6           0      -29.800253   -1.401594   -2.335463
     90          6           0      -31.208196   -1.232113   -4.520009
     91          6           0      -27.993970    0.899289   -4.241521
     92          6           0      -27.989231    1.464279   -5.571954
     93          1           0      -26.640719    2.248743   -5.973025
     94          7           0      -29.914511   -2.582409    0.360630
     95          6           0      -29.621431   -3.299897   -0.730522
     96          6           0      -29.444145   -4.670743   -0.361521
     97          6           0      -29.772587   -4.806196    0.971014
     98          6           0      -30.100138   -3.391209    1.469473
     99          6           0      -29.158332   -5.785639   -1.417182
    100          6           0      -29.718940   -6.064218    1.862030
    101          8           0      -30.082569   -5.985427    3.008122
    102          6           0      -29.134674   -7.356161    1.341250
    103          7           0      -31.331468   -0.625648    2.369031
    104          6           0      -31.230106   -1.798629    3.108927
    105          6           0      -31.711224   -1.586760    4.507520
    106          6           0      -32.048117   -0.016651    4.542765
    107          6           0      -31.631011    0.447857    3.167248
    108          6           0      -32.825949   -2.501076    4.889204
    109          6           0      -31.373939    0.868771    5.728746
    110          6           0      -32.271208    1.555203    6.681143
    111          7           0      -30.791749    1.572213    0.546776
    112          6           0      -31.414037    2.313149    1.526064
    113          6           0      -31.550108    3.744557    1.010901
    114          6           0      -30.961836    3.754124   -0.269755
    115          6           0      -30.563170    2.395618   -0.526841
    116          6           0      -32.230610    4.884941    1.780300
    117          6           0      -30.779994    4.591107   -1.416865
    118          8           0      -31.040941    5.803660   -1.585470
    119          6           0      -30.400079    3.563653   -2.560666
    120          6           0      -29.213529    4.221191   -3.327510
    121          8           0      -28.041717    3.856334   -3.120193
    122          8           0      -29.688168    5.106380   -4.237963
    123          6           0      -28.529693    5.870864   -4.815546
    124          1           0      -29.131214   -3.435013   -2.664024
    125          1           0      -30.791384   -3.864461    3.420280
    126          1           0      -32.131654    2.597607    3.402021
    127          1           0      -30.186040    0.962698   -4.471181
    128          1           0      -29.065914   -1.631441   -4.434203
    129          1           0      -32.032107   -0.927696   -3.875038
    130          1           0      -31.319673   -2.263758   -4.851034
    131          1           0      -31.243770   -0.622878   -5.423451
    132          1           0      -27.436860   -0.029516   -4.366494
    133          1           0      -27.515537    1.521844   -3.485087
    134          1           0      -28.711038    2.276812   -5.656651
    135          1           0      -28.166478    0.648425   -6.273149
    136          1           0      -28.249974   -6.251910   -1.035738
    137          1           0      -28.949250   -5.422862   -2.423438
    138          1           0      -30.016412   -6.453552   -1.491432
    139          1           0      -29.256017   -8.153878    2.074154
    140          1           0      -28.111449   -6.994372    1.240625
    141          1           0      -29.624307   -7.592047    0.396457
    142          1           0      -30.817837   -1.793137    5.097196
    143          1           0      -33.128095    0.064805    4.663149
    144          1           0      -32.379936   -3.181713    5.613292
    145          1           0      -33.145821   -3.147505    4.072087
    146          1           0      -33.717024   -2.015787    5.288085
    147          1           0      -30.880813    1.659932    5.164018
    148          1           0      -30.609209    0.255471    6.203482
    149          1           0      -32.162844    2.637458    6.614753
    150          1           0      -31.761393    1.227184    7.586365
    151          1           0      -33.287988    1.160102    6.677180
    152          1           0      -33.263482    4.895892    1.434028
    153          1           0      -31.770711    5.853646    1.585073
    154          1           0      -32.124990    4.702276    2.849709
    155          1           0      -31.308186    3.519078   -3.160324
    156          1           0      -28.094246    6.616178   -4.150170
    157          1           0      -28.738274    6.369350   -5.761618
    158          1           0      -27.791109    5.116240   -5.086730
 ---------------------------------------------------------------------

 SCF Done:  E(RwB97XD) =  -4070.56148799     A.U. after   20 cycles

 Excitation energies and oscillator strengths:

 Excited State   1:      Singlet-A      1.6654 eV  744.49 nm  f=0.3719  <S**2>=0.000
     309 -> 316       -0.17865
     311 -> 313        0.68427
     309 <- 316       -0.11349
 This state for optimization and/or second-order correction.
 Total Energy, E(TD-HF/TD-DFT) =  -4070.50028747
 Copying the excited state density for this state as the 1-particle RhoCI density.

 Excited State   2:      Singlet-A      1.6768 eV  739.41 nm  f=0.3606  <S**2>=0.000
     310 -> 315       -0.19187
     312 -> 314        0.68014
     310 <- 315       -0.11546

 Excited State   3:      Singlet-A      2.1184 eV  585.27 nm  f=0.1555  <S**2>=0.000
     309 -> 313        0.64906
     311 -> 316        0.25657

 Excited State   4:      Singlet-A      2.2164 eV  559.40 nm  f=0.0062  <S**2>=0.000
     310 -> 314        0.55058
     312 -> 315        0.43361

 Excited State   5:      Singlet-A      3.0629 eV  404.80 nm  f=0.0077  <S**2>=0.000
     307 -> 313        0.68068

 The electronic state is 1-A.
 Alpha  occ. eigenvalues --  -46.96837 -46.95761 -19.31356 -19.30354 -19.24783
 Alpha  occ. eigenvalues --  -19.24694 -19.24530 -19.24211 -19.23767 -19.23308
 Alpha  occ. eigenvalues --  -14.48174 -14.46870 -14.46573 -14.46474 -14.44721
 Alpha  occ. eigenvalues --  -14.44434 -14.43972 -14.43713 -10.43559 -10.42988
 Alpha  occ. eigenvalues --  -10.39659 -10.39320 -10.38887 -10.38164 -10.37292
 Alpha  occ. eigenvalues --  -10.36243 -10.35771 -10.35701 -10.35436 -10.35391
 Alpha  occ. eigenvalues --  -10.35344 -10.35270 -10.35249 -10.34932 -10.34802
 Alpha  occ. eigenvalues --  -10.34570 -10.34431 -10.34115 -10.34102 -10.33545
 Alpha  occ. eigenvalues --  -10.33113 -10.33045 -10.33043 -10.32999 -10.32963
 Alpha  occ. eigenvalues --  -10.32790 -10.32765 -10.32762 -10.32748 -10.32591
 Alpha  occ. eigenvalues --  -10.32591 -10.32357 -10.32341 -10.32322 -10.32238
 Alpha  occ. eigenvalues --  -10.32218 -10.32168 -10.32039 -10.32036 -10.31960
 Alpha  occ. eigenvalues --  -10.31933 -10.31556 -10.31424 -10.31385 -10.31341
 Alpha  occ. eigenvalues --  -10.31031 -10.30975 -10.30884 -10.30859 -10.30829
 Alpha  occ. eigenvalues --  -10.30493 -10.30373 -10.30343 -10.30182 -10.30112
 Alpha  occ. eigenvalues --  -10.30081 -10.29898 -10.29779 -10.29771 -10.29721
 Alpha  occ. eigenvalues --  -10.29350 -10.29209 -10.29002 -10.28912 -10.28911
 Alpha  occ. eigenvalues --  -10.28802  -3.22533  -3.21564  -1.96143  -1.95624
 Alpha  occ. eigenvalues --   -1.95494  -1.95143  -1.94668  -1.94529  -1.18201
 Alpha  occ. eigenvalues --   -1.17705  -1.13978  -1.12350  -1.11969  -1.10037
 Alpha  occ. eigenvalues --   -1.09692  -1.09292  -1.06815  -1.06120  -1.06076
 Alpha  occ. eigenvalues --   -1.05056  -1.04674  -1.04656  -1.03828  -1.03414
 Alpha  occ. eigenvalues --   -0.94557  -0.93154  -0.91489  -0.91272  -0.90845
 Alpha  occ. eigenvalues --   -0.90588  -0.90061  -0.90031  -0.89669  -0.89486
 Alpha  occ. eigenvalues --   -0.89148  -0.89099  -0.87855  -0.87367  -0.86461
 Alpha  occ. eigenvalues --   -0.86272  -0.85741  -0.85655  -0.84841  -0.84544
 Alpha  occ. eigenvalues --   -0.84454  -0.84196  -0.82847  -0.82745  -0.82619
 Alpha  occ. eigenvalues --   -0.82367  -0.80200  -0.79802  -0.79454  -0.79156
 Alpha  occ. eigenvalues --   -0.78958  -0.78431  -0.78164  -0.77477  -0.77372
 Alpha  occ. eigenvalues --   -0.76866  -0.75515  -0.74305  -0.74140  -0.73401
 Alpha  occ. eigenvalues --   -0.71357  -0.70988  -0.70790  -0.70008  -0.69770
 Alpha  occ. eigenvalues --   -0.69400  -0.69115  -0.68305  -0.67558  -0.67472
 Alpha  occ. eigenvalues --   -0.67302  -0.67002  -0.66879  -0.66800  -0.66417
 Alpha  occ. eigenvalues --   -0.66274  -0.64999  -0.64026  -0.62320  -0.61944
 Alpha  occ. eigenvalues --   -0.61746  -0.61472  -0.61087  -0.61058  -0.60422
 Alpha  occ. eigenvalues --   -0.60201  -0.59813  -0.59372  -0.59018  -0.58921
 Alpha  occ. eigenvalues --   -0.58571  -0.57983  -0.57946  -0.57437  -0.57423
 Alpha  occ. eigenvalues --   -0.57024  -0.56709  -0.56242  -0.55947  -0.55894
 Alpha  occ. eigenvalues --   -0.55787  -0.55511  -0.55464  -0.55193  -0.54860
 Alpha  occ. eigenvalues --   -0.54819  -0.54710  -0.54604  -0.54537  -0.54415
 Alpha  occ. eigenvalues --   -0.54381  -0.54060  -0.53859  -0.53840  -0.53280
 Alpha  occ. eigenvalues --   -0.53237  -0.52854  -0.52472  -0.52367  -0.52292
 Alpha  occ. eigenvalues --   -0.52171  -0.52158  -0.52065  -0.51726  -0.51463
 Alpha  occ. eigenvalues --   -0.51458  -0.51193  -0.51033  -0.50862  -0.50858
 Alpha  occ. eigenvalues --   -0.50571  -0.50544  -0.50237  -0.50144  -0.49940
 Alpha  occ. eigenvalues --   -0.49850  -0.49803  -0.49766  -0.49344  -0.49160
 Alpha  occ. eigenvalues --   -0.48978  -0.48627  -0.48532  -0.48516  -0.48451
 Alpha  occ. eigenvalues --   -0.48132  -0.48103  -0.47986  -0.47940  -0.47811
 Alpha  occ. eigenvalues --   -0.47745  -0.47665  -0.47276  -0.47224  -0.47111
 Alpha  occ. eigenvalues --   -0.46667  -0.46512  -0.46511  -0.46438  -0.46276
 Alpha  occ. eigenvalues --   -0.46084  -0.46007  -0.45727  -0.45675  -0.45583
 Alpha  occ. eigenvalues --   -0.45379  -0.45185  -0.44989  -0.44982  -0.44761
 Alpha  occ. eigenvalues --   -0.44760  -0.44355  -0.44262  -0.44172  -0.43944
 Alpha  occ. eigenvalues --   -0.43820  -0.43604  -0.43447  -0.43381  -0.43255
 Alpha  occ. eigenvalues --   -0.43013  -0.42677  -0.42352  -0.42103  -0.41903
 Alpha  occ. eigenvalues --   -0.41694  -0.41641  -0.41389  -0.40749  -0.40436
 Alpha  occ. eigenvalues --   -0.40275  -0.39954  -0.39763  -0.39425  -0.39216
 Alpha  occ. eigenvalues --   -0.39213  -0.39158  -0.38967  -0.38805  -0.38065
 Alpha  occ. eigenvalues --   -0.37853  -0.36765  -0.36535  -0.36344  -0.36031
 Alpha  occ. eigenvalues --   -0.35814  -0.35489  -0.35184  -0.34016  -0.33929
 Alpha  occ. eigenvalues --   -0.33374  -0.33223  -0.32624  -0.32489  -0.32312
 Alpha  occ. eigenvalues --   -0.32226  -0.31857  -0.31453  -0.26560  -0.26194
 Alpha  occ. eigenvalues --   -0.23991  -0.22005
 Alpha virt. eigenvalues --   -0.08106  -0.05884  -0.00598  -0.00434   0.02047
 Alpha virt. eigenvalues --    0.02089   0.04311   0.04476   0.05078   0.05457
 Alpha virt. eigenvalues --    0.07041   0.07276   0.07412   0.07781   0.08447

 Mulliken charges:
               1
     1  Mg   0.930243
     2  C    0.060670
     3  C   -0.053597
     4  C   -0.067713
     5  C   -0.064593
     6  N   -0.367901
     7  C   -0.017567
     8  C   -0.066804
     9  C   -0.122729
    10  C    0.087905
    11  C    0.030138
    12  C    0.037169
    13  C   -0.149436
    14  H    0.025288
    15  N   -0.454791
    16  C    0.135276
    17  C   -0.149604
    18  C   -0.136692
    19  C    0.177483
    20  C    0.084136
    21  C    0.092246
    22  O   -0.239793
    23  C   -0.062596
    24  N   -0.335530
    25  C    0.120514
    26  C   -0.138879
    27  C   -0.048771
    28  C    0.022656
    29  C    0.006345
    30  C   -0.011663
    31  C   -0.052423
    32  N   -0.425267
    33  C    0.118258
    34  C   -0.169421
    35  C   -0.018334
    36  C    0.076979
    37  C    0.078418
    38  C    0.069317
    39  O   -0.202377
    40  C   -0.060374
    41  C    0.246582
    42  O   -0.245797
    43  O   -0.384166
    44  C    0.135052
    45  H   -0.012750
    46  H   -0.019733
    47  H   -0.002591
    48  H    0.034894
    49  H    0.040602
    50  H    0.043280
    51  H    0.048395
    52  H    0.043014
    53  H    0.039674
    54  H    0.043307
    55  H    0.068912
    56  H    0.059008
    57  H    0.056952
    58  H    0.057849
    59  H    0.063789
    60  H    0.068475
    61  H    0.055840
    62  H    0.048638
    63  H    0.055225
    64  H    0.030157
    65  H    0.036227
    66  H    0.039795
    67  H    0.031088
    68  H    0.041415
    69  H    0.028833
    70  H    0.036997
    71  H    0.037561
    72  H    0.038389
    73  H    0.063002
    74  H    0.045534
    75  H    0.046937
    76  H    0.066553
    77  H    0.069695
    78  H    0.052472
    79  H    0.054709
    80  Mg   0.943255
    81  C    0.041669
    82  C   -0.129178
    83  C   -0.076233
    84  C   -0.077300
    85  N   -0.336221
    86  C   -0.017656
    87  C   -0.079462
    88  C   -0.155265
    89  C    0.135853
    90  C    0.022049
    91  C    0.093390
    92  C   -0.136466
    93  H    0.009036
    94  N   -0.446437
    95  C    0.165793
    96  C   -0.153275
    97  C   -0.107931
    98  C    0.165129
    99  C    0.056696
   100  C    0.032562
   101  O   -0.217410
   102  C    0.006092
   103  N   -0.392530
   104  C    0.060481
   105  C   -0.103415
   106  C   -0.058536
   107  C    0.088890
   108  C    0.029684
   109  C   -0.034559
   110  C   -0.028619
   111  N   -0.416704
   112  C    0.095693
   113  C   -0.195823
   114  C   -0.011695
   115  C    0.105121
   116  C    0.075095
   117  C    0.122620
   118  O   -0.234914
   119  C   -0.139143
   120  C    0.281295
   121  O   -0.275153
   122  O   -0.340461
   123  C    0.131661
   124  H   -0.010068
   125  H    0.029226
   126  H   -0.008259
   127  H    0.017195
   128  H    0.025382
   129  H    0.050737
   130  H    0.035132
   131  H    0.035634
   132  H    0.016175
   133  H    0.073630
   134  H    0.051827
   135  H    0.043256
   136  H    0.051690
   137  H    0.037619
   138  H    0.072644
   139  H    0.062095
   140  H    0.066269
   141  H    0.055638
   142  H    0.043042
   143  H    0.031495
   144  H    0.039716
   145  H    0.045862
   146  H    0.038568
   147  H    0.026804
   148  H    0.028192
   149  H    0.044935
   150  H    0.030317
   151  H    0.041848
   152  H    0.063104
   153  H    0.057592
   154  H    0.033400
   155  H    0.090018
   156  H    0.070062
   157  H    0.052430
   158  H    0.059116
 Sum of Mulliken charges =  -0.00000

 Dipole moment (field-independent basis, Debye):
    X=              2.4648    Y=             -1.0625    Z=             -1.6500  Tot=              3.1506
 Quadrupole moment (field-independent basis, Debye-Ang):
   XX=           -369.9834   YY=           -576.1169   ZZ=           -485.2041
   XY=            237.8721   XZ=            -18.4617   YZ=              7.3640

 Normal termination of Gaussian 16 at Mon Sep 20 06:38:45 2021.
