 Gaussian 16, Revision A.03,
 Gaussian 16:  ES64L-G16RevA.03 25-Dec-2016

 --------------------------------
 #p wB97XD/Def2SVP td=(nstates=5)
 --------------------------------

 --------------------------------
 TDDFT excited states in gaussian
 --------------------------------
 Symbolic Z-matrix:
 Charge =  0 Multiplicity = 1

                         Standard orientation:
 ---------------------------------------------------------------------
 Center     Atomic      Atomic             Coordinates (Angstroms)
 Number     Number       Type             X           Y           Z
 ---------------------------------------------------------------------
      1         12           0       26.279420    0.544214   -0.083718
      2          6           0       24.698405   -1.967356   -1.711330
      3          6           0       27.074137   -1.632661    2.503632
      4          6           0       27.855318    3.058022    1.546861
      5          6           0       25.074346    2.810210   -2.406670
      6          7           0       25.997644   -1.519832    0.222663
      7          6           0       25.292625   -2.393335   -0.539786
      8          6           0       25.452339   -3.818613   -0.078837
      9          6           0       25.971403   -3.661075    1.400779
     10          6           0       26.408781   -2.160009    1.365275
     11          6           0       25.044024   -4.063233    2.622663
     12          6           0       26.527833   -4.606558   -0.954173
     13          6           0       26.302644   -6.147198   -0.930637
     14          1           0       25.624903   -6.851002    0.256996
     15          7           0       27.275749    0.755021    1.827111
     16          6           0       27.491969   -0.317150    2.732038
     17          6           0       28.230118    0.156466    3.863904
     18          6           0       28.465875    1.556457    3.620188
     19          6           0       27.857029    1.815000    2.266539
     20          6           0       28.710942   -0.700429    4.982058
     21          6           0       29.194620    2.578504    4.485481
     22          8           0       29.263596    3.822232    4.259286
     23          6           0       29.897535    2.116823    5.750773
     24          7           0       26.390739    2.632998   -0.336079
     25          6           0       27.270615    3.458351    0.365907
     26          6           0       27.513894    4.850144   -0.286013
     27          6           0       26.593152    4.665935   -1.618709
     28          6           0       26.000933    3.310170   -1.492706
     29          6           0       27.030316    5.944377    0.674325
     30          6           0       27.317407    4.910467   -2.909672
     31          6           0       26.671548    5.958725   -3.769893
     32          7           0       25.076732    0.570693   -1.627488
     33          6           0       24.663187    1.536208   -2.536900
     34          6           0       23.817746    0.956694   -3.513803
     35          6           0       23.736551   -0.434669   -3.237823
     36          6           0       24.600971   -0.655102   -2.144788
     37          6           0       23.146643    1.598237   -4.667042
     38          6           0       23.076809   -1.672411   -3.591617
     39          8           0       22.228164   -1.994674   -4.399954
     40          6           0       23.777393   -2.728092   -2.611183
     41          6           0       22.816989   -3.729542   -2.078346
     42          8           0       21.707795   -3.512113   -1.662142
     43          8           0       23.280888   -4.988017   -2.125763
     44          6           0       22.342676   -6.011458   -1.583231
     45          1           0       27.117578   -2.346877    3.328687
     46          1           0       28.250027    3.881612    2.145351
     47          1           0       24.747127    3.435228   -3.240089
     48          1           0       24.496555   -4.331433    0.027518
     49          1           0       26.903763   -4.216789    1.495420
     50          1           0       24.143821   -4.517314    2.208319
     51          1           0       24.756106   -3.277358    3.319150
     52          1           0       25.619610   -4.762565    3.229373
     53          1           0       27.486987   -4.302526   -0.534654
     54          1           0       26.439036   -4.241179   -1.977337
     55          1           0       27.316241   -6.528471   -1.055896
     56          1           0       25.807275   -6.394050   -1.869294
     57          1           0       29.634405   -1.249043    4.796484
     58          1           0       27.881739   -1.370322    5.206103
     59          1           0       28.760979   -0.174239    5.934864
     60          1           0       29.126519    2.073066    6.519856
     61          1           0       30.598762    2.916757    5.987166
     62          1           0       30.369349    1.137783    5.665415
     63          1           0       28.594375    4.944997   -0.394676
     64          1           0       25.785414    5.397676   -1.581894
     65          1           0       26.483441    5.600136    1.552369
     66          1           0       26.510207    6.711311    0.100880
     67          1           0       27.933508    6.385760    1.096656
     68          1           0       27.349405    4.034522   -3.557724
     69          1           0       28.364985    5.190446   -2.798086
     70          1           0       27.375868    6.704340   -4.137690
     71          1           0       25.898630    6.499318   -3.224225
     72          1           0       26.144836    5.386195   -4.533928
     73          1           0       22.860383    2.642071   -4.534937
     74          1           0       22.154674    1.145641   -4.657722
     75          1           0       23.743034    1.460825   -5.569068
     76          1           0       24.377278   -3.226492   -3.373207
     77          1           0       21.542988   -6.248619   -2.286350
     78          1           0       22.007031   -5.763874   -0.576045
     79          1           0       22.896927   -6.940744   -1.449312
     80         12           0      -26.582390    0.519031    0.146794
     81          6           0      -24.190549   -1.884691    1.154574
     82          6           0      -27.791618   -1.746607   -1.897182
     83          6           0      -28.007811    3.055606   -1.423552
     84          6           0      -24.600675    2.872918    1.924543
     85          7           0      -26.074491   -1.671148   -0.130023
     86          6           0      -25.189316   -2.438222    0.393767
     87          6           0      -25.465164   -3.915223    0.044670
     88          6           0      -26.325029   -3.810506   -1.315917
     89          6           0      -26.720190   -2.281650   -1.175828
     90          6           0      -25.561602   -4.131961   -2.661291
     91          6           0      -26.358684   -4.618769    1.194248
     92          6           0      -26.175544   -6.135750    1.523425
     93          1           0      -25.691230   -7.050249    0.338526
     94          7           0      -27.909383    0.623690   -1.316445
     95          6           0      -28.334638   -0.494504   -2.017837
     96          6           0      -29.352435   -0.053411   -3.035569
     97          6           0      -29.432542    1.390378   -2.854125
     98          6           0      -28.453646    1.827256   -1.854952
     99          6           0      -29.993947   -1.045099   -3.987636
    100          6           0      -30.366048    2.345899   -3.564262
    101          8           0      -30.368371    3.574810   -3.407505
    102          6           0      -31.377267    1.794121   -4.485380
    103          7           0      -26.403823    2.739533    0.318935
    104          6           0      -27.092888    3.511071   -0.502227
    105          6           0      -27.053342    5.020909    0.005001
    106          6           0      -25.873869    4.913570    1.116040
    107          6           0      -25.632783    3.406831    1.151878
    108          6           0      -26.820268    6.066679   -1.135012
    109          6           0      -26.155311    5.486184    2.543958
    110          6           0      -25.387353    6.717387    2.951161
    111          7           0      -24.870849    0.526380    1.504040
    112          6           0      -24.224729    1.582182    2.115759
    113          6           0      -23.071105    1.125636    2.771417
    114          6           0      -23.000356   -0.225535    2.382671
    115          6           0      -24.071105   -0.569847    1.592069
    116          6           0      -22.134597    1.883360    3.570172
    117          6           0      -22.227104   -1.382422    2.619033
    118          8           0      -21.242214   -1.679168    3.348495
    119          6           0      -22.823655   -2.454178    1.599969
    120          6           0      -22.903413   -3.789299    2.244511
    121          8           0      -23.580474   -4.119736    3.215863
    122          8           0      -22.120873   -4.686096    1.450803
    123          6           0      -22.039289   -6.081363    1.901307
    124          1           0      -28.246164   -2.568200   -2.455466
    125          1           0      -28.533445    3.878740   -1.910713
    126          1           0      -24.043979    3.590749    2.531662
    127          1           0      -24.522455   -4.342299   -0.296404
    128          1           0      -27.100052   -4.575648   -1.287233
    129          1           0      -24.481982   -4.170497   -2.517860
    130          1           0      -25.712044   -3.349875   -3.405270
    131          1           0      -25.935385   -5.102426   -2.987576
    132          1           0      -27.420709   -4.442703    1.022641
    133          1           0      -26.207668   -4.064653    2.120878
    134          1           0      -27.080302   -6.615991    1.897475
    135          1           0      -25.306742   -6.207493    2.178927
    136          1           0      -31.070923   -0.895742   -4.072547
    137          1           0      -29.813040   -2.083904   -3.711401
    138          1           0      -29.464028   -1.023397   -4.939585
    139          1           0      -30.909160    1.219333   -5.285000
    140          1           0      -31.967560    2.604189   -4.913791
    141          1           0      -32.127320    1.147580   -4.029846
    142          1           0      -27.951971    5.303642    0.553176
    143          1           0      -24.914859    5.264157    0.731772
    144          1           0      -26.622629    5.560252   -2.079943
    145          1           0      -26.029053    6.672298   -0.692617
    146          1           0      -27.692216    6.719415   -1.143322
    147          1           0      -25.898708    4.705849    3.260772
    148          1           0      -27.223143    5.676500    2.653575
    149          1           0      -24.900320    7.023513    2.026266
    150          1           0      -24.613228    6.407323    3.654038
    151          1           0      -26.024374    7.534068    3.288511
    152          1           0      -22.721975    2.422674    4.312815
    153          1           0      -21.670404    2.738866    3.079440
    154          1           0      -21.444799    1.202920    4.069797
    155          1           0      -22.165801   -2.497060    0.731343
    156          1           0      -21.349878   -6.649150    1.275914
    157          1           0      -22.992978   -6.566852    1.693405
    158          1           0      -21.655313   -6.106010    2.920592
 ---------------------------------------------------------------------

 SCF Done:  E(RwB97XD) =  -4070.57778766     A.U. after   20 cycles

 Excitation energies and oscillator strengths:

 Excited State   1:      Singlet-A      1.5874 eV  781.07 nm  f=0.3901  <S**2>=0.000
     309 -> 316       -0.17575
     312 -> 313        0.68655
     309 <- 316       -0.11663
 This state for optimization and/or second-order correction.
 Total Energy, E(TD-HF/TD-DFT) =  -4070.51945290
 Copying the excited state density for this state as the 1-particle RhoCI density.

 Excited State   2:      Singlet-A      1.7434 eV  711.16 nm  f=0.3632  <S**2>=0.000
     310 -> 315       -0.21769
     311 -> 314        0.67308
     310 <- 315       -0.11923

 Excited State   3:      Singlet-A      2.1691 eV  571.59 nm  f=0.0849  <S**2>=0.000
     309 -> 313        0.62827
     312 -> 316        0.29045

 Excited State   4:      Singlet-A      2.1695 eV  571.49 nm  f=0.1033  <S**2>=0.000
     310 -> 314        0.61980
     311 -> 315        0.30596

 Excited State   5:      Singlet-A      3.3096 eV  374.62 nm  f=0.0147  <S**2>=0.000
     306 -> 313        0.10098
     307 -> 313        0.67094
     312 -> 316       -0.11076

 The electronic state is 1-A.
 Alpha  occ. eigenvalues --  -46.95721 -46.93498 -19.30359 -19.29173 -19.25140
 Alpha  occ. eigenvalues --  -19.24271 -19.24023 -19.23683 -19.23542 -19.23523
 Alpha  occ. eigenvalues --  -14.47453 -14.46706 -14.46289 -14.46282 -14.44604
 Alpha  occ. eigenvalues --  -14.44101 -14.43391 -14.43176 -10.43151 -10.42406
 Alpha  occ. eigenvalues --  -10.39210 -10.39163 -10.39080 -10.38517 -10.35802
 Alpha  occ. eigenvalues --  -10.35572 -10.35371 -10.35018 -10.34941 -10.34824
 Alpha  occ. eigenvalues --  -10.34795 -10.34707 -10.34692 -10.34625 -10.34508
 Alpha  occ. eigenvalues --  -10.34431 -10.34275 -10.34112 -10.33887 -10.33321
 Alpha  occ. eigenvalues --  -10.33307 -10.32952 -10.32882 -10.32825 -10.32748
 Alpha  occ. eigenvalues --  -10.32714 -10.32551 -10.32505 -10.32376 -10.32354
 Alpha  occ. eigenvalues --  -10.32295 -10.32179 -10.32089 -10.31959 -10.31903
 Alpha  occ. eigenvalues --  -10.31898 -10.31874 -10.31800 -10.31749 -10.31649
 Alpha  occ. eigenvalues --  -10.31647 -10.31589 -10.31580 -10.31570 -10.31533
 Alpha  occ. eigenvalues --  -10.31459 -10.31133 -10.31000 -10.30668 -10.30397
 Alpha  occ. eigenvalues --  -10.30230 -10.30159 -10.30058 -10.29961 -10.29787
 Alpha  occ. eigenvalues --  -10.29700 -10.29682 -10.29660 -10.29620 -10.29489
 Alpha  occ. eigenvalues --  -10.29432 -10.29317 -10.29271 -10.29210 -10.28908
 Alpha  occ. eigenvalues --  -10.28664  -3.21633  -3.19748  -1.95223  -1.94764
 Alpha  occ. eigenvalues --   -1.94580  -1.93337  -1.92862  -1.92769  -1.19466
 Alpha  occ. eigenvalues --   -1.16102  -1.12376  -1.11625  -1.09614  -1.09500
 Alpha  occ. eigenvalues --   -1.09440  -1.08925  -1.07785  -1.07207  -1.06509
 Alpha  occ. eigenvalues --   -1.05593  -1.05546  -1.04717  -1.03505  -1.03413
 Alpha  occ. eigenvalues --   -0.95348  -0.94947  -0.91573  -0.91418  -0.90718
 Alpha  occ. eigenvalues --   -0.90512  -0.90436  -0.89793  -0.89585  -0.89477
 Alpha  occ. eigenvalues --   -0.89261  -0.89160  -0.88849  -0.88350  -0.86226
 Alpha  occ. eigenvalues --   -0.86210  -0.85863  -0.85712  -0.84640  -0.84369
 Alpha  occ. eigenvalues --   -0.83947  -0.83580  -0.83441  -0.82993  -0.82624
 Alpha  occ. eigenvalues --   -0.82455  -0.80933  -0.80299  -0.79698  -0.79644
 Alpha  occ. eigenvalues --   -0.79262  -0.78884  -0.78452  -0.77821  -0.77164
 Alpha  occ. eigenvalues --   -0.77146  -0.75216  -0.74868  -0.74241  -0.73806
 Alpha  occ. eigenvalues --   -0.71066  -0.70935  -0.70582  -0.70499  -0.70134
 Alpha  occ. eigenvalues --   -0.69886  -0.69200  -0.68670  -0.67883  -0.67778
 Alpha  occ. eigenvalues --   -0.67574  -0.67548  -0.67293  -0.66765  -0.66589
 Alpha  occ. eigenvalues --   -0.66073  -0.64317  -0.63251  -0.62539  -0.62322
 Alpha  occ. eigenvalues --   -0.62117  -0.61877  -0.61292  -0.60927  -0.60355
 Alpha  occ. eigenvalues --   -0.60345  -0.59955  -0.59716  -0.59710  -0.59289
 Alpha  occ. eigenvalues --   -0.58958  -0.58068  -0.57750  -0.57402  -0.57345
 Alpha  occ. eigenvalues --   -0.57146  -0.56977  -0.56302  -0.55848  -0.55733
 Alpha  occ. eigenvalues --   -0.55465  -0.55272  -0.55108  -0.54947  -0.54878
 Alpha  occ. eigenvalues --   -0.54800  -0.54549  -0.54446  -0.54395  -0.54354
 Alpha  occ. eigenvalues --   -0.54179  -0.54096  -0.53895  -0.53452  -0.53236
 Alpha  occ. eigenvalues --   -0.53076  -0.53074  -0.52837  -0.52501  -0.52258
 Alpha  occ. eigenvalues --   -0.52228  -0.52004  -0.51917  -0.51828  -0.51589
 Alpha  occ. eigenvalues --   -0.51489  -0.51101  -0.50935  -0.50786  -0.50732
 Alpha  occ. eigenvalues --   -0.50611  -0.50304  -0.50300  -0.50124  -0.49949
 Alpha  occ. eigenvalues --   -0.49893  -0.49743  -0.49721  -0.49556  -0.49245
 Alpha  occ. eigenvalues --   -0.49238  -0.49118  -0.48998  -0.48720  -0.48622
 Alpha  occ. eigenvalues --   -0.48532  -0.48289  -0.48239  -0.48047  -0.47831
 Alpha  occ. eigenvalues --   -0.47516  -0.47286  -0.47136  -0.46863  -0.46840
 Alpha  occ. eigenvalues --   -0.46700  -0.46466  -0.46182  -0.45986  -0.45893
 Alpha  occ. eigenvalues --   -0.45844  -0.45817  -0.45490  -0.45454  -0.45234
 Alpha  occ. eigenvalues --   -0.45197  -0.45111  -0.44912  -0.44547  -0.44355
 Alpha  occ. eigenvalues --   -0.44243  -0.43969  -0.43882  -0.43830  -0.43611
 Alpha  occ. eigenvalues --   -0.43568  -0.43321  -0.43106  -0.42944  -0.42942
 Alpha  occ. eigenvalues --   -0.42825  -0.42651  -0.42527  -0.42492  -0.42315
 Alpha  occ. eigenvalues --   -0.42268  -0.42229  -0.41969  -0.41914  -0.40946
 Alpha  occ. eigenvalues --   -0.40414  -0.40197  -0.39902  -0.39874  -0.39624
 Alpha  occ. eigenvalues --   -0.39402  -0.39160  -0.38976  -0.38632  -0.38388
 Alpha  occ. eigenvalues --   -0.38089  -0.37605  -0.36611  -0.36575  -0.36197
 Alpha  occ. eigenvalues --   -0.35888  -0.35630  -0.35420  -0.34008  -0.33673
 Alpha  occ. eigenvalues --   -0.33220  -0.32806  -0.32633  -0.32611  -0.32302
 Alpha  occ. eigenvalues --   -0.32125  -0.31745  -0.31460  -0.26222  -0.26084
 Alpha  occ. eigenvalues --   -0.23486  -0.22826
 Alpha virt. eigenvalues --   -0.07314  -0.06958  -0.00728   0.00306   0.01824
 Alpha virt. eigenvalues --    0.02178   0.04347   0.04364   0.05440   0.06134
 Alpha virt. eigenvalues --    0.06750   0.07447   0.07859   0.07869   0.08040

 Mulliken charges:
               1
     1  Mg   0.985601
     2  C    0.012731
     3  C   -0.095380
     4  C   -0.062376
     5  C   -0.128128
     6  N   -0.378483
     7  C   -0.008392
     8  C   -0.043495
     9  C   -0.121999
    10  C    0.058045
    11  C    0.021164
    12  C    0.005392
    13  C   -0.092499
    14  H    0.043484
    15  N   -0.389508
    16  C    0.163938
    17  C   -0.155382
    18  C   -0.073762
    19  C    0.099961
    20  C    0.064774
    21  C    0.052890
    22  O   -0.274734
    23  C   -0.022175
    24  N   -0.392096
    25  C    0.057880
    26  C   -0.092139
    27  C   -0.027186
    28  C    0.109020
    29  C    0.008968
    30  C   -0.008488
    31  C   -0.062959
    32  N   -0.527503
    33  C    0.189808
    34  C   -0.191400
    35  C   -0.055016
    36  C    0.141604
    37  C    0.072765
    38  C    0.153147
    39  O   -0.183124
    40  C   -0.107169
    41  C    0.224503
    42  O   -0.229885
    43  O   -0.358831
    44  C    0.140855
    45  H   -0.003559
    46  H    0.017259
    47  H   -0.016900
    48  H    0.024600
    49  H    0.035434
    50  H    0.042341
    51  H    0.048453
    52  H    0.037248
    53  H    0.035710
    54  H    0.041466
    55  H    0.044234
    56  H    0.060619
    57  H    0.073833
    58  H    0.034879
    59  H    0.031935
    60  H    0.066675
    61  H    0.059200
    62  H    0.050440
    63  H    0.056033
    64  H    0.035271
    65  H    0.060740
    66  H    0.037236
    67  H    0.041373
    68  H    0.033212
    69  H    0.028284
    70  H    0.043798
    71  H    0.022322
    72  H    0.037626
    73  H    0.026950
    74  H    0.061491
    75  H    0.068376
    76  H    0.069217
    77  H    0.070824
    78  H    0.058566
    79  H    0.040396
    80  Mg   0.950786
    81  C   -0.001472
    82  C   -0.092596
    83  C   -0.057150
    84  C   -0.097647
    85  N   -0.289298
    86  C   -0.079880
    87  C   -0.022250
    88  C   -0.152127
    89  C    0.044878
    90  C    0.020227
    91  C    0.019095
    92  C   -0.121896
    93  H   -0.003166
    94  N   -0.573500
    95  C    0.230498
    96  C   -0.157419
    97  C   -0.064073
    98  C    0.176414
    99  C    0.067656
   100  C    0.057134
   101  O   -0.243287
   102  C   -0.029526
   103  N   -0.281792
   104  C    0.040616
   105  C   -0.118746
   106  C   -0.082450
   107  C    0.022734
   108  C    0.039341
   109  C   -0.018056
   110  C   -0.035018
   111  N   -0.421096
   112  C    0.154795
   113  C   -0.152108
   114  C   -0.029542
   115  C    0.146286
   116  C    0.092567
   117  C    0.133273
   118  O   -0.250622
   119  C   -0.095415
   120  C    0.288905
   121  O   -0.246551
   122  O   -0.409250
   123  C    0.146587
   124  H   -0.006534
   125  H    0.019228
   126  H   -0.015416
   127  H    0.025052
   128  H    0.044097
   129  H    0.036962
   130  H    0.039611
   131  H    0.044093
   132  H    0.028284
   133  H    0.057733
   134  H    0.065748
   135  H    0.078874
   136  H    0.055767
   137  H    0.031544
   138  H    0.060666
   139  H    0.053898
   140  H    0.050856
   141  H    0.060054
   142  H    0.047699
   143  H    0.033937
   144  H    0.061756
   145  H    0.029002
   146  H    0.039245
   147  H    0.034188
   148  H    0.025053
   149  H    0.022708
   150  H    0.040445
   151  H    0.046554
   152  H    0.029869
   153  H    0.045572
   154  H    0.071964
   155  H    0.082494
   156  H    0.044142
   157  H    0.042296
   158  H    0.066701
 Sum of Mulliken charges =  -0.00000

 Dipole moment (field-independent basis, Debye):
    X=              0.7578    Y=             -2.7788    Z=             -1.7333  Tot=              3.3616
 Quadrupole moment (field-independent basis, Debye-Ang):
   XX=           -155.4683   YY=           -463.8896   ZZ=           -515.2194
   XY=            -44.7998   XZ=             96.8943   YZ=              0.6732

 Normal termination of Gaussian 16 at Sun Sep 19 22:21:11 2021.
