 Gaussian 16, Revision A.03,
 Gaussian 16:  ES64L-G16RevA.03 25-Dec-2016

 --------------------------------
 #p wB97XD/Def2SVP td=(nstates=5)
 --------------------------------

 --------------------------------
 TDDFT excited states in gaussian
 --------------------------------
 Symbolic Z-matrix:
 Charge =  0 Multiplicity = 1

                         Standard orientation:
 ---------------------------------------------------------------------
 Center     Atomic      Atomic             Coordinates (Angstroms)
 Number     Number       Type             X           Y           Z
 ---------------------------------------------------------------------
      1         12           0      -11.357149    0.200463   -0.574580
      2          6           0       -8.462793   -1.740987   -0.123281
      3          6           0      -13.246925   -2.599255    0.067661
      4          6           0      -13.954939    2.225468   -0.264103
      5          6           0       -9.290552    3.063584   -0.961314
      6          7           0      -10.899580   -1.833117    0.156775
      7          6           0       -9.622319   -2.440012    0.272480
      8          6           0       -9.692263   -3.909258    0.352782
      9          6           0      -11.259195   -4.173640    0.312411
     10          6           0      -11.858362   -2.787880    0.131440
     11          6           0      -11.653447   -5.251526   -0.726215
     12          6           0       -9.173935   -4.492042    1.632088
     13          6           0       -9.454933   -3.698774    2.916972
     14          1           0       -9.749316   -4.427510    4.285720
     15          7           0      -13.374307   -0.114004   -0.187795
     16          6           0      -13.935529   -1.333681   -0.082546
     17          6           0      -15.366489   -1.172177   -0.017480
     18          6           0      -15.617595    0.211933   -0.185508
     19          6           0      -14.298142    0.860356   -0.253652
     20          6           0      -16.369322   -2.269527    0.217919
     21          6           0      -16.997506    0.864315   -0.264567
     22          8           0      -18.011305    0.200137   -0.172145
     23          6           0      -17.310228    2.329412   -0.340902
     24          7           0      -11.569817    2.333441   -0.350474
     25          6           0      -12.791829    2.947999   -0.284425
     26          6           0      -12.674815    4.485134   -0.549035
     27          6           0      -11.136137    4.715067   -0.452923
     28          6           0      -10.626720    3.299688   -0.615407
     29          6           0      -13.217318    4.968550   -1.915677
     30          6           0      -10.582212    5.180633    0.975650
     31          6           0       -9.615809    6.309182    0.985162
     32          7           0       -9.379235    0.614719   -0.657585
     33          6           0       -8.742426    1.743173   -0.998586
     34          6           0       -7.324843    1.431556   -1.420758
     35          6           0       -7.227890    0.034978   -1.123075
     36          6           0       -8.453223   -0.377455   -0.527146
     37          6           0       -6.234388    2.338918   -1.972000
     38          6           0       -6.282600   -1.040798   -1.040345
     39          8           0       -5.090959   -1.074121   -1.303833
     40          6           0       -7.074441   -2.255703   -0.408144
     41          6           0       -6.462686   -2.520283    0.951956
     42          8           0       -6.512002   -1.830553    1.916233
     43          8           0       -5.912286   -3.784124    0.929807
     44          6           0       -5.539391   -4.287793    2.255549
     45          1           0      -13.833835   -3.519888    0.074632
     46          1           0      -14.813802    2.894248   -0.341353
     47          1           0       -8.735483    3.967326   -1.221270
     48          1           0       -9.122414   -4.312408   -0.484376
     49          1           0      -11.724781   -4.436582    1.262194
     50          1           0      -12.309274   -5.876682   -0.120007
     51          1           0      -10.732058   -5.743341   -1.038291
     52          1           0      -12.238514   -4.852092   -1.554857
     53          1           0       -8.138593   -4.829417    1.576845
     54          1           0       -9.594876   -5.462887    1.894486
     55          1           0      -10.288134   -3.043214    2.661496
     56          1           0       -8.573030   -3.061595    2.985246
     57          1           0      -17.103914   -1.974384    0.967896
     58          1           0      -15.851986   -3.195780    0.467661
     59          1           0      -16.866227   -2.382192   -0.745962
     60          1           0      -17.041410    2.912591    0.539272
     61          1           0      -18.399747    2.309983   -0.310959
     62          1           0      -17.088436    2.765852   -1.315362
     63          1           0      -13.236513    4.998421    0.231330
     64          1           0      -10.743822    5.357786   -1.241447
     65          1           0      -12.376487    5.304467   -2.522258
     66          1           0      -14.083000    5.620524   -1.800099
     67          1           0      -13.633848    4.111485   -2.443656
     68          1           0      -10.157638    4.339850    1.523730
     69          1           0      -11.480921    5.480935    1.514661
     70          1           0       -9.935510    7.138977    1.615166
     71          1           0       -9.383820    6.692423   -0.008789
     72          1           0       -8.655292    6.015080    1.407395
     73          1           0       -5.395255    2.264987   -1.280250
     74          1           0       -6.681638    3.314451   -2.166740
     75          1           0       -5.892861    1.856969   -2.887981
     76          1           0       -7.048529   -3.141567   -1.042315
     77          1           0       -6.166515   -3.891582    3.054075
     78          1           0       -4.511090   -3.946254    2.374486
     79          1           0       -5.469663   -5.370115    2.150265
     80         12           0       10.631088    0.683936   -0.307940
     81          6           0       10.938885   -2.680788    0.081544
     82          6           0        7.223460    0.395200    0.593833
     83          6           0       10.625283    3.958248    0.350114
     84          6           0       14.213696    0.945380   -0.681015
     85          7           0        9.303110   -0.953414    0.227904
     86          6           0        9.569714   -2.211724    0.347486
     87          6           0        8.288338   -3.107293    0.492950
     88          6           0        7.082494   -2.101124    0.359778
     89          6           0        7.879669   -0.751401    0.355545
     90          6           0        6.076102   -2.389415   -0.755076
     91          6           0        8.314814   -4.009664    1.864787
     92          6           0        9.177924   -3.545638    3.026889
     93          1           0        8.919951   -4.062983    4.442047
     94          7           0        9.122685    1.983902    0.387129
     95          6           0        7.798456    1.709716    0.631322
     96          6           0        7.152373    2.867322    1.076198
     97          6           0        8.120967    3.943941    1.063339
     98          6           0        9.391390    3.311992    0.619586
     99          6           0        5.651145    2.884733    1.298507
    100          6           0        7.804848    5.396348    1.463838
    101          8           0        6.635977    5.659748    1.825446
    102          6           0        8.736949    6.486593    1.463291
    103          7           0       12.274091    2.259725   -0.023620
    104          6           0       11.898853    3.505491    0.043567
    105          6           0       13.076062    4.505988   -0.135206
    106          6           0       14.225842    3.549428   -0.519884
    107          6           0       13.583442    2.105774   -0.439704
    108          6           0       12.854628    5.540369   -1.179107
    109          6           0       15.520586    3.730418    0.404422
    110          6           0       16.798847    4.347897   -0.298341
    111          7           0       12.279385   -0.548449   -0.426644
    112          6           0       13.653456   -0.350421   -0.611335
    113          6           0       14.323611   -1.686607   -0.673609
    114          6           0       13.290332   -2.582395   -0.364092
    115          6           0       12.073741   -1.858755   -0.187622
    116          6           0       15.717916   -2.003310   -0.918008
    117          6           0       13.081650   -3.937621   -0.131550
    118          8           0       13.812451   -4.938204   -0.173972
    119          6           0       11.547178   -4.084994    0.073789
    120          6           0       11.015149   -5.086743   -0.978507
    121          8           0       10.355869   -6.092798   -0.779134
    122          8           0       11.364686   -4.727559   -2.262294
    123          6           0       10.952857   -5.618347   -3.353688
    124          1           0        6.200292    0.208455    0.926087
    125          1           0       10.652722    5.048865    0.393094
    126          1           0       15.264697    1.030642   -0.964500
    127          1           0        8.230193   -3.701798   -0.419188
    128          1           0        6.500064   -2.033725    1.279180
    129          1           0        6.114965   -1.593306   -1.498327
    130          1           0        5.050616   -2.425958   -0.385635
    131          1           0        6.183030   -3.354076   -1.251239
    132          1           0        8.592198   -4.986374    1.467602
    133          1           0        7.359361   -4.096808    2.382552
    134          1           0        9.047980   -2.463884    3.008331
    135          1           0       10.203632   -3.741812    2.714058
    136          1           0        5.031406    3.604677    0.763362
    137          1           0        5.460137    2.943170    2.370305
    138          1           0        5.242721    1.913394    1.020265
    139          1           0        9.190307    6.768492    0.513141
    140          1           0        9.632602    6.219150    2.023085
    141          1           0        8.372079    7.374756    1.978234
    142          1           0       13.372794    5.120928    0.714341
    143          1           0       14.508203    3.616371   -1.570615
    144          1           0       12.625997    6.536508   -0.800566
    145          1           0       11.932901    5.341877   -1.727197
    146          1           0       13.719832    5.599567   -1.839221
    147          1           0       15.850853    2.738611    0.716171
    148          1           0       15.382276    4.408052    1.245823
    149          1           0       17.226553    5.122305    0.337179
    150          1           0       16.464474    4.884040   -1.186603
    151          1           0       17.507058    3.521639   -0.362989
    152          1           0       16.062624   -1.206488   -1.577477
    153          1           0       15.810801   -2.962791   -1.428062
    154          1           0       16.184651   -2.096058    0.062186
    155          1           0       11.286174   -4.686316    0.944339
    156          1           0       11.630044   -5.465050   -4.194152
    157          1           0        9.965938   -5.472687   -3.792563
    158          1           0       10.900353   -6.669397   -3.068201
 ---------------------------------------------------------------------

 SCF Done:  E(RwB97XD) =  -4070.56918950     A.U. after   19 cycles

 Excitation energies and oscillator strengths:

 Excited State   1:      Singlet-A      1.6058 eV  772.10 nm  f=0.4305  <S**2>=0.000
     310 -> 316        0.17741
     312 -> 314        0.68182
     310 <- 316        0.11659
 This state for optimization and/or second-order correction.
 Total Energy, E(TD-HF/TD-DFT) =  -4070.51017708
 Copying the excited state density for this state as the 1-particle RhoCI density.

 Excited State   2:      Singlet-A      1.6543 eV  749.47 nm  f=0.3888  <S**2>=0.000
     309 -> 315       -0.16550
     311 -> 313        0.68295
     309 <- 315       -0.11096

 Excited State   3:      Singlet-A      2.1976 eV  564.18 nm  f=0.1085  <S**2>=0.000
     309 -> 313        0.63912
     311 -> 315        0.27451

 Excited State   4:      Singlet-A      2.2110 eV  560.76 nm  f=0.1045  <S**2>=0.000
     310 -> 314        0.62622
     312 -> 316       -0.31136

 Excited State   5:      Singlet-A      3.4378 eV  360.65 nm  f=0.0000  <S**2>=0.000
     312 -> 313        0.70694

 The electronic state is 1-A.
 Alpha  occ. eigenvalues --  -46.96574 -46.94921 -19.30085 -19.29844 -19.25328
 Alpha  occ. eigenvalues --  -19.25011 -19.24180 -19.24033 -19.23234 -19.22298
 Alpha  occ. eigenvalues --  -14.47706 -14.46978 -14.46466 -14.46408 -14.45090
 Alpha  occ. eigenvalues --  -14.44279 -14.44164 -14.44095 -10.43546 -10.43076
 Alpha  occ. eigenvalues --  -10.39004 -10.38715 -10.38547 -10.38068 -10.36969
 Alpha  occ. eigenvalues --  -10.35818 -10.35239 -10.35230 -10.35206 -10.35199
 Alpha  occ. eigenvalues --  -10.34952 -10.34821 -10.34640 -10.34633 -10.34611
 Alpha  occ. eigenvalues --  -10.34582 -10.34524 -10.34491 -10.34383 -10.33979
 Alpha  occ. eigenvalues --  -10.33771 -10.33425 -10.33311 -10.33248 -10.32849
 Alpha  occ. eigenvalues --  -10.32849 -10.32832 -10.32549 -10.32536 -10.32479
 Alpha  occ. eigenvalues --  -10.32442 -10.32297 -10.32276 -10.32209 -10.32167
 Alpha  occ. eigenvalues --  -10.32075 -10.31866 -10.31864 -10.31660 -10.31506
 Alpha  occ. eigenvalues --  -10.31505 -10.31080 -10.31048 -10.31037 -10.30970
 Alpha  occ. eigenvalues --  -10.30945 -10.30840 -10.30765 -10.30687 -10.30644
 Alpha  occ. eigenvalues --  -10.30522 -10.30469 -10.30398 -10.30356 -10.30263
 Alpha  occ. eigenvalues --  -10.30088 -10.29945 -10.29939 -10.29789 -10.29641
 Alpha  occ. eigenvalues --  -10.29419 -10.29383 -10.29348 -10.29168 -10.29105
 Alpha  occ. eigenvalues --  -10.28627  -3.22447  -3.20991  -1.96008  -1.95597
 Alpha  occ. eigenvalues --   -1.95379  -1.94544  -1.94121  -1.93980  -1.19405
 Alpha  occ. eigenvalues --   -1.18267  -1.12593  -1.12190  -1.11280  -1.11156
 Alpha  occ. eigenvalues --   -1.09668  -1.09520  -1.06963  -1.06575  -1.06419
 Alpha  occ. eigenvalues --   -1.06018  -1.05627  -1.05310  -1.04634  -1.04136
 Alpha  occ. eigenvalues --   -0.95148  -0.94960  -0.91731  -0.91513  -0.91285
 Alpha  occ. eigenvalues --   -0.91214  -0.90806  -0.90275  -0.90240  -0.89578
 Alpha  occ. eigenvalues --   -0.89433  -0.88266  -0.87738  -0.87085  -0.86628
 Alpha  occ. eigenvalues --   -0.86469  -0.86025  -0.85990  -0.84719  -0.84616
 Alpha  occ. eigenvalues --   -0.84322  -0.83584  -0.83359  -0.82804  -0.82452
 Alpha  occ. eigenvalues --   -0.82174  -0.80359  -0.79862  -0.79424  -0.79253
 Alpha  occ. eigenvalues --   -0.78764  -0.78742  -0.78213  -0.77968  -0.77110
 Alpha  occ. eigenvalues --   -0.77076  -0.75309  -0.74674  -0.73846  -0.73638
 Alpha  occ. eigenvalues --   -0.71541  -0.71524  -0.70797  -0.70771  -0.70535
 Alpha  occ. eigenvalues --   -0.70237  -0.69073  -0.68730  -0.67870  -0.67765
 Alpha  occ. eigenvalues --   -0.67533  -0.67058  -0.66724  -0.66509  -0.66444
 Alpha  occ. eigenvalues --   -0.66352  -0.65270  -0.64093  -0.62801  -0.61958
 Alpha  occ. eigenvalues --   -0.61894  -0.61409  -0.61000  -0.60908  -0.60833
 Alpha  occ. eigenvalues --   -0.60433  -0.60090  -0.59905  -0.59381  -0.59142
 Alpha  occ. eigenvalues --   -0.58519  -0.58194  -0.58007  -0.57507  -0.57505
 Alpha  occ. eigenvalues --   -0.57349  -0.57044  -0.56627  -0.56544  -0.56395
 Alpha  occ. eigenvalues --   -0.56006  -0.55760  -0.55359  -0.55125  -0.54980
 Alpha  occ. eigenvalues --   -0.54786  -0.54693  -0.54502  -0.54280  -0.54195
 Alpha  occ. eigenvalues --   -0.54066  -0.53987  -0.53505  -0.53329  -0.53318
 Alpha  occ. eigenvalues --   -0.53168  -0.53049  -0.52860  -0.52751  -0.52523
 Alpha  occ. eigenvalues --   -0.52154  -0.52081  -0.51803  -0.51540  -0.51357
 Alpha  occ. eigenvalues --   -0.51327  -0.51199  -0.51083  -0.50832  -0.50830
 Alpha  occ. eigenvalues --   -0.50669  -0.50637  -0.50530  -0.50374  -0.50266
 Alpha  occ. eigenvalues --   -0.50144  -0.49461  -0.49445  -0.49259  -0.49114
 Alpha  occ. eigenvalues --   -0.49022  -0.49020  -0.48803  -0.48718  -0.48710
 Alpha  occ. eigenvalues --   -0.48648  -0.48294  -0.47990  -0.47932  -0.47810
 Alpha  occ. eigenvalues --   -0.47756  -0.47558  -0.47407  -0.47158  -0.47077
 Alpha  occ. eigenvalues --   -0.46861  -0.46740  -0.46575  -0.46440  -0.46297
 Alpha  occ. eigenvalues --   -0.46272  -0.46008  -0.45821  -0.45637  -0.45522
 Alpha  occ. eigenvalues --   -0.45470  -0.45134  -0.44680  -0.44605  -0.44507
 Alpha  occ. eigenvalues --   -0.44447  -0.44370  -0.44097  -0.44065  -0.44056
 Alpha  occ. eigenvalues --   -0.43974  -0.43789  -0.43764  -0.43317  -0.43035
 Alpha  occ. eigenvalues --   -0.42772  -0.42661  -0.42650  -0.42505  -0.42280
 Alpha  occ. eigenvalues --   -0.41883  -0.41735  -0.41682  -0.41000  -0.40899
 Alpha  occ. eigenvalues --   -0.40576  -0.40393  -0.40003  -0.39790  -0.39698
 Alpha  occ. eigenvalues --   -0.39302  -0.39056  -0.38709  -0.38463  -0.38417
 Alpha  occ. eigenvalues --   -0.38299  -0.37695  -0.37040  -0.36721  -0.36218
 Alpha  occ. eigenvalues --   -0.36198  -0.36148  -0.35279  -0.33695  -0.33561
 Alpha  occ. eigenvalues --   -0.33114  -0.33102  -0.33044  -0.32448  -0.32055
 Alpha  occ. eigenvalues --   -0.31922  -0.31809  -0.31029  -0.26768  -0.26209
 Alpha  occ. eigenvalues --   -0.23374  -0.22832
 Alpha virt. eigenvalues --   -0.07784  -0.07102   0.00130   0.00145   0.02093
 Alpha virt. eigenvalues --    0.02312   0.03909   0.04457   0.04507   0.04669
 Alpha virt. eigenvalues --    0.07287   0.07596   0.07716   0.07788   0.08130

 Mulliken charges:
               1
     1  Mg   0.971202
     2  C   -0.073577
     3  C   -0.088899
     4  C   -0.070149
     5  C   -0.087506
     6  N   -0.366617
     7  C    0.021231
     8  C   -0.041232
     9  C   -0.131907
    10  C    0.060089
    11  C    0.036721
    12  C   -0.026156
    13  C   -0.106233
    14  H    0.042205
    15  N   -0.438611
    16  C    0.155284
    17  C   -0.199066
    18  C   -0.050426
    19  C    0.165431
    20  C    0.110609
    21  C    0.017512
    22  O   -0.237368
    23  C   -0.009471
    24  N   -0.356826
    25  C    0.045888
    26  C   -0.080067
    27  C   -0.111535
    28  C    0.037328
    29  C    0.042922
    30  C    0.014704
    31  C   -0.045971
    32  N   -0.434745
    33  C    0.148045
    34  C   -0.205127
    35  C   -0.044439
    36  C    0.163150
    37  C    0.102197
    38  C    0.124307
    39  O   -0.207051
    40  C   -0.072882
    41  C    0.257871
    42  O   -0.209947
    43  O   -0.375095
    44  C    0.129004
    45  H   -0.001819
    46  H   -0.030280
    47  H    0.001805
    48  H    0.040406
    49  H    0.052582
    50  H    0.037941
    51  H    0.045460
    52  H    0.046103
    53  H    0.017991
    54  H    0.023455
    55  H    0.051797
    56  H    0.057203
    57  H    0.065818
    58  H    0.021455
    59  H    0.056261
    60  H    0.066146
    61  H    0.044667
    62  H    0.054426
    63  H    0.033974
    64  H    0.029553
    65  H    0.040561
    66  H    0.046104
    67  H    0.027653
    68  H    0.057296
    69  H    0.024523
    70  H    0.038774
    71  H    0.024919
    72  H    0.036166
    73  H    0.069618
    74  H    0.037883
    75  H    0.057117
    76  H    0.064732
    77  H    0.073402
    78  H    0.055622
    79  H    0.055892
    80  Mg   0.957164
    81  C    0.004227
    82  C   -0.071751
    83  C   -0.044201
    84  C   -0.099407
    85  N   -0.349446
    86  C    0.010926
    87  C   -0.051003
    88  C   -0.100639
    89  C    0.039475
    90  C    0.023651
    91  C   -0.030443
    92  C   -0.101632
    93  H    0.062092
    94  N   -0.458950
    95  C    0.154443
    96  C   -0.150671
    97  C   -0.094721
    98  C    0.205687
    99  C    0.091502
   100  C    0.063130
   101  O   -0.267613
   102  C    0.000087
   103  N   -0.297894
   104  C    0.011057
   105  C   -0.080655
   106  C   -0.046015
   107  C    0.048219
   108  C    0.002615
   109  C   -0.042685
   110  C   -0.064998
   111  N   -0.464675
   112  C    0.133644
   113  C   -0.171503
   114  C   -0.013240
   115  C    0.155398
   116  C    0.081438
   117  C    0.117780
   118  O   -0.220586
   119  C   -0.108106
   120  C    0.242780
   121  O   -0.244138
   122  O   -0.368859
   123  C    0.139856
   124  H    0.012519
   125  H   -0.042894
   126  H    0.000430
   127  H    0.052525
   128  H    0.038895
   129  H    0.039664
   130  H    0.036007
   131  H    0.041278
   132  H    0.057152
   133  H    0.041358
   134  H    0.052293
   135  H    0.036401
   136  H    0.060957
   137  H    0.047022
   138  H    0.001165
   139  H    0.063305
   140  H    0.040785
   141  H    0.054480
   142  H    0.045140
   143  H    0.032376
   144  H    0.028363
   145  H    0.031427
   146  H    0.039310
   147  H    0.036113
   148  H    0.040890
   149  H    0.033138
   150  H    0.036111
   151  H    0.047730
   152  H    0.043577
   153  H    0.066705
   154  H    0.074403
   155  H    0.058489
   156  H    0.052540
   157  H    0.037608
   158  H    0.061401
 Sum of Mulliken charges =  -0.00000

 Dipole moment (field-independent basis, Debye):
    X=              1.1550    Y=              4.1100    Z=             -5.1319  Tot=              6.6755
 Quadrupole moment (field-independent basis, Debye-Ang):
   XX=           -484.8919   YY=           -493.5541   ZZ=           -504.3632
   XY=             57.6182   XZ=            -12.8722   YZ=             -8.8973

 Normal termination of Gaussian 16 at Sat Sep 18 14:19:26 2021.
