 Gaussian 16, Revision A.03,
 Gaussian 16:  ES64L-G16RevA.03 25-Dec-2016

 --------------------------------
 #p wB97XD/Def2SVP td=(nstates=5)
 --------------------------------

 --------------------------------
 TDDFT excited states in gaussian
 --------------------------------
 Symbolic Z-matrix:
 Charge =  0 Multiplicity = 1

                         Standard orientation:
 ---------------------------------------------------------------------
 Center     Atomic      Atomic             Coordinates (Angstroms)
 Number     Number       Type             X           Y           Z
 ---------------------------------------------------------------------
      1         12           0      -13.395885    0.577242   -0.013860
      2          6           0      -11.206950   -1.942552   -0.575928
      3          6           0      -16.012155   -1.706881    0.037659
      4          6           0      -15.585751    3.098516    0.542131
      5          6           0      -10.875596    2.888553   -0.551475
      6          7           0      -13.500215   -1.522177   -0.136786
      7          6           0      -12.499082   -2.398437   -0.403786
      8          6           0      -12.934152   -3.832761   -0.252687
      9          6           0      -14.505373   -3.741365   -0.332821
     10          6           0      -14.689660   -2.206342   -0.097236
     11          6           0      -15.279495   -4.327657   -1.586518
     12          6           0      -12.493228   -4.439660    1.154798
     13          6           0      -12.375269   -5.992074    1.124231
     14          1           0      -13.199427   -6.850295    0.149877
     15          7           0      -15.546453    0.734725    0.182688
     16          6           0      -16.427234   -0.378567    0.181224
     17          6           0      -17.768808    0.075280    0.392168
     18          6           0      -17.681328    1.506483    0.529859
     19          6           0      -16.208735    1.809112    0.430912
     20          6           0      -18.953577   -0.815082    0.531126
     21          6           0      -18.792090    2.524373    0.763284
     22          8           0      -18.653181    3.782734    0.759477
     23          6           0      -20.210289    2.036436    1.005839
     24          7           0      -13.279207    2.680149   -0.070993
     25          6           0      -14.287494    3.530634    0.385304
     26          6           0      -13.823844    4.986472    0.679981
     27          6           0      -12.238637    4.817471    0.338897
     28          6           0      -12.086037    3.404216   -0.090198
     29          6           0      -14.574783    5.948935   -0.249103
     30          6           0      -11.319196    5.232778    1.449335
     31          6           0      -10.319320    6.276460    1.040760
     32          7           0      -11.517750    0.605997   -0.563559
     33          6           0      -10.555581    1.594372   -0.729739
     34          6           0       -9.314020    1.012732   -1.083528
     35          6           0       -9.489195   -0.397198   -1.091366
     36          6           0      -10.816415   -0.616365   -0.665937
     37          6           0       -8.018139    1.673442   -1.359337
     38          6           0       -8.870715   -1.662388   -1.421838
     39          8           0       -7.793698   -2.002370   -1.871177
     40          6           0      -10.002176   -2.717468   -1.005746
     41          6           0      -10.103018   -3.847470   -1.966016
     42          8           0      -10.084736   -3.773839   -3.168122
     43          8           0      -10.185645   -5.046431   -1.368627
     44          6           0      -10.302927   -6.196820   -2.309299
     45          1           0      -16.767653   -2.475849   -0.137325
     46          1           0      -16.317631    3.907517    0.588575
     47          1           0      -10.003612    3.541698   -0.624631
     48          1           0      -12.658878   -4.444112   -1.111926
     49          1           0      -14.919491   -4.208106    0.560336
     50          1           0      -14.543998   -4.834404   -2.211410
     51          1           0      -15.847176   -3.631093   -2.201439
     52          1           0      -16.030787   -5.012238   -1.192349
     53          1           0      -13.249975   -4.076358    1.850322
     54          1           0      -11.524397   -4.005680    1.402343
     55          1           0      -12.621945   -6.260499    2.151624
     56          1           0      -11.311420   -6.212176    1.039487
     57          1           0      -19.104707   -1.253673    1.517532
     58          1           0      -18.828809   -1.579002   -0.235287
     59          1           0      -19.875194   -0.362907    0.165913
     60          1           0      -20.635542    1.856637    0.018570
     61          1           0      -20.719344    2.880613    1.470301
     62          1           0      -20.270836    1.118440    1.590672
     63          1           0      -14.128109    5.195671    1.705603
     64          1           0      -11.999195    5.460815   -0.508462
     65          1           0      -15.173487    5.484607   -1.032998
     66          1           0      -13.877431    6.703441   -0.612367
     67          1           0      -15.318338    6.442752    0.377162
     68          1           0      -10.698041    4.417818    1.821198
     69          1           0      -11.822283    5.605101    2.341825
     70          1           0      -10.267077    7.114459    1.735247
     71          1           0      -10.557893    6.693692    0.062805
     72          1           0       -9.393950    5.716486    0.902618
     73          1           0       -8.072285    2.670352   -1.797773
     74          1           0       -7.641594    1.125878   -2.223814
     75          1           0       -7.398058    1.666723   -0.462861
     76          1           0       -9.500124   -3.092936   -0.113606
     77          1           0       -9.344810   -6.455805   -2.762134
     78          1           0      -11.121489   -6.063339   -3.016774
     79          1           0      -10.599338   -7.074532   -1.734440
     80         12           0       13.216943    0.650577   -0.368103
     81          6           0       11.476004   -1.995300    1.348656
     82          6           0       15.103324   -1.636529   -1.906449
     83          6           0       15.299794    3.142718   -1.193764
     84          6           0       11.465566    2.889111    1.687598
     85          7           0       13.300679   -1.518954   -0.234194
     86          6           0       12.394960   -2.412903    0.361974
     87          6           0       12.645446   -3.892095   -0.121560
     88          6           0       13.846795   -3.725867   -1.100690
     89          6           0       14.073873   -2.191036   -1.134202
     90          6           0       15.113300   -4.476659   -0.776227
     91          6           0       11.318824   -4.579953   -0.750972
     92          6           0       10.938214   -5.938091   -0.148687
     93          1           0       10.873261   -7.108053   -1.199557
     94          7           0       14.896820    0.755725   -1.531224
     95          6           0       15.543095   -0.278350   -2.079132
     96          6           0       16.732909    0.157068   -2.812516
     97          6           0       16.825627    1.559411   -2.509569
     98          6           0       15.651856    1.889878   -1.694621
     99          6           0       17.577575   -0.751988   -3.597619
    100          6           0       18.036220    2.456620   -2.917367
    101          8           0       18.052960    3.656764   -2.700766
    102          6           0       19.242003    1.919078   -3.619869
    103          7           0       13.338142    2.650740    0.162095
    104          6           0       14.243184    3.524948   -0.430226
    105          6           0       13.983878    4.997095    0.029908
    106          6           0       12.545449    4.914448    0.664275
    107          6           0       12.394607    3.400193    0.807940
    108          6           0       15.092617    5.703697    0.875971
    109          6           0       11.422229    5.513943   -0.225478
    110          6           0       10.317415    6.299748    0.434532
    111          7           0       11.803288    0.513458    1.237404
    112          6           0       11.198378    1.505110    1.956205
    113          6           0       10.127778    0.876549    2.847021
    114          6           0       10.170285   -0.474638    2.601633
    115          6           0       11.249978   -0.656545    1.670805
    116          6           0        9.185752    1.698843    3.696648
    117          6           0        9.632925   -1.784845    2.922725
    118          8           0        8.700999   -1.979924    3.730783
    119          6           0       10.560775   -2.904019    2.156910
    120          6           0       11.382106   -3.784045    3.075885
    121          8           0       12.144571   -3.283840    3.926353
    122          8           0       11.041572   -5.133206    2.969993
    123          6           0       11.502666   -5.911479    4.113776
    124          1           0       15.683544   -2.324382   -2.524704
    125          1           0       15.992263    3.901747   -1.562745
    126          1           0       10.878188    3.653278    2.201820
    127          1           0       12.900490   -4.400851    0.807867
    128          1           0       13.530427   -4.238208   -2.010312
    129          1           0       15.056105   -5.030948    0.160670
    130          1           0       15.764886   -3.632322   -0.553781
    131          1           0       15.407290   -5.183252   -1.552955
    132          1           0       11.568203   -4.653454   -1.809146
    133          1           0       10.497487   -3.864927   -0.711750
    134          1           0       10.003385   -5.787011    0.391098
    135          1           0       11.695220   -6.230319    0.580203
    136          1           0       18.644682   -0.824318   -3.389834
    137          1           0       17.648686   -0.275453   -4.574688
    138          1           0       17.130792   -1.716482   -3.839938
    139          1           0       18.864356    1.520341   -4.562170
    140          1           0       19.591056    1.070742   -3.030485
    141          1           0       19.937887    2.754232   -3.689128
    142          1           0       13.912353    5.548303   -0.907755
    143          1           0       12.506311    5.307478    1.679924
    144          1           0       15.927403    5.003449    0.856718
    145          1           0       14.776665    5.991185    1.878372
    146          1           0       15.521870    6.561077    0.356090
    147          1           0       11.050482    4.575928   -0.637380
    148          1           0       11.774277    6.110597   -1.067253
    149          1           0       10.152798    7.165675   -0.206803
    150          1           0       10.591110    6.680067    1.419210
    151          1           0        9.416033    5.696784    0.322044
    152          1           0        9.463322    2.744167    3.562400
    153          1           0        9.385892    1.468181    4.742756
    154          1           0        8.154991    1.450185    3.444865
    155          1           0        9.917959   -3.485200    1.495757
    156          1           0       10.718246   -6.280001    4.773363
    157          1           0       12.235662   -5.397897    4.736074
    158          1           0       12.017353   -6.778355    3.700177
 ---------------------------------------------------------------------

 SCF Done:  E(RwB97XD) =  -4070.59862280     A.U. after   19 cycles

 Excitation energies and oscillator strengths:

 Excited State   1:      Singlet-A      1.5872 eV  781.14 nm  f=0.4312  <S**2>=0.000
     309 -> 315       -0.17549
     311 -> 313        0.68566
     309 <- 315       -0.11648
 This state for optimization and/or second-order correction.
 Total Energy, E(TD-HF/TD-DFT) =  -4070.54029371
 Copying the excited state density for this state as the 1-particle RhoCI density.

 Excited State   2:      Singlet-A      1.6414 eV  755.36 nm  f=0.3821  <S**2>=0.000
     310 -> 316       -0.17840
     312 -> 314        0.68497
     310 <- 316       -0.11657

 Excited State   3:      Singlet-A      2.1692 eV  571.57 nm  f=0.1072  <S**2>=0.000
     309 -> 313        0.63604
     311 -> 315        0.29408

 Excited State   4:      Singlet-A      2.2310 eV  555.74 nm  f=0.0895  <S**2>=0.000
     310 -> 314        0.62834
     312 -> 316        0.31479

 Excited State   5:      Singlet-A      3.6004 eV  344.36 nm  f=0.0000  <S**2>=0.000
     312 -> 313        0.70698

 The electronic state is 1-A.
 Alpha  occ. eigenvalues --  -46.94690 -46.93492 -19.31888 -19.30355 -19.25772
 Alpha  occ. eigenvalues --  -19.25013 -19.24266 -19.23681 -19.23541 -19.23482
 Alpha  occ. eigenvalues --  -14.47448 -14.47134 -14.46284 -14.46199 -14.44254
 Alpha  occ. eigenvalues --  -14.44099 -14.43881 -14.43392 -10.44672 -10.42403
 Alpha  occ. eigenvalues --  -10.40557 -10.39209 -10.39158 -10.38812 -10.35801
 Alpha  occ. eigenvalues --  -10.35618 -10.35441 -10.35367 -10.34937 -10.34907
 Alpha  occ. eigenvalues --  -10.34705 -10.34687 -10.34504 -10.34309 -10.34108
 Alpha  occ. eigenvalues --  -10.34065 -10.33986 -10.33883 -10.33715 -10.33428
 Alpha  occ. eigenvalues --  -10.33313 -10.33134 -10.33009 -10.32952 -10.32950
 Alpha  occ. eigenvalues --  -10.32878 -10.32823 -10.32591 -10.32292 -10.32288
 Alpha  occ. eigenvalues --  -10.32176 -10.32127 -10.32085 -10.31897 -10.31895
 Alpha  occ. eigenvalues --  -10.31792 -10.31745 -10.31686 -10.31586 -10.31577
 Alpha  occ. eigenvalues --  -10.31530 -10.31456 -10.31369 -10.31242 -10.31202
 Alpha  occ. eigenvalues --  -10.31131 -10.30959 -10.30947 -10.30668 -10.30499
 Alpha  occ. eigenvalues --  -10.30000 -10.29958 -10.29952 -10.29788 -10.29770
 Alpha  occ. eigenvalues --  -10.29696 -10.29621 -10.29484 -10.29429 -10.29321
 Alpha  occ. eigenvalues --  -10.29317 -10.29291 -10.29268 -10.29189 -10.29153
 Alpha  occ. eigenvalues --  -10.28904  -3.20764  -3.19743  -1.94336  -1.93873
 Alpha  occ. eigenvalues --   -1.93765  -1.93332  -1.92856  -1.92764  -1.19462
 Alpha  occ. eigenvalues --   -1.18483  -1.12370  -1.12240  -1.11290  -1.10124
 Alpha  occ. eigenvalues --   -1.09613  -1.09437  -1.06506  -1.05875  -1.05590
 Alpha  occ. eigenvalues --   -1.05279  -1.04714  -1.04584  -1.03860  -1.03410
 Alpha  occ. eigenvalues --   -0.95344  -0.94585  -0.91570  -0.90945  -0.90714
 Alpha  occ. eigenvalues --   -0.90552  -0.90431  -0.89872  -0.89582  -0.89235
 Alpha  occ. eigenvalues --   -0.89157  -0.89087  -0.88347  -0.88027  -0.86223
 Alpha  occ. eigenvalues --   -0.86141  -0.85708  -0.85508  -0.84568  -0.84366
 Alpha  occ. eigenvalues --   -0.83788  -0.83576  -0.83114  -0.82990  -0.82453
 Alpha  occ. eigenvalues --   -0.82145  -0.80333  -0.80296  -0.79695  -0.79489
 Alpha  occ. eigenvalues --   -0.79258  -0.78824  -0.78449  -0.78094  -0.77144
 Alpha  occ. eigenvalues --   -0.76602  -0.74864  -0.74407  -0.73803  -0.72900
 Alpha  occ. eigenvalues --   -0.71062  -0.70963  -0.70578  -0.70285  -0.70128
 Alpha  occ. eigenvalues --   -0.69779  -0.68667  -0.68629  -0.67774  -0.67290
 Alpha  occ. eigenvalues --   -0.67216  -0.66890  -0.66850  -0.66761  -0.66311
 Alpha  occ. eigenvalues --   -0.66070  -0.64546  -0.64314  -0.62320  -0.62204
 Alpha  occ. eigenvalues --   -0.61874  -0.61700  -0.60923  -0.60837  -0.60452
 Alpha  occ. eigenvalues --   -0.60351  -0.60293  -0.59951  -0.59707  -0.59269
 Alpha  occ. eigenvalues --   -0.58202  -0.58065  -0.57360  -0.57342  -0.57143
 Alpha  occ. eigenvalues --   -0.57007  -0.56974  -0.56806  -0.55845  -0.55657
 Alpha  occ. eigenvalues --   -0.55395  -0.55268  -0.55065  -0.54945  -0.54796
 Alpha  occ. eigenvalues --   -0.54492  -0.54441  -0.54352  -0.54312  -0.54092
 Alpha  occ. eigenvalues --   -0.53892  -0.53709  -0.53498  -0.53395  -0.53232
 Alpha  occ. eigenvalues --   -0.53134  -0.53071  -0.53010  -0.52727  -0.52226
 Alpha  occ. eigenvalues --   -0.52136  -0.52002  -0.51916  -0.51584  -0.51511
 Alpha  occ. eigenvalues --   -0.51291  -0.51019  -0.50933  -0.50783  -0.50679
 Alpha  occ. eigenvalues --   -0.50522  -0.50297  -0.50210  -0.50121  -0.50031
 Alpha  occ. eigenvalues --   -0.49890  -0.49820  -0.49740  -0.49242  -0.49133
 Alpha  occ. eigenvalues --   -0.49116  -0.48880  -0.48637  -0.48620  -0.48529
 Alpha  occ. eigenvalues --   -0.48378  -0.48286  -0.47905  -0.47840  -0.47827
 Alpha  occ. eigenvalues --   -0.47549  -0.47272  -0.47132  -0.46837  -0.46697
 Alpha  occ. eigenvalues --   -0.46462  -0.46452  -0.46269  -0.46022  -0.45982
 Alpha  occ. eigenvalues --   -0.45897  -0.45814  -0.45670  -0.45506  -0.45450
 Alpha  occ. eigenvalues --   -0.45195  -0.45108  -0.45102  -0.44905  -0.44768
 Alpha  occ. eigenvalues --   -0.44544  -0.44352  -0.44240  -0.43966  -0.43826
 Alpha  occ. eigenvalues --   -0.43679  -0.43583  -0.43316  -0.42980  -0.42941
 Alpha  occ. eigenvalues --   -0.42821  -0.42636  -0.42489  -0.42409  -0.42311
 Alpha  occ. eigenvalues --   -0.42264  -0.42041  -0.41911  -0.41373  -0.40981
 Alpha  occ. eigenvalues --   -0.40191  -0.40154  -0.39871  -0.39695  -0.39620
 Alpha  occ. eigenvalues --   -0.39435  -0.39381  -0.39157  -0.38972  -0.38629
 Alpha  occ. eigenvalues --   -0.38446  -0.37983  -0.37036  -0.36607  -0.36383
 Alpha  occ. eigenvalues --   -0.36194  -0.35418  -0.35109  -0.33669  -0.33656
 Alpha  occ. eigenvalues --   -0.33457  -0.32801  -0.32632  -0.32561  -0.32527
 Alpha  occ. eigenvalues --   -0.32121  -0.31887  -0.31742  -0.26219  -0.26046
 Alpha  occ. eigenvalues --   -0.22823  -0.22527
 Alpha virt. eigenvalues --   -0.07310  -0.06714   0.00310   0.00645   0.02029
 Alpha virt. eigenvalues --    0.02181   0.04336   0.04351   0.04935   0.05175
 Alpha virt. eigenvalues --    0.06141   0.07061   0.07453   0.07863   0.08043

 Mulliken charges:
               1
     1  Mg   0.985520
     2  C    0.012917
     3  C   -0.095392
     4  C   -0.062396
     5  C   -0.128201
     6  N   -0.378314
     7  C   -0.008545
     8  C   -0.043353
     9  C   -0.122000
    10  C    0.057894
    11  C    0.021174
    12  C    0.005403
    13  C   -0.092542
    14  H    0.043376
    15  N   -0.389451
    16  C    0.164120
    17  C   -0.155452
    18  C   -0.073789
    19  C    0.099890
    20  C    0.064876
    21  C    0.052951
    22  O   -0.274753
    23  C   -0.022278
    24  N   -0.391975
    25  C    0.057974
    26  C   -0.092139
    27  C   -0.027191
    28  C    0.108862
    29  C    0.008997
    30  C   -0.008545
    31  C   -0.062958
    32  N   -0.527639
    33  C    0.190019
    34  C   -0.191419
    35  C   -0.054941
    36  C    0.141423
    37  C    0.072823
    38  C    0.153148
    39  O   -0.183065
    40  C   -0.107235
    41  C    0.224548
    42  O   -0.229981
    43  O   -0.358785
    44  C    0.140890
    45  H   -0.003582
    46  H    0.017237
    47  H   -0.016885
    48  H    0.024490
    49  H    0.035462
    50  H    0.042305
    51  H    0.048394
    52  H    0.037232
    53  H    0.035736
    54  H    0.041560
    55  H    0.044313
    56  H    0.060689
    57  H    0.073844
    58  H    0.034822
    59  H    0.031851
    60  H    0.066641
    61  H    0.059197
    62  H    0.050486
    63  H    0.056069
    64  H    0.035197
    65  H    0.060683
    66  H    0.037186
    67  H    0.041375
    68  H    0.033320
    69  H    0.028332
    70  H    0.043815
    71  H    0.022234
    72  H    0.037666
    73  H    0.026834
    74  H    0.061409
    75  H    0.068552
    76  H    0.069377
    77  H    0.070801
    78  H    0.058485
    79  H    0.040406
    80  Mg   0.976212
    81  C   -0.099656
    82  C   -0.080681
    83  C   -0.088239
    84  C   -0.101408
    85  N   -0.370334
    86  C   -0.011363
    87  C   -0.072391
    88  C   -0.107104
    89  C    0.104477
    90  C    0.024253
    91  C    0.006592
    92  C   -0.108789
    93  H    0.027797
    94  N   -0.454638
    95  C    0.114092
    96  C   -0.149558
    97  C   -0.076321
    98  C    0.118116
    99  C    0.069318
   100  C    0.031528
   101  O   -0.238405
   102  C    0.011800
   103  N   -0.401090
   104  C    0.093370
   105  C   -0.058161
   106  C   -0.103764
   107  C    0.063953
   108  C    0.035213
   109  C   -0.016677
   110  C   -0.026235
   111  N   -0.388540
   112  C    0.149261
   113  C   -0.228816
   114  C    0.015774
   115  C    0.154174
   116  C    0.098512
   117  C    0.146934
   118  O   -0.221134
   119  C   -0.037520
   120  C    0.292904
   121  O   -0.256425
   122  O   -0.367118
   123  C    0.121140
   124  H   -0.014072
   125  H    0.016057
   126  H   -0.003814
   127  H    0.041547
   128  H    0.034254
   129  H    0.028831
   130  H    0.041511
   131  H    0.042973
   132  H    0.032089
   133  H    0.038160
   134  H    0.064455
   135  H    0.054339
   136  H    0.046731
   137  H    0.028283
   138  H    0.042650
   139  H    0.049444
   140  H    0.052003
   141  H    0.067659
   142  H    0.030986
   143  H    0.029090
   144  H    0.038544
   145  H    0.045247
   146  H    0.035446
   147  H    0.029495
   148  H    0.034951
   149  H    0.028916
   150  H    0.041718
   151  H    0.043954
   152  H    0.022954
   153  H    0.058886
   154  H    0.067270
   155  H    0.058400
   156  H    0.063415
   157  H    0.071981
   158  H    0.044596
 Sum of Mulliken charges =  -0.00000

 Dipole moment (field-independent basis, Debye):
    X=             -2.3412    Y=             -3.4237    Z=              0.1024  Tot=              4.1489
 Quadrupole moment (field-independent basis, Debye-Ang):
   XX=           -446.6280   YY=           -457.9938   ZZ=           -523.7307
   XY=             18.9009   XZ=            -72.4734   YZ=              7.2568

 Normal termination of Gaussian 16 at Sun Sep 19 23:55:19 2021.
