 Gaussian 16, Revision A.03,
 Gaussian 16:  ES64L-G16RevA.03 25-Dec-2016

 --------------------------------
 #p wB97XD/Def2SVP td=(nstates=5)
 --------------------------------

 --------------------------------
 TDDFT excited states in gaussian
 --------------------------------
 Symbolic Z-matrix:
 Charge =  0 Multiplicity = 1

                         Standard orientation:
 ---------------------------------------------------------------------
 Center     Atomic      Atomic             Coordinates (Angstroms)
 Number     Number       Type             X           Y           Z
 ---------------------------------------------------------------------
      1         12           0      -28.868136   -0.275176   -0.075659
      2          6           0      -26.013499    1.448172   -0.762035
      3          6           0      -26.864909   -2.847724    1.106847
      4          6           0      -31.676860   -1.804034    0.947211
      5          6           0      -30.777949    2.621806   -0.663776
      6          7           0      -26.673297   -0.533727    0.380199
      7          6           0      -25.729811    0.326199   -0.053088
      8          6           0      -24.360718   -0.075893    0.358351
      9          6           0      -24.638589   -1.682506    0.630531
     10          6           0      -26.178615   -1.728016    0.718713
     11          6           0      -24.012578   -2.598087   -0.462545
     12          6           0      -23.965650    0.668329    1.623980
     13          6           0      -24.909021    0.576168    2.911340
     14          1           0      -24.303306    0.452999    4.303940
     15          7           0      -29.231565   -2.061772    0.887403
     16          6           0      -28.274769   -3.067312    1.176729
     17          6           0      -28.997643   -4.227943    1.577400
     18          6           0      -30.363100   -3.972175    1.598743
     19          6           0      -30.520363   -2.594998    1.101521
     20          6           0      -28.208254   -5.475951    1.916711
     21          6           0      -31.462183   -4.879094    2.098485
     22          8           0      -31.088878   -5.997736    2.531498
     23          6           0      -32.821491   -4.510943    2.312456
     24          7           0      -30.904687    0.421594    0.311931
     25          6           0      -31.890110   -0.448858    0.674645
     26          6           0      -33.262456    0.261145    0.759865
     27          6           0      -32.934117    1.697954    0.230940
     28          6           0      -31.433206    1.612778    0.010920
     29          6           0      -34.358282   -0.447782   -0.007039
     30          6           0      -33.381617    2.832477    1.298713
     31          6           0      -34.043780    4.061054    0.664585
     32          7           0      -28.540933    1.723900   -0.628963
     33          6           0      -29.381190    2.715131   -1.024020
     34          6           0      -28.574116    3.714915   -1.668952
     35          6           0      -27.201793    3.285875   -1.656772
     36          6           0      -27.249536    2.076331   -0.983591
     37          6           0      -29.030765    5.086194   -2.032729
     38          6           0      -25.833900    3.582842   -1.937351
     39          8           0      -25.444510    4.598250   -2.527842
     40          6           0      -25.036997    2.404674   -1.408450
     41          6           0      -24.276961    1.806101   -2.532661
     42          8           0      -23.506745    2.501928   -3.164770
     43          8           0      -24.462772    0.467085   -2.694182
     44          6           0      -23.699663   -0.139676   -3.786620
     45          1           0      -26.255050   -3.746841    1.215853
     46          1           0      -32.588688   -2.394299    1.057980
     47          1           0      -31.316896    3.495583   -1.036796
     48          1           0      -23.542748    0.089165   -0.342992
     49          1           0      -24.091174   -2.027963    1.508478
     50          1           0      -23.314345   -3.298641   -0.005970
     51          1           0      -23.443405   -1.948889   -1.128421
     52          1           0      -24.736310   -3.142154   -1.070816
     53          1           0      -23.766997    1.700881    1.336064
     54          1           0      -22.945025    0.320132    1.782227
     55          1           0      -25.617601   -0.252149    2.920326
     56          1           0      -25.398343    1.549531    2.891795
     57          1           0      -27.918320   -5.358649    2.961045
     58          1           0      -27.301506   -5.494229    1.313375
     59          1           0      -28.721625   -6.427632    1.776163
     60          1           0      -33.273590   -5.083281    3.123094
     61          1           0      -33.419120   -4.496656    1.400098
     62          1           0      -32.770452   -3.510168    2.739194
     63          1           0      -33.463286    0.277655    1.831647
     64          1           0      -33.370211    1.827031   -0.759459
     65          1           0      -34.058127   -1.409120   -0.423124
     66          1           0      -34.951116    0.072975   -0.758527
     67          1           0      -35.019034   -0.787202    0.791182
     68          1           0      -32.561188    3.215578    1.905624
     69          1           0      -34.045434    2.433593    2.065540
     70          1           0      -35.108194    4.026290    0.895190
     71          1           0      -33.974127    3.963046   -0.418973
     72          1           0      -33.623764    5.002218    1.019745
     73          1           0      -29.739135    5.179815   -2.854980
     74          1           0      -28.117431    5.639535   -2.254441
     75          1           0      -29.541673    5.581109   -1.206745
     76          1           0      -24.337150    2.816020   -0.680465
     77          1           0      -22.643335    0.060448   -3.604831
     78          1           0      -24.023199    0.186107   -4.775329
     79          1           0      -23.925790   -1.202697   -3.868707
     80         12           0       28.187786    0.406725    0.756054
     81          6           0       27.823632   -2.150164   -1.726794
     82          6           0       27.316352    2.687349   -1.790105
     83          6           0       29.152243    2.892046    2.652674
     84          6           0       29.343577   -1.935555    2.933286
     85          7           0       27.590627    0.239727   -1.473057
     86          6           0       27.430979   -0.921845   -2.151702
     87          6           0       26.808123   -0.612526   -3.503076
     88          6           0       26.587310    0.923992   -3.589756
     89          6           0       27.156378    1.323023   -2.214576
     90          6           0       27.315323    1.619078   -4.873849
     91          6           0       25.428197   -1.365953   -3.731064
     92          6           0       25.255575   -2.087972   -5.067789
     93          1           0       25.914451   -1.523614   -6.389994
     94          7           0       28.277568    2.519883    0.445848
     95          6           0       27.863695    3.200803   -0.601731
     96          6           0       28.104422    4.590348   -0.332164
     97          6           0       28.507621    4.758132    1.016872
     98          6           0       28.696993    3.385820    1.408065
     99          6           0       27.654769    5.704363   -1.276061
    100          6           0       28.645477    5.955298    1.944329
    101          8           0       29.084853    5.869377    3.076400
    102          6           0       28.145927    7.268384    1.407490
    103          7           0       29.435248    0.451461    2.380468
    104          6           0       29.514634    1.630092    3.124527
    105          6           0       29.996720    1.398629    4.582444
    106          6           0       29.875310   -0.170868    4.639848
    107          6           0       29.520859   -0.601948    3.216732
    108          6           0       31.405981    1.971953    4.790388
    109          6           0       28.702385   -0.687813    5.600209
    110          6           0       29.071870   -1.283465    6.917283
    111          7           0       28.414805   -1.598021    0.703276
    112          6           0       28.937084   -2.421285    1.677340
    113          6           0       29.090424   -3.802837    1.228948
    114          6           0       28.649455   -3.755500   -0.141630
    115          6           0       28.377740   -2.398365   -0.435292
    116          6           0       29.410996   -4.942401    2.127038
    117          6           0       28.330676   -4.550428   -1.317644
    118          8           0       28.417745   -5.786370   -1.434653
    119          6           0       27.789539   -3.509501   -2.453885
    120          6           0       28.741723   -3.624701   -3.547147
    121          8           0       29.933749   -3.446716   -3.423281
    122          8           0       28.133013   -3.937661   -4.697145
    123          6           0       28.892515   -4.172410   -5.965137
    124          1           0       26.982495    3.430514   -2.517103
    125          1           0       29.104272    3.602268    3.481555
    126          1           0       29.640080   -2.661515    3.692880
    127          1           0       27.535984   -0.899286   -4.262097
    128          1           0       25.540940    1.176753   -3.761828
    129          1           0       27.492256    0.887694   -5.662497
    130          1           0       28.240470    2.036339   -4.475393
    131          1           0       26.697641    2.435279   -5.248173
    132          1           0       24.538090   -0.759825   -3.568128
    133          1           0       25.329113   -2.160602   -2.991693
    134          1           0       24.203404   -2.242334   -5.307899
    135          1           0       25.634998   -3.086117   -4.849021
    136          1           0       26.696913    6.153296   -1.012722
    137          1           0       27.704151    5.391713   -2.319528
    138          1           0       28.420814    6.476932   -1.213606
    139          1           0       27.212200    7.216364    0.846726
    140          1           0       28.843768    7.790595    0.754448
    141          1           0       27.803215    7.881422    2.241098
    142          1           0       29.294627    1.910860    5.239743
    143          1           0       30.829246   -0.566072    4.989267
    144          1           0       31.765078    2.596432    3.972473
    145          1           0       32.150792    1.182787    4.887041
    146          1           0       31.422985    2.554681    5.711970
    147          1           0       28.059326   -1.453268    5.165901
    148          1           0       27.961291    0.083044    5.808303
    149          1           0       28.681627   -0.671852    7.729754
    150          1           0       30.161663   -1.266172    6.894969
    151          1           0       28.657615   -2.287163    7.012108
    152          1           0       28.899262   -5.851507    1.813026
    153          1           0       29.202364   -4.599005    3.140108
    154          1           0       30.485700   -5.109952    2.043911
    155          1           0       26.798689   -3.783426   -2.813704
    156          1           0       29.701658   -4.878067   -5.775982
    157          1           0       29.334123   -3.259236   -6.364886
    158          1           0       28.263527   -4.467803   -6.804456
 ---------------------------------------------------------------------

 SCF Done:  E(RwB97XD) =  -4070.60396460     A.U. after   20 cycles

 Excitation energies and oscillator strengths:

 Excited State   1:      Singlet-A      1.6235 eV  763.67 nm  f=0.4004  <S**2>=0.000
     310 -> 316       -0.17886
     312 -> 314        0.68453
     310 <- 316       -0.11640
 This state for optimization and/or second-order correction.
 Total Energy, E(TD-HF/TD-DFT) =  -4070.54430068
 Copying the excited state density for this state as the 1-particle RhoCI density.

 Excited State   2:      Singlet-A      1.6885 eV  734.28 nm  f=0.3934  <S**2>=0.000
     309 -> 315        0.18194
     311 -> 313        0.68311
     309 <- 315        0.11275

 Excited State   3:      Singlet-A      2.1424 eV  578.71 nm  f=0.1288  <S**2>=0.000
     310 -> 314        0.64798
     312 -> 316        0.26646

 Excited State   4:      Singlet-A      2.1633 eV  573.13 nm  f=0.1259  <S**2>=0.000
     309 -> 313        0.64778
     311 -> 315       -0.25634

 Excited State   5:      Singlet-A      3.2087 eV  386.40 nm  f=0.0008  <S**2>=0.000
     305 -> 313       -0.33702
     308 -> 313        0.59922

 The electronic state is 1-A.
 Alpha  occ. eigenvalues --  -46.95488 -46.94969 -19.31607 -19.30460 -19.24548
 Alpha  occ. eigenvalues --  -19.24435 -19.24107 -19.23446 -19.23326 -19.23254
 Alpha  occ. eigenvalues --  -14.46687 -14.46669 -14.46486 -14.46305 -14.44463
 Alpha  occ. eigenvalues --  -14.43996 -14.43651 -14.43188 -10.43312 -10.42307
 Alpha  occ. eigenvalues --  -10.39747 -10.39532 -10.38834 -10.38454 -10.36501
 Alpha  occ. eigenvalues --  -10.36277 -10.35757 -10.35370 -10.35352 -10.35251
 Alpha  occ. eigenvalues --  -10.34789 -10.34518 -10.34502 -10.34494 -10.34268
 Alpha  occ. eigenvalues --  -10.34199 -10.33672 -10.33607 -10.33204 -10.33182
 Alpha  occ. eigenvalues --  -10.33049 -10.33018 -10.32739 -10.32627 -10.32611
 Alpha  occ. eigenvalues --  -10.32523 -10.32473 -10.32453 -10.32437 -10.32330
 Alpha  occ. eigenvalues --  -10.32259 -10.32182 -10.32160 -10.32110 -10.31991
 Alpha  occ. eigenvalues --  -10.31852 -10.31835 -10.31826 -10.31674 -10.31543
 Alpha  occ. eigenvalues --  -10.31457 -10.31386 -10.31283 -10.31207 -10.31149
 Alpha  occ. eigenvalues --  -10.30964 -10.30946 -10.30796 -10.30654 -10.30604
 Alpha  occ. eigenvalues --  -10.30440 -10.30358 -10.30304 -10.30254 -10.30233
 Alpha  occ. eigenvalues --  -10.29946 -10.29921 -10.29739 -10.29644 -10.29618
 Alpha  occ. eigenvalues --  -10.29536 -10.29438 -10.29305 -10.28830 -10.28809
 Alpha  occ. eigenvalues --  -10.28570  -3.21392  -3.21033  -1.94953  -1.94588
 Alpha  occ. eigenvalues --   -1.94531  -1.94343  -1.94166  -1.94011  -1.19594
 Alpha  occ. eigenvalues --   -1.18722  -1.13054  -1.11253  -1.10693  -1.10650
 Alpha  occ. eigenvalues --   -1.10219  -1.09554  -1.06998  -1.06681  -1.06559
 Alpha  occ. eigenvalues --   -1.05518  -1.05141  -1.04757  -1.03926  -1.03617
 Alpha  occ. eigenvalues --   -0.96065  -0.94138  -0.91256  -0.90927  -0.90650
 Alpha  occ. eigenvalues --   -0.90506  -0.90153  -0.89965  -0.89727  -0.89054
 Alpha  occ. eigenvalues --   -0.88950  -0.88360  -0.88357  -0.87797  -0.87036
 Alpha  occ. eigenvalues --   -0.86148  -0.86025  -0.86009  -0.85306  -0.84720
 Alpha  occ. eigenvalues --   -0.84558  -0.83744  -0.83410  -0.83225  -0.82872
 Alpha  occ. eigenvalues --   -0.82657  -0.80586  -0.80223  -0.79988  -0.79602
 Alpha  occ. eigenvalues --   -0.78989  -0.78798  -0.78179  -0.78076  -0.76947
 Alpha  occ. eigenvalues --   -0.76786  -0.74495  -0.74480  -0.74133  -0.73396
 Alpha  occ. eigenvalues --   -0.72097  -0.71092  -0.70805  -0.70744  -0.69750
 Alpha  occ. eigenvalues --   -0.69608  -0.69183  -0.68922  -0.68497  -0.67473
 Alpha  occ. eigenvalues --   -0.67363  -0.67224  -0.67096  -0.66626  -0.66489
 Alpha  occ. eigenvalues --   -0.66379  -0.65822  -0.64409  -0.62491  -0.62240
 Alpha  occ. eigenvalues --   -0.61725  -0.61350  -0.61173  -0.60820  -0.60749
 Alpha  occ. eigenvalues --   -0.60464  -0.60394  -0.60046  -0.60030  -0.59460
 Alpha  occ. eigenvalues --   -0.58762  -0.58594  -0.58086  -0.57791  -0.57665
 Alpha  occ. eigenvalues --   -0.57144  -0.57109  -0.56485  -0.56286  -0.56232
 Alpha  occ. eigenvalues --   -0.55717  -0.55459  -0.55444  -0.55253  -0.55042
 Alpha  occ. eigenvalues --   -0.54937  -0.54849  -0.54542  -0.54476  -0.54251
 Alpha  occ. eigenvalues --   -0.54000  -0.53827  -0.53731  -0.53358  -0.53208
 Alpha  occ. eigenvalues --   -0.53109  -0.53035  -0.52830  -0.52537  -0.52465
 Alpha  occ. eigenvalues --   -0.52340  -0.51996  -0.51925  -0.51593  -0.51448
 Alpha  occ. eigenvalues --   -0.51169  -0.51064  -0.51003  -0.50716  -0.50701
 Alpha  occ. eigenvalues --   -0.50602  -0.50486  -0.50434  -0.50324  -0.50084
 Alpha  occ. eigenvalues --   -0.50028  -0.49670  -0.49564  -0.49353  -0.49050
 Alpha  occ. eigenvalues --   -0.48674  -0.48655  -0.48528  -0.48431  -0.48395
 Alpha  occ. eigenvalues --   -0.48160  -0.48046  -0.48023  -0.47822  -0.47689
 Alpha  occ. eigenvalues --   -0.47574  -0.47223  -0.47159  -0.47034  -0.46838
 Alpha  occ. eigenvalues --   -0.46603  -0.46535  -0.46493  -0.46456  -0.46188
 Alpha  occ. eigenvalues --   -0.45751  -0.45711  -0.45537  -0.45526  -0.45262
 Alpha  occ. eigenvalues --   -0.44970  -0.44764  -0.44687  -0.44598  -0.44439
 Alpha  occ. eigenvalues --   -0.44343  -0.44248  -0.44205  -0.43851  -0.43766
 Alpha  occ. eigenvalues --   -0.43756  -0.43479  -0.43336  -0.43320  -0.43194
 Alpha  occ. eigenvalues --   -0.43093  -0.42952  -0.42907  -0.42431  -0.42365
 Alpha  occ. eigenvalues --   -0.42183  -0.41610  -0.41444  -0.41258  -0.41112
 Alpha  occ. eigenvalues --   -0.40676  -0.40281  -0.39850  -0.39813  -0.39721
 Alpha  occ. eigenvalues --   -0.39486  -0.39052  -0.39009  -0.38532  -0.38224
 Alpha  occ. eigenvalues --   -0.38117  -0.37907  -0.36735  -0.36446  -0.35993
 Alpha  occ. eigenvalues --   -0.35700  -0.35312  -0.35231  -0.34010  -0.33690
 Alpha  occ. eigenvalues --   -0.33398  -0.32835  -0.32781  -0.32411  -0.32326
 Alpha  occ. eigenvalues --   -0.32264  -0.31579  -0.31151  -0.26239  -0.25748
 Alpha  occ. eigenvalues --   -0.23492  -0.22762
 Alpha virt. eigenvalues --   -0.07512  -0.07077   0.00035   0.00804   0.02200
 Alpha virt. eigenvalues --    0.02216   0.04107   0.04158   0.04448   0.04939
 Alpha virt. eigenvalues --    0.07343   0.07371   0.07868   0.08008   0.08160

 Mulliken charges:
               1
     1  Mg   0.931670
     2  C   -0.000895
     3  C   -0.065660
     4  C   -0.091620
     5  C   -0.077509
     6  N   -0.307363
     7  C    0.004044
     8  C   -0.074640
     9  C   -0.126245
    10  C    0.080372
    11  C    0.020516
    12  C    0.008008
    13  C   -0.131083
    14  H    0.036900
    15  N   -0.514541
    16  C    0.148916
    17  C   -0.151879
    18  C   -0.055463
    19  C    0.178054
    20  C    0.087423
    21  C    0.034477
    22  O   -0.271050
    23  C    0.017071
    24  N   -0.324899
    25  C    0.043650
    26  C   -0.057492
    27  C   -0.088521
    28  C    0.106081
    29  C    0.017420
    30  C   -0.009893
    31  C   -0.055786
    32  N   -0.439724
    33  C    0.094574
    34  C   -0.179733
    35  C    0.011865
    36  C    0.117654
    37  C    0.048055
    38  C    0.070973
    39  O   -0.201915
    40  C   -0.081140
    41  C    0.257065
    42  O   -0.227864
    43  O   -0.352641
    44  C    0.138932
    45  H   -0.003832
    46  H   -0.037205
    47  H   -0.005203
    48  H    0.022111
    49  H    0.037564
    50  H    0.038103
    51  H    0.026430
    52  H    0.039084
    53  H    0.025023
    54  H    0.032714
    55  H    0.078025
    56  H    0.066410
    57  H    0.053638
    58  H    0.029897
    59  H    0.063914
    60  H    0.061119
    61  H    0.077278
    62  H    0.047622
    63  H    0.049745
    64  H    0.040767
    65  H    0.036136
    66  H    0.051929
    67  H    0.027127
    68  H    0.036488
    69  H    0.027990
    70  H    0.034961
    71  H    0.031359
    72  H    0.047281
    73  H    0.038327
    74  H    0.058165
    75  H    0.037796
    76  H    0.089618
    77  H    0.063397
    78  H    0.059060
    79  H    0.051000
    80  Mg   0.966395
    81  C   -0.049165
    82  C   -0.089746
    83  C   -0.059733
    84  C   -0.106208
    85  N   -0.317438
    86  C    0.011305
    87  C   -0.040497
    88  C   -0.105306
    89  C    0.050206
    90  C   -0.005193
    91  C   -0.008593
    92  C   -0.109759
    93  H    0.017133
    94  N   -0.388006
    95  C    0.164084
    96  C   -0.188071
    97  C   -0.059187
    98  C    0.115141
    99  C    0.051540
   100  C    0.080699
   101  O   -0.219421
   102  C   -0.036703
   103  N   -0.403548
   104  C    0.019102
   105  C   -0.074867
   106  C   -0.053980
   107  C    0.103401
   108  C    0.032759
   109  C   -0.056500
   110  C   -0.031332
   111  N   -0.481594
   112  C    0.161654
   113  C   -0.187081
   114  C   -0.019266
   115  C    0.160016
   116  C    0.089874
   117  C    0.119830
   118  O   -0.226491
   119  C   -0.061784
   120  C    0.258028
   121  O   -0.245675
   122  O   -0.357588
   123  C    0.146443
   124  H   -0.009364
   125  H    0.024541
   126  H    0.001006
   127  H    0.044163
   128  H    0.046812
   129  H    0.047914
   130  H    0.045184
   131  H    0.037825
   132  H    0.030192
   133  H    0.028298
   134  H    0.044369
   135  H    0.052390
   136  H    0.066506
   137  H    0.038144
   138  H    0.031249
   139  H    0.036001
   140  H    0.074632
   141  H    0.049260
   142  H    0.043699
   143  H    0.035649
   144  H    0.053041
   145  H    0.026331
   146  H    0.041766
   147  H    0.029349
   148  H    0.020486
   149  H    0.036578
   150  H    0.025283
   151  H    0.038910
   152  H    0.066616
   153  H    0.037257
   154  H    0.055602
   155  H    0.057924
   156  H    0.070418
   157  H    0.046841
   158  H    0.060250
 Sum of Mulliken charges =  -0.00000

 Dipole moment (field-independent basis, Debye):
    X=             -7.3475    Y=              0.3052    Z=             -0.3423  Tot=              7.3618
 Quadrupole moment (field-independent basis, Debye-Ang):
   XX=           -483.2291   YY=           -565.9687   ZZ=           -484.9549
   XY=            133.7105   XZ=            -13.9858   YZ=             12.2745

 Normal termination of Gaussian 16 at Sun Sep 19 19:04:41 2021.
