 Gaussian 16, Revision A.03,
 Gaussian 16:  ES64L-G16RevA.03 25-Dec-2016

 --------------------------------
 #p wB97XD/Def2SVP td=(nstates=5)
 --------------------------------

 --------------------------------
 TDDFT excited states in gaussian
 --------------------------------
 Symbolic Z-matrix:
 Charge =  0 Multiplicity = 1

                         Standard orientation:
 ---------------------------------------------------------------------
 Center     Atomic      Atomic             Coordinates (Angstroms)
 Number     Number       Type             X           Y           Z
 ---------------------------------------------------------------------
      1         12           0        8.429646   -0.933002   -0.277234
      2          6           0       10.329049    1.970166   -0.074171
      3          6           0        5.655943    0.854183    0.402504
      4          6           0        6.748817   -3.811882    0.293725
      5          6           0       11.431294   -2.811371   -0.152363
      6          7           0        8.127309    1.153586    0.012852
      7          6           0        8.970014    2.239249   -0.085690
      8          6           0        8.191154    3.557989    0.174680
      9          6           0        6.890391    3.015173    0.842915
     10          6           0        6.821541    1.596207    0.297808
     11          6           0        6.914036    3.002351    2.411952
     12          6           0        8.150983    4.349740   -1.145212
     13          6           0        8.390229    5.803463   -0.990928
     14          1           0        8.808130    6.492589   -2.210182
     15          7           0        6.442724   -1.377327    0.046673
     16          6           0        5.443569   -0.477516    0.237771
     17          6           0        4.182404   -1.161319    0.098653
     18          6           0        4.511977   -2.564223    0.061536
     19          6           0        5.967300   -2.635849    0.221455
     20          6           0        2.863485   -0.476611    0.143882
     21          6           0        3.603391   -3.836566    0.049484
     22          8           0        4.057113   -4.981969    0.008558
     23          6           0        2.108187   -3.725672   -0.058391
     24          7           0        9.072617   -2.978100    0.369009
     25          6           0        8.115455   -4.028759    0.399763
     26          6           0        8.727610   -5.387822    0.483521
     27          6           0       10.195879   -4.999273    0.113179
     28          6           0       10.231868   -3.475187    0.037030
     29          6           0        8.554199   -6.086680    1.874482
     30          6           0       10.680231   -5.613779   -1.250761
     31          6           0        9.747070   -5.373900   -2.464863
     32          7           0       10.470429   -0.551317   -0.248800
     33          6           0       11.577208   -1.414306   -0.250596
     34          6           0       12.729055   -0.592512   -0.261850
     35          6           0       12.272280    0.718984   -0.222247
     36          6           0       10.917036    0.680295   -0.203763
     37          6           0       14.140562   -1.077682   -0.356245
     38          6           0       12.699110    2.035257   -0.120548
     39          8           0       13.856466    2.489269   -0.063566
     40          6           0       11.474951    2.995270   -0.027657
     41          6           0       11.638040    3.910956   -1.280848
     42          8           0       11.501884    3.547831   -2.462751
     43          8           0       11.964214    5.188840   -0.839709
     44          6           0       12.421449    6.194568   -1.850650
     45          1           0        4.852817    1.522551    0.720123
     46          1           0        6.375435   -4.838046    0.331864
     47          1           0       12.376570   -3.330122   -0.325338
     48          1           0        8.760314    4.208655    0.837749
     49          1           0        6.033706    3.563380    0.452039
     50          1           0        7.793537    3.441980    2.883249
     51          1           0        6.951127    1.979747    2.785280
     52          1           0        6.070082    3.586707    2.777945
     53          1           0        7.122627    4.277152   -1.496440
     54          1           0        8.865649    3.889355   -1.827951
     55          1           0        9.221191    5.890394   -0.290701
     56          1           0        7.515369    6.249030   -0.517848
     57          1           0        2.961158    0.590587   -0.054323
     58          1           0        2.347211   -0.794263    1.050409
     59          1           0        2.244606   -0.837538   -0.677666
     60          1           0        1.736806   -4.648642    0.387504
     61          1           0        1.794540   -3.708924   -1.102409
     62          1           0        1.717272   -2.883941    0.514094
     63          1           0        8.361052   -6.085180   -0.271060
     64          1           0       10.857195   -5.331656    0.914006
     65          1           0        8.344075   -5.326683    2.627530
     66          1           0        9.405284   -6.657072    2.246850
     67          1           0        7.741040   -6.809442    1.947417
     68          1           0       10.869962   -6.668127   -1.048904
     69          1           0       11.667507   -5.172368   -1.386514
     70          1           0       10.240951   -4.835849   -3.274234
     71          1           0        8.887497   -4.816524   -2.091577
     72          1           0        9.377237   -6.301644   -2.900432
     73          1           0       14.653936   -0.659737    0.509659
     74          1           0       14.543074   -0.740945   -1.311583
     75          1           0       14.272261   -2.156323   -0.269970
     76          1           0       11.587834    3.602549    0.870043
     77          1           0       13.319043    5.776738   -2.305986
     78          1           0       12.666681    7.195370   -1.495317
     79          1           0       11.534832    6.154111   -2.483464
     80         12           0       -8.860625   -0.388673   -0.067194
     81          6           0       -7.243951    2.590867    0.541593
     82          6           0      -11.367268    1.450222   -1.828865
     83          6           0      -10.642451   -3.125312   -0.381164
     84          6           0       -6.476899   -2.114057    1.804821
     85          7           0       -9.180035    1.775360   -0.545248
     86          6           0       -8.378319    2.795301   -0.225017
     87          6           0       -8.933901    4.100903   -0.881830
     88          6           0      -10.337799    3.676731   -1.514601
     89          6           0      -10.334783    2.161701   -1.233363
     90          6           0      -11.586682    4.221190   -0.848270
     91          6           0       -7.969852    4.792786   -1.857311
     92          6           0       -7.815451    6.268691   -1.530881
     93          1           0       -7.444247    7.286485   -2.619192
     94          7           0      -10.705138   -0.777348   -1.051616
     95          6           0      -11.543292    0.050606   -1.741210
     96          6           0      -12.625942   -0.631701   -2.295500
     97          6           0      -12.535075   -1.978374   -1.797956
     98          6           0      -11.236878   -2.022496   -1.040135
     99          6           0      -13.681179    0.016296   -3.180060
    100          6           0      -13.528077   -3.120161   -1.941550
    101          8           0      -13.333315   -4.161570   -1.285133
    102          6           0      -14.764239   -2.985816   -2.733511
    103          7           0       -8.556297   -2.289905    0.587575
    104          6           0       -9.413406   -3.329163    0.289103
    105          6           0       -8.995043   -4.718730    0.898261
    106          6           0       -7.511533   -4.365873    1.342527
    107          6           0       -7.507241   -2.828234    1.263991
    108          6           0       -9.813698   -5.385563    2.073236
    109          6           0       -6.302271   -5.141433    0.647156
    110          6           0       -5.939205   -4.670731   -0.736437
    111          7           0       -7.295836    0.074221    1.073482
    112          6           0       -6.392921   -0.685276    1.792889
    113          6           0       -5.392678    0.099898    2.392050
    114          6           0       -5.682384    1.372825    1.887340
    115          6           0       -6.853786    1.331200    1.076308
    116          6           0       -4.300362   -0.487825    3.179691
    117          6           0       -5.237987    2.704675    2.039454
    118          8           0       -4.346003    3.121362    2.781184
    119          6           0       -6.222019    3.615645    1.135689
    120          6           0       -6.838967    4.626117    1.976842
    121          8           0       -7.726193    4.457286    2.781778
    122          8           0       -6.215647    5.789303    1.834411
    123          6           0       -6.593439    6.888285    2.670666
    124          1           0      -12.153650    2.026300   -2.320129
    125          1           0      -11.121006   -4.106353   -0.399979
    126          1           0       -5.754255   -2.692386    2.384365
    127          1           0       -9.118378    4.697439    0.011029
    128          1           0      -10.341300    4.109226   -2.515745
    129          1           0      -11.398409    4.944459   -0.054271
    130          1           0      -12.136196    3.414705   -0.363505
    131          1           0      -12.289542    4.566527   -1.607047
    132          1           0       -8.230310    4.692332   -2.911102
    133          1           0       -7.006230    4.290170   -1.777562
    134          1           0       -6.964069    6.334457   -0.852473
    135          1           0       -8.757745    6.573692   -1.076124
    136          1           0      -13.379606    1.012707   -3.503210
    137          1           0      -14.570595    0.208258   -2.579497
    138          1           0      -13.989287   -0.655557   -3.980304
    139          1           0      -15.505810   -3.722631   -2.422786
    140          1           0      -14.504735   -3.223768   -3.765547
    141          1           0      -15.180115   -1.984917   -2.620522
    142          1           0       -8.828888   -5.474462    0.129899
    143          1           0       -7.372519   -4.698695    2.370365
    144          1           0      -10.651445   -4.729375    2.305920
    145          1           0       -9.235103   -5.304092    2.994253
    146          1           0      -10.157713   -6.412548    1.947159
    147          1           0       -6.643296   -6.168078    0.515985
    148          1           0       -5.408460   -5.216673    1.265288
    149          1           0       -4.868200   -4.833222   -0.852312
    150          1           0       -6.188616   -3.664941   -1.072165
    151          1           0       -6.498941   -5.298937   -1.429385
    152          1           0       -3.953050   -1.489383    2.927276
    153          1           0       -4.376684   -0.378311    4.260815
    154          1           0       -3.492411    0.208287    2.955863
    155          1           0       -5.615274    4.097701    0.369392
    156          1           0       -7.397157    7.483457    2.235676
    157          1           0       -5.728252    7.548113    2.732635
    158          1           0       -6.923658    6.518441    3.641490
 ---------------------------------------------------------------------

 SCF Done:  E(RwB97XD) =  -4070.62976108     A.U. after   19 cycles

 Excitation energies and oscillator strengths:

 Excited State   1:      Singlet-A      1.5997 eV  775.07 nm  f=0.5679  <S**2>=0.000
     310 -> 316       -0.16174
     311 -> 313       -0.17246
     312 -> 314        0.66488
     310 <- 316       -0.10957
 This state for optimization and/or second-order correction.
 Total Energy, E(TD-HF/TD-DFT) =  -4070.57097501
 Copying the excited state density for this state as the 1-particle RhoCI density.

 Excited State   2:      Singlet-A      1.6508 eV  751.07 nm  f=0.2605  <S**2>=0.000
     309 -> 315        0.17295
     311 -> 313        0.66241
     312 -> 314        0.17173
     309 <- 315        0.11085

 Excited State   3:      Singlet-A      2.1605 eV  573.87 nm  f=0.0172  <S**2>=0.000
     309 -> 313        0.30209
     310 -> 314        0.56905
     311 -> 315       -0.11772
     312 -> 316        0.24313

 Excited State   4:      Singlet-A      2.1657 eV  572.49 nm  f=0.2533  <S**2>=0.000
     309 -> 313        0.57695
     310 -> 314       -0.29638
     311 -> 315       -0.22804
     312 -> 316       -0.12879

 Excited State   5:      Singlet-A      3.3022 eV  375.45 nm  f=0.0000  <S**2>=0.000
     312 -> 313        0.70648

 The electronic state is 1-A.
 Alpha  occ. eigenvalues --  -46.94584 -46.94202 -19.30195 -19.29908 -19.24902
 Alpha  occ. eigenvalues --  -19.23850 -19.23713 -19.23702 -19.23444 -19.22670
 Alpha  occ. eigenvalues --  -14.47065 -14.46953 -14.46470 -14.45987 -14.44492
 Alpha  occ. eigenvalues --  -14.43833 -14.43735 -14.43027 -10.43860 -10.42271
 Alpha  occ. eigenvalues --  -10.39202 -10.38990 -10.38724 -10.37586 -10.35736
 Alpha  occ. eigenvalues --  -10.35652 -10.35421 -10.35322 -10.35103 -10.34982
 Alpha  occ. eigenvalues --  -10.34915 -10.34457 -10.34294 -10.34264 -10.34158
 Alpha  occ. eigenvalues --  -10.34133 -10.33598 -10.33281 -10.33219 -10.33142
 Alpha  occ. eigenvalues --  -10.33072 -10.32759 -10.32647 -10.32609 -10.32573
 Alpha  occ. eigenvalues --  -10.32494 -10.32317 -10.32256 -10.32208 -10.32180
 Alpha  occ. eigenvalues --  -10.32117 -10.31899 -10.31859 -10.31806 -10.31792
 Alpha  occ. eigenvalues --  -10.31766 -10.31715 -10.31707 -10.31563 -10.31531
 Alpha  occ. eigenvalues --  -10.31513 -10.31400 -10.31171 -10.30993 -10.30863
 Alpha  occ. eigenvalues --  -10.30767 -10.30698 -10.30690 -10.30460 -10.30425
 Alpha  occ. eigenvalues --  -10.30423 -10.30296 -10.30278 -10.30152 -10.30088
 Alpha  occ. eigenvalues --  -10.29886 -10.29863 -10.29779 -10.29638 -10.29572
 Alpha  occ. eigenvalues --  -10.29563 -10.29558 -10.29354 -10.28924 -10.28844
 Alpha  occ. eigenvalues --  -10.27730  -3.20613  -3.20395  -1.94182  -1.93990
 Alpha  occ. eigenvalues --   -1.93742  -1.93586  -1.93541  -1.93373  -1.20276
 Alpha  occ. eigenvalues --   -1.16517  -1.11627  -1.11286  -1.10871  -1.10136
 Alpha  occ. eigenvalues --   -1.10107  -1.08786  -1.06775  -1.06773  -1.05927
 Alpha  occ. eigenvalues --   -1.05840  -1.05496  -1.05438  -1.04750  -1.04138
 Alpha  occ. eigenvalues --   -0.94458  -0.94222  -0.91444  -0.90927  -0.90809
 Alpha  occ. eigenvalues --   -0.90802  -0.90385  -0.90361  -0.89751  -0.89622
 Alpha  occ. eigenvalues --   -0.89618  -0.88983  -0.88898  -0.88382  -0.86686
 Alpha  occ. eigenvalues --   -0.86383  -0.85913  -0.85365  -0.84992  -0.84465
 Alpha  occ. eigenvalues --   -0.83974  -0.83478  -0.83317  -0.82859  -0.82739
 Alpha  occ. eigenvalues --   -0.82271  -0.80475  -0.80061  -0.79418  -0.79009
 Alpha  occ. eigenvalues --   -0.78908  -0.78757  -0.78041  -0.77856  -0.77371
 Alpha  occ. eigenvalues --   -0.77306  -0.75615  -0.75152  -0.73912  -0.73583
 Alpha  occ. eigenvalues --   -0.71712  -0.71630  -0.70998  -0.70661  -0.69910
 Alpha  occ. eigenvalues --   -0.69424  -0.69250  -0.68404  -0.67505  -0.67236
 Alpha  occ. eigenvalues --   -0.67083  -0.66733  -0.66512  -0.66484  -0.66367
 Alpha  occ. eigenvalues --   -0.65969  -0.64473  -0.63513  -0.62582  -0.62158
 Alpha  occ. eigenvalues --   -0.61797  -0.61661  -0.61169  -0.61040  -0.60656
 Alpha  occ. eigenvalues --   -0.60482  -0.60345  -0.59836  -0.59480  -0.58877
 Alpha  occ. eigenvalues --   -0.58674  -0.58270  -0.57860  -0.57477  -0.57254
 Alpha  occ. eigenvalues --   -0.57191  -0.56889  -0.56749  -0.56641  -0.56459
 Alpha  occ. eigenvalues --   -0.55616  -0.55332  -0.55298  -0.54875  -0.54858
 Alpha  occ. eigenvalues --   -0.54810  -0.54676  -0.54599  -0.54392  -0.54292
 Alpha  occ. eigenvalues --   -0.54180  -0.53835  -0.53777  -0.53548  -0.53460
 Alpha  occ. eigenvalues --   -0.53327  -0.52420  -0.52389  -0.52353  -0.52204
 Alpha  occ. eigenvalues --   -0.52081  -0.51777  -0.51585  -0.51475  -0.51311
 Alpha  occ. eigenvalues --   -0.51272  -0.51241  -0.51046  -0.51013  -0.50718
 Alpha  occ. eigenvalues --   -0.50602  -0.50486  -0.50349  -0.50232  -0.49942
 Alpha  occ. eigenvalues --   -0.49859  -0.49832  -0.49543  -0.49444  -0.49227
 Alpha  occ. eigenvalues --   -0.48977  -0.48917  -0.48623  -0.48494  -0.48409
 Alpha  occ. eigenvalues --   -0.48116  -0.48111  -0.47803  -0.47604  -0.47565
 Alpha  occ. eigenvalues --   -0.47506  -0.47302  -0.47219  -0.47021  -0.46691
 Alpha  occ. eigenvalues --   -0.46476  -0.46463  -0.46327  -0.46017  -0.46005
 Alpha  occ. eigenvalues --   -0.45715  -0.45601  -0.45574  -0.45377  -0.45301
 Alpha  occ. eigenvalues --   -0.45287  -0.45010  -0.44922  -0.44771  -0.44653
 Alpha  occ. eigenvalues --   -0.44518  -0.44219  -0.44086  -0.43765  -0.43717
 Alpha  occ. eigenvalues --   -0.43702  -0.43576  -0.43480  -0.43430  -0.43163
 Alpha  occ. eigenvalues --   -0.43062  -0.42972  -0.42739  -0.42541  -0.42519
 Alpha  occ. eigenvalues --   -0.42069  -0.41756  -0.41266  -0.41015  -0.40947
 Alpha  occ. eigenvalues --   -0.40265  -0.40095  -0.39881  -0.39825  -0.39331
 Alpha  occ. eigenvalues --   -0.39204  -0.38792  -0.38790  -0.38507  -0.38448
 Alpha  occ. eigenvalues --   -0.38273  -0.37998  -0.36395  -0.36081  -0.36017
 Alpha  occ. eigenvalues --   -0.35970  -0.35553  -0.35380  -0.33836  -0.33447
 Alpha  occ. eigenvalues --   -0.32861  -0.32748  -0.32697  -0.32399  -0.32119
 Alpha  occ. eigenvalues --   -0.31962  -0.31827  -0.31454  -0.26213  -0.26068
 Alpha  occ. eigenvalues --   -0.23457  -0.22909
 Alpha virt. eigenvalues --   -0.07634  -0.07267   0.00335   0.00516   0.02365
 Alpha virt. eigenvalues --    0.02683   0.04409   0.04544   0.05477   0.06043
 Alpha virt. eigenvalues --    0.07222   0.07521   0.07749   0.08088   0.08810

 Mulliken charges:
               1
     1  Mg   0.956066
     2  C   -0.066655
     3  C   -0.119106
     4  C   -0.021417
     5  C   -0.103065
     6  N   -0.406896
     7  C    0.019955
     8  C   -0.101511
     9  C   -0.087887
    10  C    0.033757
    11  C    0.034659
    12  C    0.039720
    13  C   -0.123588
    14  H    0.052404
    15  N   -0.463929
    16  C    0.229580
    17  C   -0.175439
    18  C   -0.078785
    19  C    0.188664
    20  C    0.069483
    21  C    0.055861
    22  O   -0.249043
    23  C   -0.006201
    24  N   -0.316748
    25  C   -0.057072
    26  C   -0.058114
    27  C   -0.099691
    28  C    0.111923
    29  C    0.018289
    30  C   -0.021822
    31  C   -0.053798
    32  N   -0.435100
    33  C    0.116995
    34  C   -0.198099
    35  C    0.054019
    36  C    0.194060
    37  C    0.092988
    38  C    0.016681
    39  O   -0.242985
    40  C   -0.028772
    41  C    0.287664
    42  O   -0.268908
    43  O   -0.389724
    44  C    0.142361
    45  H    0.000768
    46  H    0.018226
    47  H    0.002238
    48  H    0.020195
    49  H    0.020273
    50  H    0.035448
    51  H    0.052941
    52  H    0.044786
    53  H    0.021861
    54  H    0.065258
    55  H    0.039818
    56  H    0.040684
    57  H    0.042400
    58  H    0.068597
    59  H    0.042733
    60  H    0.053214
    61  H    0.074674
    62  H    0.027744
    63  H    0.045446
    64  H    0.030830
    65  H    0.039760
    66  H    0.032635
    67  H    0.042291
    68  H    0.030994
    69  H    0.022879
    70  H    0.046378
    71  H    0.045817
    72  H    0.041961
    73  H    0.058058
    74  H    0.067795
    75  H    0.019449
    76  H    0.067031
    77  H    0.068140
    78  H    0.069517
    79  H    0.058387
    80  Mg   0.992369
    81  C   -0.045037
    82  C   -0.105231
    83  C   -0.051511
    84  C   -0.104619
    85  N   -0.350158
    86  C   -0.028179
    87  C   -0.021346
    88  C   -0.162902
    89  C    0.116545
    90  C    0.006060
    91  C    0.037929
    92  C   -0.145945
    93  H    0.029051
    94  N   -0.425766
    95  C    0.160441
    96  C   -0.174926
    97  C   -0.073847
    98  C    0.171814
    99  C    0.066369
   100  C    0.038353
   101  O   -0.259806
   102  C    0.004538
   103  N   -0.396170
   104  C    0.027851
   105  C   -0.070384
   106  C   -0.076091
   107  C    0.087190
   108  C    0.029215
   109  C   -0.031324
   110  C   -0.058235
   111  N   -0.470053
   112  C    0.132112
   113  C   -0.135167
   114  C   -0.038257
   115  C    0.195306
   116  C    0.072966
   117  C    0.095353
   118  O   -0.220586
   119  C   -0.077826
   120  C    0.235478
   121  O   -0.251195
   122  O   -0.328277
   123  C    0.135741
   124  H   -0.001785
   125  H    0.022260
   126  H   -0.004787
   127  H    0.033274
   128  H    0.043222
   129  H    0.044003
   130  H    0.040545
   131  H    0.035498
   132  H    0.039708
   133  H    0.029579
   134  H    0.062874
   135  H    0.056401
   136  H    0.042565
   137  H    0.057411
   138  H    0.056735
   139  H    0.056250
   140  H    0.067256
   141  H    0.045077
   142  H    0.038716
   143  H    0.027670
   144  H    0.039953
   145  H    0.027538
   146  H    0.057181
   147  H    0.029770
   148  H    0.032870
   149  H    0.037359
   150  H    0.047216
   151  H    0.029233
   152  H    0.045254
   153  H    0.055877
   154  H    0.043516
   155  H    0.064888
   156  H    0.042882
   157  H    0.055267
   158  H    0.066881
 Sum of Mulliken charges =  -0.00000

 Dipole moment (field-independent basis, Debye):
    X=             -5.8202    Y=             -0.0973    Z=             -3.1383  Tot=              6.6131
 Quadrupole moment (field-independent basis, Debye-Ang):
   XX=           -530.6670   YY=           -472.3464   ZZ=           -512.1811
   XY=            -39.0375   XZ=             47.1317   YZ=            -12.4364

 Normal termination of Gaussian 16 at Sun Sep 19 09:50:10 2021.
