 Gaussian 16, Revision A.03,
 Gaussian 16:  ES64L-G16RevA.03 25-Dec-2016

 --------------------------------
 #p wB97XD/Def2SVP td=(nstates=5)
 --------------------------------

 --------------------------------
 TDDFT excited states in gaussian
 --------------------------------
 Symbolic Z-matrix:
 Charge =  0 Multiplicity = 1

                         Standard orientation:
 ---------------------------------------------------------------------
 Center     Atomic      Atomic             Coordinates (Angstroms)
 Number     Number       Type             X           Y           Z
 ---------------------------------------------------------------------
      1         12           0       22.086200   -0.577980    0.439702
      2          6           0       21.585825    2.130139   -1.683770
      3          6           0       22.256785    1.590062    3.087977
      4          6           0       22.890715   -3.234816    2.416620
      5          6           0       22.125148   -2.600554   -2.482798
      6          7           0       21.974100    1.599695    0.671040
      7          6           0       21.641690    2.468231   -0.334907
      8          6           0       21.505925    3.848810    0.312054
      9          6           0       22.013460    3.689734    1.734157
     10          6           0       22.050236    2.170127    1.849982
     11          6           0       23.297388    4.355445    2.151098
     12          6           0       20.058612    4.526876    0.194757
     13          6           0       19.844856    5.827539    1.033944
     14          1           0       20.149006    7.196467    0.370927
     15          7           0       22.363708   -0.785095    2.485898
     16          6           0       22.428474    0.215111    3.399648
     17          6           0       22.732950   -0.401414    4.664661
     18          6           0       22.920876   -1.799653    4.457729
     19          6           0       22.755606   -2.003415    3.088964
     20          6           0       22.822987    0.426680    5.909222
     21          6           0       23.388992   -2.834590    5.521888
     22          8           0       23.853823   -3.914990    5.205286
     23          6           0       23.425610   -2.560188    6.949206
     24          7           0       22.425323   -2.500702    0.028037
     25          6           0       22.701878   -3.460432    1.001262
     26          6           0       22.836177   -4.875425    0.412219
     27          6           0       22.314322   -4.659181   -1.048984
     28          6           0       22.241130   -3.144906   -1.156123
     29          6           0       24.111293   -5.572614    0.650779
     30          6           0       20.955718   -5.414998   -1.531749
     31          6           0       20.980369   -6.378621   -2.721990
     32          7           0       21.947077   -0.311937   -1.735592
     33          6           0       21.999899   -1.231599   -2.745179
     34          6           0       21.839745   -0.610952   -4.016918
     35          6           0       21.588045    0.765691   -3.648185
     36          6           0       21.757506    0.890212   -2.240725
     37          6           0       21.830544   -1.339125   -5.306780
     38          6           0       21.197471    2.051523   -4.178937
     39          8           0       20.879919    2.449821   -5.282400
     40          6           0       21.195050    3.019385   -2.854913
     41          6           0       21.990772    4.252941   -3.080674
     42          8           0       23.192896    4.259937   -3.230943
     43          8           0       21.231183    5.362374   -3.085614
     44          6           0       21.950078    6.693546   -3.049166
     45          1           0       22.258781    2.270192    3.942625
     46          1           0       23.155822   -4.067418    3.071296
     47          1           0       22.142946   -3.385202   -3.242292
     48          1           0       22.207413    4.411331   -0.303895
     49          1           0       21.287855    4.118567    2.424865
     50          1           0       23.938496    3.475835    2.200330
     51          1           0       23.198223    4.914290    3.081780
     52          1           0       23.723208    4.971139    1.358531
     53          1           0       19.415252    3.729462    0.567272
     54          1           0       19.838606    4.749475   -0.848679
     55          1           0       20.469815    5.838016    1.926046
     56          1           0       18.809786    5.836463    1.375463
     57          1           0       22.569390    1.485289    5.845130
     58          1           0       23.876307    0.419599    6.187562
     59          1           0       22.295472   -0.014133    6.755333
     60          1           0       23.879150   -1.640308    7.316856
     61          1           0       23.824999   -3.361558    7.570675
     62          1           0       22.366463   -2.572854    7.205547
     63          1           0       22.046441   -5.346391    0.998184
     64          1           0       23.213573   -4.949737   -1.591911
     65          1           0       24.074496   -6.478134    1.257005
     66          1           0       24.781566   -4.866988    1.142320
     67          1           0       24.601877   -5.925696   -0.256195
     68          1           0       20.227241   -4.643659   -1.780937
     69          1           0       20.423492   -6.013123   -0.791125
     70          1           0       20.564535   -5.977294   -3.646544
     71          1           0       20.610556   -7.380912   -2.507637
     72          1           0       22.024080   -6.512882   -3.006474
     73          1           0       22.659089   -2.046974   -5.308951
     74          1           0       21.851815   -0.670972   -6.167303
     75          1           0       20.990290   -2.033615   -5.278625
     76          1           0       20.159858    3.336852   -2.733896
     77          1           0       21.184664    7.372477   -3.424381
     78          1           0       22.823155    6.635546   -3.698833
     79          1           0       22.162244    6.903876   -2.000804
     80         12           0      -21.606950   -0.703762   -0.097819
     81          6           0      -23.264450    1.914055    1.486142
     82          6           0      -19.843474    1.502213   -1.935005
     83          6           0      -20.392628   -3.304486   -1.883075
     84          6           0      -23.784915   -2.877873    1.457655
     85          7           0      -21.599412    1.510104   -0.198294
     86          6           0      -22.208783    2.358451    0.690824
     87          6           0      -21.792034    3.757380    0.437790
     88          6           0      -20.743666    3.703926   -0.679544
     89          6           0      -20.664895    2.147596   -0.991911
     90          6           0      -20.933486    4.577080   -1.910186
     91          6           0      -21.271713    4.481822    1.805471
     92          6           0      -22.054095    5.718590    2.306013
     93          1           0      -21.330804    6.910037    2.884119
     94          7           0      -20.215852   -0.891006   -1.599826
     95          6           0      -19.589562    0.155288   -2.260334
     96          6           0      -18.754202   -0.360432   -3.283098
     97          6           0      -18.896690   -1.774470   -3.297039
     98          6           0      -19.851008   -2.047071   -2.217412
     99          6           0      -17.810234    0.642001   -4.055429
    100          6           0      -18.235810   -2.717643   -4.300798
    101          8           0      -18.419763   -3.942642   -4.363673
    102          6           0      -17.236150   -2.194692   -5.236066
    103          7           0      -22.160561   -2.789785   -0.416853
    104          6           0      -21.454968   -3.669866   -1.096590
    105          6           0      -22.117609   -5.065192   -1.050788
    106          6           0      -22.815808   -4.917144    0.358263
    107          6           0      -22.917947   -3.402888    0.511386
    108          6           0      -23.164295   -5.494436   -2.144619
    109          6           0      -22.077077   -5.592354    1.611179
    110          6           0      -20.710488   -5.146401    1.936188
    111          7           0      -23.299662   -0.601502    1.221189
    112          6           0      -24.100731   -1.606516    1.797929
    113          6           0      -25.083943   -1.002639    2.639594
    114          6           0      -24.860259    0.353969    2.513850
    115          6           0      -23.684690    0.541266    1.715374
    116          6           0      -26.232738   -1.660331    3.231541
    117          6           0      -25.196522    1.586795    3.052818
    118          8           0      -26.066827    1.919711    3.863850
    119          6           0      -24.269728    2.689524    2.364337
    120          6           0      -25.180673    3.477886    1.482452
    121          8           0      -25.885423    3.152075    0.550297
    122          8           0      -25.115836    4.726204    1.948892
    123          6           0      -25.928323    5.747322    1.209923
    124          1           0      -19.184713    2.294663   -2.296198
    125          1           0      -19.860809   -4.121165   -2.374252
    126          1           0      -24.423431   -3.583374    1.993006
    127          1           0      -22.696306    4.257060    0.092576
    128          1           0      -19.770709    3.962297   -0.262157
    129          1           0      -21.423769    3.817599   -2.518070
    130          1           0      -20.025730    5.016730   -2.323833
    131          1           0      -21.602780    5.435833   -1.866013
    132          1           0      -20.221163    4.743512    1.682632
    133          1           0      -21.352390    3.852049    2.691819
    134          1           0      -22.653697    5.371275    3.147909
    135          1           0      -22.790019    6.059162    1.578854
    136          1           0      -17.965857    0.505245   -5.125392
    137          1           0      -16.867621    0.175020   -3.769669
    138          1           0      -17.961085    1.711937   -3.911616
    139          1           0      -17.651212   -1.392527   -5.844701
    140          1           0      -17.121415   -2.964595   -5.998710
    141          1           0      -16.266272   -1.958491   -4.797537
    142          1           0      -21.339940   -5.803787   -0.855832
    143          1           0      -23.767746   -5.430334    0.224164
    144          1           0      -23.862170   -4.720399   -2.461632
    145          1           0      -23.666272   -6.335540   -1.665078
    146          1           0      -22.659199   -5.835429   -3.048722
    147          1           0      -21.967570   -6.672935    1.516021
    148          1           0      -22.536837   -5.286271    2.550833
    149          1           0      -20.879220   -4.227487    2.495889
    150          1           0      -20.024123   -4.895669    1.126828
    151          1           0      -20.101030   -5.771408    2.588069
    152          1           0      -26.960344   -1.681127    2.419334
    153          1           0      -26.673106   -1.153529    4.089735
    154          1           0      -26.002695   -2.639585    3.652780
    155          1           0      -23.701303    3.284840    3.078975
    156          1           0      -25.190771    6.321731    0.648965
    157          1           0      -26.498622    6.346189    1.919645
    158          1           0      -26.634247    5.382214    0.463424
 ---------------------------------------------------------------------

 SCF Done:  E(RwB97XD) =  -4070.58955522     A.U. after   20 cycles

 Excitation energies and oscillator strengths:

 Excited State   1:      Singlet-A      1.6386 eV  756.63 nm  f=0.3725  <S**2>=0.000
     309 -> 315       -0.18436
     312 -> 314        0.68253
     309 <- 315       -0.11753
 This state for optimization and/or second-order correction.
 Total Energy, E(TD-HF/TD-DFT) =  -4070.52933679
 Copying the excited state density for this state as the 1-particle RhoCI density.

 Excited State   2:      Singlet-A      1.6463 eV  753.11 nm  f=0.3965  <S**2>=0.000
     310 -> 316        0.18104
     311 -> 313        0.68263
     310 <- 316        0.11536

 Excited State   3:      Singlet-A      2.1205 eV  584.69 nm  f=0.1340  <S**2>=0.000
     310 -> 313        0.64936
     311 -> 316       -0.26641

 Excited State   4:      Singlet-A      2.1629 eV  573.22 nm  f=0.0921  <S**2>=0.000
     309 -> 314        0.63064
     312 -> 315        0.30292

 Excited State   5:      Singlet-A      3.2556 eV  380.83 nm  f=0.0003  <S**2>=0.000
     307 -> 314       -0.22805
     308 -> 314        0.64123

 The electronic state is 1-A.
 Alpha  occ. eigenvalues --  -46.95702 -46.94243 -19.30297 -19.29657 -19.24127
 Alpha  occ. eigenvalues --  -19.24051 -19.23741 -19.23720 -19.23335 -19.23220
 Alpha  occ. eigenvalues --  -14.47356 -14.46636 -14.46604 -14.46446 -14.44333
 Alpha  occ. eigenvalues --  -14.43711 -14.43598 -14.43049 -10.42475 -10.41818
 Alpha  occ. eigenvalues --  -10.39572 -10.39058 -10.38698 -10.38220 -10.35881
 Alpha  occ. eigenvalues --  -10.35685 -10.35493 -10.35491 -10.35258 -10.35159
 Alpha  occ. eigenvalues --  -10.35142 -10.34652 -10.34469 -10.34323 -10.34125
 Alpha  occ. eigenvalues --  -10.33884 -10.33840 -10.33768 -10.33622 -10.33145
 Alpha  occ. eigenvalues --  -10.33023 -10.33009 -10.32830 -10.32632 -10.32597
 Alpha  occ. eigenvalues --  -10.32477 -10.32315 -10.32310 -10.32227 -10.32198
 Alpha  occ. eigenvalues --  -10.32130 -10.32029 -10.31975 -10.31869 -10.31652
 Alpha  occ. eigenvalues --  -10.31624 -10.31600 -10.31567 -10.31511 -10.31497
 Alpha  occ. eigenvalues --  -10.31486 -10.31340 -10.31255 -10.31217 -10.31216
 Alpha  occ. eigenvalues --  -10.31155 -10.31025 -10.30989 -10.30974 -10.30936
 Alpha  occ. eigenvalues --  -10.30915 -10.30553 -10.30345 -10.30340 -10.30149
 Alpha  occ. eigenvalues --  -10.30136 -10.30037 -10.29951 -10.29874 -10.29614
 Alpha  occ. eigenvalues --  -10.29469 -10.29420 -10.29347 -10.29330 -10.28726
 Alpha  occ. eigenvalues --  -10.28568  -3.21566  -3.20321  -1.95155  -1.94663
 Alpha  occ. eigenvalues --   -1.94551  -1.93932  -1.93447  -1.93298  -1.19214
 Alpha  occ. eigenvalues --   -1.18036  -1.13218  -1.11759  -1.11355  -1.10846
 Alpha  occ. eigenvalues --   -1.09582  -1.08944  -1.07455  -1.07258  -1.06328
 Alpha  occ. eigenvalues --   -1.06153  -1.05424  -1.05360  -1.04680  -1.04437
 Alpha  occ. eigenvalues --   -0.94421  -0.94221  -0.91147  -0.91093  -0.90641
 Alpha  occ. eigenvalues --   -0.90599  -0.90339  -0.90300  -0.89909  -0.89550
 Alpha  occ. eigenvalues --   -0.89519  -0.88940  -0.88831  -0.88671  -0.86590
 Alpha  occ. eigenvalues --   -0.86558  -0.86175  -0.85625  -0.85013  -0.84584
 Alpha  occ. eigenvalues --   -0.84397  -0.83958  -0.83536  -0.83367  -0.82732
 Alpha  occ. eigenvalues --   -0.82723  -0.80786  -0.80737  -0.79738  -0.79622
 Alpha  occ. eigenvalues --   -0.79332  -0.79221  -0.77918  -0.77858  -0.77318
 Alpha  occ. eigenvalues --   -0.77120  -0.75504  -0.74794  -0.73820  -0.73686
 Alpha  occ. eigenvalues --   -0.71364  -0.71325  -0.71065  -0.70861  -0.70253
 Alpha  occ. eigenvalues --   -0.69755  -0.69192  -0.68957  -0.67753  -0.67563
 Alpha  occ. eigenvalues --   -0.67403  -0.67392  -0.66800  -0.66638  -0.66229
 Alpha  occ. eigenvalues --   -0.65980  -0.64073  -0.63446  -0.62554  -0.62450
 Alpha  occ. eigenvalues --   -0.61937  -0.61727  -0.61333  -0.60986  -0.60839
 Alpha  occ. eigenvalues --   -0.60622  -0.60274  -0.59989  -0.59916  -0.59254
 Alpha  occ. eigenvalues --   -0.58445  -0.58356  -0.57774  -0.57718  -0.57502
 Alpha  occ. eigenvalues --   -0.57314  -0.57017  -0.56794  -0.56740  -0.56667
 Alpha  occ. eigenvalues --   -0.56511  -0.55787  -0.55318  -0.55189  -0.55126
 Alpha  occ. eigenvalues --   -0.54969  -0.54928  -0.54668  -0.54564  -0.54252
 Alpha  occ. eigenvalues --   -0.54162  -0.54053  -0.53871  -0.53272  -0.53146
 Alpha  occ. eigenvalues --   -0.53043  -0.52939  -0.52791  -0.52476  -0.52352
 Alpha  occ. eigenvalues --   -0.52286  -0.51864  -0.51751  -0.51684  -0.51409
 Alpha  occ. eigenvalues --   -0.51405  -0.51281  -0.51154  -0.51071  -0.50983
 Alpha  occ. eigenvalues --   -0.50930  -0.50574  -0.50464  -0.50300  -0.50199
 Alpha  occ. eigenvalues --   -0.50050  -0.49669  -0.49396  -0.49334  -0.49123
 Alpha  occ. eigenvalues --   -0.49070  -0.48800  -0.48786  -0.48634  -0.48531
 Alpha  occ. eigenvalues --   -0.48525  -0.48199  -0.48197  -0.48042  -0.47938
 Alpha  occ. eigenvalues --   -0.47780  -0.47199  -0.47097  -0.47049  -0.46761
 Alpha  occ. eigenvalues --   -0.46585  -0.46415  -0.46349  -0.46210  -0.46104
 Alpha  occ. eigenvalues --   -0.46055  -0.45946  -0.45673  -0.45645  -0.45317
 Alpha  occ. eigenvalues --   -0.45304  -0.45169  -0.44951  -0.44816  -0.44673
 Alpha  occ. eigenvalues --   -0.44489  -0.44166  -0.44084  -0.44003  -0.43769
 Alpha  occ. eigenvalues --   -0.43751  -0.43638  -0.43488  -0.43241  -0.43034
 Alpha  occ. eigenvalues --   -0.42861  -0.42848  -0.42666  -0.42312  -0.42126
 Alpha  occ. eigenvalues --   -0.42109  -0.41465  -0.41428  -0.41209  -0.40873
 Alpha  occ. eigenvalues --   -0.40723  -0.40060  -0.39999  -0.39780  -0.39660
 Alpha  occ. eigenvalues --   -0.39234  -0.39106  -0.38917  -0.38453  -0.38307
 Alpha  occ. eigenvalues --   -0.38091  -0.38073  -0.36496  -0.36274  -0.36242
 Alpha  occ. eigenvalues --   -0.36064  -0.35768  -0.34995  -0.33709  -0.33281
 Alpha  occ. eigenvalues --   -0.33202  -0.32992  -0.32731  -0.32532  -0.32248
 Alpha  occ. eigenvalues --   -0.32173  -0.31926  -0.31240  -0.26148  -0.25955
 Alpha  occ. eigenvalues --   -0.23280  -0.22952
 Alpha virt. eigenvalues --   -0.07366  -0.07182   0.00013   0.00265   0.02310
 Alpha virt. eigenvalues --    0.02655   0.04328   0.04807   0.05275   0.06455
 Alpha virt. eigenvalues --    0.07316   0.07722   0.07906   0.08419   0.08598

 Mulliken charges:
               1
     1  Mg   0.969826
     2  C    0.027024
     3  C   -0.088442
     4  C   -0.071775
     5  C   -0.105534
     6  N   -0.331473
     7  C   -0.006738
     8  C   -0.044360
     9  C   -0.151538
    10  C    0.059677
    11  C    0.050719
    12  C    0.000320
    13  C   -0.115565
    14  H    0.029162
    15  N   -0.488178
    16  C    0.172285
    17  C   -0.166888
    18  C   -0.057420
    19  C    0.125937
    20  C    0.053612
    21  C    0.071649
    22  O   -0.233719
    23  C   -0.004578
    24  N   -0.422881
    25  C    0.060590
    26  C   -0.086675
    27  C   -0.053581
    28  C    0.048603
    29  C    0.042952
    30  C   -0.002780
    31  C   -0.069047
    32  N   -0.373881
    33  C    0.159934
    34  C   -0.166715
    35  C   -0.076305
    36  C    0.113260
    37  C    0.102561
    38  C    0.145482
    39  O   -0.193144
    40  C   -0.138712
    41  C    0.241323
    42  O   -0.254344
    43  O   -0.372496
    44  C    0.133533
    45  H   -0.016236
    46  H    0.028700
    47  H    0.001741
    48  H    0.035371
    49  H    0.021793
    50  H    0.039191
    51  H    0.043590
    52  H    0.038594
    53  H    0.034473
    54  H    0.060919
    55  H    0.043699
    56  H    0.059081
    57  H    0.039632
    58  H    0.049848
    59  H    0.047084
    60  H    0.056589
    61  H    0.050176
    62  H    0.049742
    63  H    0.038398
    64  H    0.031815
    65  H    0.040585
    66  H    0.046749
    67  H    0.027962
    68  H    0.036088
    69  H    0.035528
    70  H    0.039386
    71  H    0.045781
    72  H    0.018553
    73  H    0.034846
    74  H    0.072744
    75  H    0.044350
    76  H    0.067392
    77  H    0.062642
    78  H    0.082031
    79  H    0.059480
    80  Mg   0.939117
    81  C   -0.014661
    82  C   -0.073895
    83  C   -0.062198
    84  C   -0.108189
    85  N   -0.378615
    86  C    0.014453
    87  C   -0.066730
    88  C   -0.052562
    89  C   -0.019160
    90  C    0.003401
    91  C    0.003823
    92  C   -0.135692
    93  H    0.038423
    94  N   -0.463639
    95  C    0.198418
    96  C   -0.182567
    97  C   -0.073530
    98  C    0.131207
    99  C    0.082746
   100  C    0.052595
   101  O   -0.248049
   102  C   -0.009803
   103  N   -0.296480
   104  C    0.020160
   105  C   -0.042541
   106  C   -0.112679
   107  C    0.095909
   108  C    0.041903
   109  C    0.013781
   110  C   -0.088531
   111  N   -0.408906
   112  C    0.114902
   113  C   -0.133361
   114  C    0.022782
   115  C    0.108381
   116  C    0.062406
   117  C    0.079679
   118  O   -0.226687
   119  C   -0.091566
   120  C    0.269319
   121  O   -0.244547
   122  O   -0.346908
   123  C    0.120653
   124  H   -0.007293
   125  H    0.014691
   126  H   -0.002409
   127  H    0.047184
   128  H    0.033937
   129  H    0.048110
   130  H    0.042019
   131  H    0.040871
   132  H    0.041745
   133  H    0.042540
   134  H    0.057918
   135  H    0.038089
   136  H    0.038043
   137  H    0.060590
   138  H    0.052967
   139  H    0.039019
   140  H    0.045921
   141  H    0.075374
   142  H    0.019734
   143  H    0.023019
   144  H    0.050123
   145  H    0.040562
   146  H    0.051599
   147  H    0.036072
   148  H    0.028678
   149  H    0.022180
   150  H    0.034922
   151  H    0.039541
   152  H    0.074346
   153  H    0.055795
   154  H    0.035980
   155  H    0.056704
   156  H    0.046830
   157  H    0.068347
   158  H    0.073688
 Sum of Mulliken charges =  -0.00000

 Dipole moment (field-independent basis, Debye):
    X=              1.9017    Y=              0.7008    Z=              4.2765  Tot=              4.7324
 Quadrupole moment (field-independent basis, Debye-Ang):
   XX=           -747.9306   YY=           -459.6053   ZZ=           -523.0861
   XY=            -16.1883   XZ=            136.0924   YZ=              7.8659

 Normal termination of Gaussian 16 at Mon Sep 20 02:03:08 2021.
