 Gaussian 16, Revision A.03,
 Gaussian 16:  ES64L-G16RevA.03 25-Dec-2016

 --------------------------------
 #p wB97XD/Def2SVP td=(nstates=5)
 --------------------------------

 --------------------------------
 TDDFT excited states in gaussian
 --------------------------------
 Symbolic Z-matrix:
 Charge =  0 Multiplicity = 1

                         Standard orientation:
 ---------------------------------------------------------------------
 Center     Atomic      Atomic             Coordinates (Angstroms)
 Number     Number       Type             X           Y           Z
 ---------------------------------------------------------------------
      1         12           0      -17.330681   -0.660421    0.274894
      2          6           0      -17.389610    2.596046   -0.957778
      3          6           0      -16.592438    0.563525    3.404080
      4          6           0      -17.038156   -3.880019    1.250067
      5          6           0      -17.702204   -1.820160   -3.084672
      6          7           0      -16.928938    1.330698    1.053063
      7          6           0      -17.032153    2.519975    0.400074
      8          6           0      -16.853096    3.703390    1.359840
      9          6           0      -16.455577    2.959426    2.710704
     10          6           0      -16.695271    1.490236    2.347512
     11          6           0      -15.003892    3.212868    3.098959
     12          6           0      -18.142342    4.550101    1.654072
     13          6           0      -17.950145    5.998095    2.023251
     14          1           0      -16.625171    6.472607    2.423268
     15          7           0      -16.973882   -1.510980    2.066139
     16          6           0      -16.679121   -0.815850    3.256050
     17          6           0      -16.663386   -1.802241    4.304299
     18          6           0      -16.838730   -3.093057    3.744540
     19          6           0      -16.958812   -2.873736    2.282086
     20          6           0      -16.267110   -1.487967    5.731041
     21          6           0      -16.938871   -4.419232    4.373599
     22          8           0      -16.891130   -5.457747    3.749441
     23          6           0      -16.950827   -4.558270    5.939177
     24          7           0      -17.531032   -2.653327   -0.732533
     25          6           0      -17.341199   -3.776140   -0.106464
     26          6           0      -17.438563   -4.992599   -1.075633
     27          6           0      -17.721113   -4.374765   -2.432989
     28          6           0      -17.604533   -2.836736   -2.134158
     29          6           0      -16.138235   -5.917377   -0.944673
     30          6           0      -19.070541   -4.822021   -3.033736
     31          6           0      -19.042080   -6.019915   -4.055074
     32          7           0      -17.758480    0.115872   -1.546143
     33          6           0      -17.881498   -0.463119   -2.833630
     34          6           0      -18.143178    0.519969   -3.814637
     35          6           0      -17.866548    1.757780   -3.092502
     36          6           0      -17.679913    1.402571   -1.725961
     37          6           0      -18.236300    0.284384   -5.311118
     38          6           0      -17.745819    3.149412   -3.326986
     39          8           0      -17.894610    3.830267   -4.333946
     40          6           0      -17.495250    3.798307   -1.811365
     41          6           0      -16.264553    4.645843   -1.947868
     42          8           0      -15.160461    4.223359   -2.306950
     43          8           0      -16.527852    6.033683   -1.749292
     44          6           0      -15.348195    6.944852   -1.881363
     45          1           0      -16.357963    1.021717    4.367915
     46          1           0      -16.746416   -4.869804    1.606363
     47          1           0      -17.870148   -2.119714   -4.120919
     48          1           0      -16.027953    4.293972    0.961157
     49          1           0      -17.055346    3.277960    3.563197
     50          1           0      -14.586634    4.050766    2.541113
     51          1           0      -14.385143    2.318058    3.026108
     52          1           0      -14.880922    3.612991    4.105404
     53          1           0      -18.695259    4.039383    2.441686
     54          1           0      -18.792087    4.433238    0.786458
     55          1           0      -18.552503    6.178801    2.913265
     56          1           0      -18.274476    6.622820    1.190968
     57          1           0      -15.325047   -1.949662    6.026576
     58          1           0      -17.086934   -1.793292    6.382592
     59          1           0      -16.085968   -0.437601    5.958549
     60          1           0      -15.906985   -4.500573    6.248755
     61          1           0      -17.245611   -5.568519    6.223402
     62          1           0      -17.498800   -3.736694    6.398913
     63          1           0      -18.291938   -5.546313   -0.683714
     64          1           0      -16.899968   -4.535785   -3.129786
     65          1           0      -15.651594   -6.034070   -1.912905
     66          1           0      -16.362339   -6.947586   -0.667295
     67          1           0      -15.489162   -5.375438   -0.255611
     68          1           0      -19.474109   -3.948049   -3.546227
     69          1           0      -19.726660   -5.043041   -2.191726
     70          1           0      -18.830601   -5.606071   -5.041662
     71          1           0      -19.893049   -6.700137   -4.095280
     72          1           0      -18.127195   -6.521358   -3.741225
     73          1           0      -19.276781   -0.008005   -5.450137
     74          1           0      -17.586214   -0.530586   -5.627208
     75          1           0      -17.831308    1.068325   -5.952344
     76          1           0      -18.382433    4.362553   -1.521249
     77          1           0      -14.937349    6.925829   -2.890149
     78          1           0      -14.504521    6.802964   -1.205426
     79          1           0      -15.854776    7.898109   -1.730452
     80         12           0       17.465846   -0.591143    0.086272
     81          6           0       15.569184    2.335673    0.585590
     82          6           0       20.300810    1.269650    0.262695
     83          6           0       19.232072   -3.412754   -0.512816
     84          6           0       14.516705   -2.320619   -0.522020
     85          7           0       17.883793    1.532484    0.285902
     86          6           0       16.959915    2.535187    0.592822
     87          6           0       17.691893    3.799447    0.929615
     88          6           0       19.099493    3.535618    0.344099
     89          6           0       19.101001    1.986008    0.292181
     90          6           0       19.409495    4.108282   -1.074965
     91          6           0       17.722834    4.190576    2.455071
     92          6           0       17.384700    5.620389    2.734543
     93          1           0       18.290909    6.358204    3.737739
     94          7           0       19.442007   -0.998683    0.012428
     95          6           0       20.503680   -0.098777    0.203644
     96          6           0       21.733177   -0.783710    0.147453
     97          6           0       21.460686   -2.214139   -0.080469
     98          6           0       20.030351   -2.261507   -0.187445
     99          6           0       23.092960   -0.148848    0.163662
    100          6           0       22.411945   -3.470786   -0.292206
    101          8           0       21.952629   -4.577643   -0.445814
    102          6           0       23.925089   -3.331797   -0.204758
    103          7           0       16.942275   -2.561973   -0.551822
    104          6           0       17.876882   -3.528963   -0.741394
    105          6           0       17.175829   -4.888411   -1.221797
    106          6           0       15.635685   -4.615765   -0.928992
    107          6           0       15.677304   -3.053401   -0.648123
    108          6           0       17.418846   -5.304177   -2.699023
    109          6           0       15.054152   -5.432197    0.279689
    110          6           0       13.842041   -6.171123   -0.105627
    111          7           0       15.455398   -0.110663   -0.012841
    112          6           0       14.352232   -0.949391   -0.164301
    113          6           0       13.139231   -0.188921   -0.034028
    114          6           0       13.569003    1.095662    0.229627
    115          6           0       14.927772    1.107293    0.264008
    116          6           0       11.733964   -0.841833   -0.100994
    117          6           0       13.132209    2.459536    0.465396
    118          8           0       12.008329    2.905679    0.393811
    119          6           0       14.453854    3.349161    0.689633
    120          6           0       14.495507    4.409785   -0.333697
    121          8           0       14.494634    4.202963   -1.575600
    122          8           0       14.493312    5.618103    0.299375
    123          6           0       14.151119    6.768711   -0.578135
    124          1           0       21.164862    1.936856    0.287788
    125          1           0       19.723014   -4.362829   -0.732939
    126          1           0       13.605601   -2.860986   -0.785346
    127          1           0       17.348157    4.672746    0.373953
    128          1           0       19.908597    3.916180    0.967735
    129          1           0       18.916548    5.058173   -1.285970
    130          1           0       19.113635    3.344931   -1.795056
    131          1           0       20.465267    4.221275   -1.319969
    132          1           0       18.723942    3.923331    2.792857
    133          1           0       17.074166    3.544994    3.047868
    134          1           0       16.357281    5.524882    3.086165
    135          1           0       17.488848    6.205412    1.820851
    136          1           0       23.662991   -0.276030    1.084246
    137          1           0       22.981895    0.932570    0.095263
    138          1           0       23.798260   -0.415578   -0.622970
    139          1           0       24.314070   -4.348646   -0.240994
    140          1           0       24.224683   -2.726787    0.651492
    141          1           0       24.277446   -2.654531   -0.983290
    142          1           0       17.595270   -5.734150   -0.676672
    143          1           0       15.073140   -4.821322   -1.840919
    144          1           0       17.982030   -4.602414   -3.315087
    145          1           0       16.495348   -5.478866   -3.251614
    146          1           0       17.964171   -6.247907   -2.670697
    147          1           0       14.752652   -4.730410    1.058202
    148          1           0       15.732102   -6.179760    0.691042
    149          1           0       14.115795   -7.208904   -0.297625
    150          1           0       13.224382   -5.790872   -0.918497
    151          1           0       13.115866   -6.119609    0.705692
    152          1           0       11.837853   -1.917969    0.039748
    153          1           0       11.187190   -0.525165   -0.990352
    154          1           0       11.225213   -0.463784    0.784988
    155          1           0       14.475091    3.793529    1.685038
    156          1           0       14.035412    7.675346    0.015541
    157          1           0       13.147685    6.551521   -0.944906
    158          1           0       14.907042    6.799646   -1.363315
 ---------------------------------------------------------------------

 SCF Done:  E(RwB97XD) =  -4070.65799971     A.U. after   19 cycles

 Excitation energies and oscillator strengths:

 Excited State   1:      Singlet-A      1.6894 eV  733.89 nm  f=0.4087  <S**2>=0.000
     310 -> 316        0.18264
     312 -> 314        0.67977
     310 <- 316        0.11508
 This state for optimization and/or second-order correction.
 Total Energy, E(TD-HF/TD-DFT) =  -4070.59591526
 Copying the excited state density for this state as the 1-particle RhoCI density.

 Excited State   2:      Singlet-A      1.6919 eV  732.80 nm  f=0.3589  <S**2>=0.000
     309 -> 315        0.17728
     311 -> 313        0.68131
     309 <- 315        0.11209

 Excited State   3:      Singlet-A      2.1432 eV  578.51 nm  f=0.1507  <S**2>=0.000
     310 -> 314        0.65149
     312 -> 316       -0.25249

 Excited State   4:      Singlet-A      2.1733 eV  570.49 nm  f=0.1453  <S**2>=0.000
     309 -> 313        0.64711
     311 -> 315       -0.26326

 Excited State   5:      Singlet-A      3.1998 eV  387.47 nm  f=0.0021  <S**2>=0.000
     305 -> 314        0.29715
     306 -> 314        0.62278

 The electronic state is 1-A.
 Alpha  occ. eigenvalues --  -46.94303 -46.93541 -19.30870 -19.29316 -19.24933
 Alpha  occ. eigenvalues --  -19.24471 -19.24340 -19.24321 -19.24067 -19.23171
 Alpha  occ. eigenvalues --  -14.47247 -14.46672 -14.46211 -14.46091 -14.44820
 Alpha  occ. eigenvalues --  -14.43968 -14.43877 -14.43148 -10.43275 -10.42867
 Alpha  occ. eigenvalues --  -10.40356 -10.39481 -10.39036 -10.38267 -10.35905
 Alpha  occ. eigenvalues --  -10.35847 -10.35670 -10.35305 -10.35069 -10.34874
 Alpha  occ. eigenvalues --  -10.34835 -10.34800 -10.34733 -10.34687 -10.34649
 Alpha  occ. eigenvalues --  -10.34636 -10.34419 -10.34006 -10.33937 -10.33149
 Alpha  occ. eigenvalues --  -10.33078 -10.32778 -10.32752 -10.32616 -10.32362
 Alpha  occ. eigenvalues --  -10.32180 -10.32168 -10.32150 -10.32034 -10.32022
 Alpha  occ. eigenvalues --  -10.32021 -10.31962 -10.31846 -10.31833 -10.31828
 Alpha  occ. eigenvalues --  -10.31816 -10.31802 -10.31748 -10.31696 -10.31670
 Alpha  occ. eigenvalues --  -10.31633 -10.31487 -10.31476 -10.31469 -10.31196
 Alpha  occ. eigenvalues --  -10.31026 -10.30771 -10.30748 -10.30627 -10.30428
 Alpha  occ. eigenvalues --  -10.30421 -10.30349 -10.30252 -10.30248 -10.29970
 Alpha  occ. eigenvalues --  -10.29952 -10.29851 -10.29850 -10.29699 -10.29645
 Alpha  occ. eigenvalues --  -10.29605 -10.29575 -10.29180 -10.28461 -10.28438
 Alpha  occ. eigenvalues --  -10.28337  -3.20411  -3.19676  -1.94020  -1.93534
 Alpha  occ. eigenvalues --   -1.93401  -1.93277  -1.92794  -1.92676  -1.17929
 Alpha  occ. eigenvalues --   -1.15526  -1.13956  -1.13385  -1.12544  -1.10765
 Alpha  occ. eigenvalues --   -1.08511  -1.07961  -1.07168  -1.06950  -1.05912
 Alpha  occ. eigenvalues --   -1.05362  -1.05347  -1.04569  -1.04508  -1.03508
 Alpha  occ. eigenvalues --   -0.94541  -0.93996  -0.91184  -0.91071  -0.90805
 Alpha  occ. eigenvalues --   -0.90552  -0.90319  -0.89936  -0.89755  -0.89371
 Alpha  occ. eigenvalues --   -0.88961  -0.88380  -0.88155  -0.87765  -0.86214
 Alpha  occ. eigenvalues --   -0.86204  -0.85701  -0.84848  -0.84811  -0.84108
 Alpha  occ. eigenvalues --   -0.84051  -0.83415  -0.83141  -0.82632  -0.82300
 Alpha  occ. eigenvalues --   -0.81943  -0.80765  -0.80230  -0.79241  -0.79145
 Alpha  occ. eigenvalues --   -0.78732  -0.78687  -0.77757  -0.77647  -0.76963
 Alpha  occ. eigenvalues --   -0.76826  -0.75079  -0.74864  -0.73572  -0.72914
 Alpha  occ. eigenvalues --   -0.71531  -0.70874  -0.70601  -0.70025  -0.69915
 Alpha  occ. eigenvalues --   -0.69520  -0.69277  -0.68525  -0.67684  -0.67459
 Alpha  occ. eigenvalues --   -0.67149  -0.67099  -0.66930  -0.66584  -0.66580
 Alpha  occ. eigenvalues --   -0.66049  -0.63932  -0.63344  -0.62395  -0.62338
 Alpha  occ. eigenvalues --   -0.62095  -0.61566  -0.61295  -0.61252  -0.60505
 Alpha  occ. eigenvalues --   -0.60149  -0.59706  -0.59690  -0.59589  -0.59275
 Alpha  occ. eigenvalues --   -0.58250  -0.58185  -0.57642  -0.57418  -0.56967
 Alpha  occ. eigenvalues --   -0.56887  -0.56528  -0.55918  -0.55718  -0.55535
 Alpha  occ. eigenvalues --   -0.55387  -0.55346  -0.55115  -0.54854  -0.54571
 Alpha  occ. eigenvalues --   -0.54503  -0.54403  -0.54243  -0.54189  -0.53919
 Alpha  occ. eigenvalues --   -0.53826  -0.53746  -0.53514  -0.53450  -0.52970
 Alpha  occ. eigenvalues --   -0.52865  -0.52809  -0.52474  -0.52445  -0.52105
 Alpha  occ. eigenvalues --   -0.52056  -0.51744  -0.51739  -0.51612  -0.51456
 Alpha  occ. eigenvalues --   -0.51358  -0.51348  -0.51172  -0.51109  -0.50968
 Alpha  occ. eigenvalues --   -0.50646  -0.50544  -0.50268  -0.50021  -0.49891
 Alpha  occ. eigenvalues --   -0.49581  -0.49564  -0.49387  -0.49168  -0.49167
 Alpha  occ. eigenvalues --   -0.49032  -0.48808  -0.48756  -0.48579  -0.48571
 Alpha  occ. eigenvalues --   -0.48386  -0.48064  -0.47777  -0.47717  -0.47677
 Alpha  occ. eigenvalues --   -0.47318  -0.47001  -0.46990  -0.46901  -0.46692
 Alpha  occ. eigenvalues --   -0.46620  -0.46587  -0.46465  -0.46403  -0.46286
 Alpha  occ. eigenvalues --   -0.46192  -0.46049  -0.45779  -0.45353  -0.45258
 Alpha  occ. eigenvalues --   -0.45247  -0.44914  -0.44864  -0.44787  -0.44783
 Alpha  occ. eigenvalues --   -0.44573  -0.44535  -0.44471  -0.44302  -0.43889
 Alpha  occ. eigenvalues --   -0.43874  -0.43789  -0.43723  -0.43425  -0.43151
 Alpha  occ. eigenvalues --   -0.43138  -0.42882  -0.42654  -0.42348  -0.42139
 Alpha  occ. eigenvalues --   -0.41966  -0.41743  -0.41294  -0.41046  -0.40735
 Alpha  occ. eigenvalues --   -0.40515  -0.40276  -0.39900  -0.39772  -0.39758
 Alpha  occ. eigenvalues --   -0.39213  -0.38931  -0.38766  -0.38405  -0.38070
 Alpha  occ. eigenvalues --   -0.37920  -0.37732  -0.36421  -0.36236  -0.36102
 Alpha  occ. eigenvalues --   -0.35877  -0.35512  -0.35377  -0.33817  -0.33745
 Alpha  occ. eigenvalues --   -0.33484  -0.33129  -0.32832  -0.32716  -0.32162
 Alpha  occ. eigenvalues --   -0.31751  -0.31713  -0.31560  -0.26109  -0.25884
 Alpha  occ. eigenvalues --   -0.23353  -0.23341
 Alpha virt. eigenvalues --   -0.07382  -0.07372   0.00288   0.00639   0.02275
 Alpha virt. eigenvalues --    0.02781   0.04523   0.04870   0.06472   0.06695
 Alpha virt. eigenvalues --    0.06875   0.06935   0.07924   0.08043   0.08624

 Mulliken charges:
               1
     1  Mg   0.981259
     2  C   -0.071186
     3  C   -0.108035
     4  C   -0.077338
     5  C   -0.077081
     6  N   -0.334064
     7  C    0.003470
     8  C   -0.040147
     9  C   -0.140203
    10  C    0.072983
    11  C    0.018675
    12  C    0.018238
    13  C   -0.105799
    14  H    0.036576
    15  N   -0.531797
    16  C    0.234316
    17  C   -0.151227
    18  C   -0.045562
    19  C    0.152512
    20  C    0.052264
    21  C    0.017262
    22  O   -0.224883
    23  C   -0.005444
    24  N   -0.321190
    25  C    0.055827
    26  C   -0.094083
    27  C   -0.043753
    28  C    0.027557
    29  C    0.014759
    30  C   -0.005373
    31  C   -0.042810
    32  N   -0.449344
    33  C    0.125214
    34  C   -0.138941
    35  C   -0.084656
    36  C    0.187789
    37  C    0.059666
    38  C    0.113554
    39  O   -0.211586
    40  C   -0.083725
    41  C    0.288645
    42  O   -0.260399
    43  O   -0.404813
    44  C    0.141024
    45  H    0.004109
    46  H    0.032117
    47  H    0.000475
    48  H    0.043857
    49  H    0.038794
    50  H    0.033384
    51  H    0.049320
    52  H    0.023055
    53  H    0.024327
    54  H    0.025350
    55  H    0.048788
    56  H    0.067376
    57  H    0.063466
    58  H    0.049840
    59  H    0.030819
    60  H    0.053393
    61  H    0.055981
    62  H    0.038227
    63  H    0.048257
    64  H    0.027403
    65  H    0.030070
    66  H    0.045631
    67  H    0.051240
    68  H    0.026144
    69  H    0.026634
    70  H    0.037040
    71  H    0.054526
    72  H    0.027420
    73  H    0.054087
    74  H    0.037476
    75  H    0.064176
    76  H    0.072231
    77  H    0.058627
    78  H    0.054480
    79  H    0.053728
    80  Mg   0.978705
    81  C   -0.032924
    82  C   -0.099767
    83  C   -0.063616
    84  C   -0.089467
    85  N   -0.322067
    86  C    0.015304
    87  C   -0.082521
    88  C   -0.128283
    89  C    0.030489
    90  C    0.020639
    91  C    0.044940
    92  C   -0.121210
    93  H    0.030775
    94  N   -0.523231
    95  C    0.242059
    96  C   -0.149238
    97  C   -0.081344
    98  C    0.154546
    99  C    0.041795
   100  C    0.076233
   101  O   -0.213753
   102  C   -0.007751
   103  N   -0.359374
   104  C    0.071791
   105  C   -0.108406
   106  C   -0.079627
   107  C    0.063573
   108  C    0.008307
   109  C    0.027448
   110  C   -0.074074
   111  N   -0.443838
   112  C    0.130100
   113  C   -0.214703
   114  C    0.007927
   115  C    0.121585
   116  C    0.094281
   117  C    0.108319
   118  O   -0.190820
   119  C   -0.041892
   120  C    0.275576
   121  O   -0.281890
   122  O   -0.372069
   123  C    0.141502
   124  H   -0.011145
   125  H    0.021681
   126  H   -0.003594
   127  H    0.026720
   128  H    0.025640
   129  H    0.045058
   130  H    0.043278
   131  H    0.033152
   132  H    0.030088
   133  H    0.030062
   134  H    0.065259
   135  H    0.054132
   136  H    0.051091
   137  H    0.023073
   138  H    0.045390
   139  H    0.070855
   140  H    0.046667
   141  H    0.048721
   142  H    0.037832
   143  H    0.037810
   144  H    0.044185
   145  H    0.029771
   146  H    0.037014
   147  H    0.035334
   148  H    0.037521
   149  H    0.038907
   150  H    0.028242
   151  H    0.026638
   152  H    0.030817
   153  H    0.066530
   154  H    0.049350
   155  H    0.057581
   156  H    0.060417
   157  H    0.064211
   158  H    0.067681
 Sum of Mulliken charges =  -0.00000

 Dipole moment (field-independent basis, Debye):
    X=              4.1344    Y=             -0.3904    Z=              7.0225  Tot=              8.1585
 Quadrupole moment (field-independent basis, Debye-Ang):
   XX=           -357.6856   YY=           -486.3258   ZZ=           -501.4863
   XY=             58.5822   XZ=            -73.6098   YZ=             38.3347

 Normal termination of Gaussian 16 at Mon Sep 20 08:32:26 2021.
