 Gaussian 16, Revision A.03,
 Gaussian 16:  ES64L-G16RevA.03 25-Dec-2016

 --------------------------------
 #p wB97XD/Def2SVP td=(nstates=5)
 --------------------------------

 --------------------------------
 TDDFT excited states in gaussian
 --------------------------------
 Symbolic Z-matrix:
 Charge =  0 Multiplicity = 1

                         Standard orientation:
 ---------------------------------------------------------------------
 Center     Atomic      Atomic             Coordinates (Angstroms)
 Number     Number       Type             X           Y           Z
 ---------------------------------------------------------------------
      1         12           0       26.038036    0.378372    0.523814
      2          6           0       24.554612   -1.863429   -1.677020
      3          6           0       25.923667    2.682420   -2.066158
      4          6           0       27.938254    2.419071    2.470855
      5          6           0       26.209251   -2.121200    2.906821
      6          7           0       25.367735    0.379772   -1.644114
      7          6           0       24.746803   -0.646626   -2.339502
      8          6           0       24.455128   -0.305740   -3.853634
      9          6           0       25.225889    1.065897   -3.972879
     10          6           0       25.573880    1.404788   -2.476583
     11          6           0       26.495663    1.187903   -4.820400
     12          6           0       22.940183   -0.264321   -4.125399
     13          6           0       22.353947   -1.402249   -4.918875
     14          1           0       21.224581   -1.051536   -5.903811
     15          7           0       26.673276    2.345443    0.363396
     16          6           0       26.440252    3.095399   -0.746984
     17          6           0       27.066758    4.403907   -0.475522
     18          6           0       27.734464    4.337973    0.757364
     19          6           0       27.479254    3.048535    1.271230
     20          6           0       26.841098    5.553401   -1.371696
     21          6           0       28.592392    5.356789    1.448678
     22          8           0       29.046697    5.206401    2.616839
     23          6           0       29.012250    6.584450    0.849486
     24          7           0       26.854774    0.216291    2.400386
     25          6           0       27.574932    1.194542    3.014343
     26          6           0       28.068864    0.813904    4.354417
     27          6           0       27.471870   -0.626662    4.544664
     28          6           0       26.877043   -0.868637    3.208458
     29          6           0       29.573763    0.852415    4.752322
     30          6           0       26.500596   -0.809570    5.813368
     31          6           0       24.983180   -0.459599    5.780096
     32          7           0       25.556134   -1.594373    0.651618
     33          6           0       25.644738   -2.476705    1.689585
     34          6           0       24.964944   -3.657286    1.377625
     35          6           0       24.596532   -3.462097   -0.009080
     36          6           0       24.958316   -2.182001   -0.378752
     37          6           0       24.680701   -4.848504    2.290663
     38          6           0       23.852385   -4.085504   -1.065535
     39          8           0       23.201368   -5.105795   -1.163145
     40          6           0       24.007951   -3.124047   -2.295586
     41          6           0       24.927517   -3.719787   -3.285108
     42          8           0       26.062198   -3.295016   -3.595465
     43          8           0       24.466930   -4.847088   -3.870014
     44          6           0       25.190049   -5.417601   -5.057411
     45          1           0       25.942897    3.381565   -2.904018
     46          1           0       28.579860    3.011308    3.126923
     47          1           0       26.071391   -2.900974    3.659417
     48          1           0       25.063543   -0.903036   -4.533535
     49          1           0       24.485921    1.783697   -4.326739
     50          1           0       27.364756    1.328638   -4.177333
     51          1           0       26.425141    2.147140   -5.331106
     52          1           0       26.679755    0.366222   -5.513397
     53          1           0       22.787444    0.629649   -4.731175
     54          1           0       22.430035   -0.101912   -3.175941
     55          1           0       21.953833   -2.123723   -4.206010
     56          1           0       23.067340   -1.989658   -5.497077
     57          1           0       26.324299    6.287938   -0.755408
     58          1           0       26.279888    5.415143   -2.296735
     59          1           0       27.800471    5.974012   -1.672903
     60          1           0       29.326257    6.316527   -0.158992
     61          1           0       29.693363    7.123409    1.506787
     62          1           0       28.161979    7.239122    0.658150
     63          1           0       27.528550    1.548761    4.950482
     64          1           0       28.286647   -1.343637    4.638469
     65          1           0       29.775824    1.601742    5.517736
     66          1           0       30.199224    1.126330    3.902017
     67          1           0       29.961970   -0.114162    5.073249
     68          1           0       26.943239   -0.122802    6.535151
     69          1           0       26.718288   -1.843955    6.079798
     70          1           0       24.578084   -0.229030    4.795124
     71          1           0       24.639739    0.254913    6.528715
     72          1           0       24.507409   -1.371186    6.139304
     73          1           0       25.066834   -5.780475    1.876502
     74          1           0       23.598879   -4.971094    2.340356
     75          1           0       25.006165   -4.716676    3.322889
     76          1           0       23.054711   -3.119427   -2.824459
     77          1           0       24.393078   -6.085364   -5.384869
     78          1           0       26.119588   -5.937041   -4.826847
     79          1           0       25.410742   -4.622252   -5.769994
     80         12           0      -26.184156   -0.748409   -0.488690
     81          6           0      -24.801418    2.516177   -0.658905
     82          6           0      -23.013420   -1.881678    0.421949
     83          6           0      -27.696523   -3.385219    0.774688
     84          6           0      -29.418024    0.836523   -1.147519
     85          7           0      -24.151104    0.310013    0.087728
     86          6           0      -23.812653    1.555733   -0.327900
     87          6           0      -22.306232    1.722621   -0.240134
     88          6           0      -21.762361    0.313950   -0.479035
     89          6           0      -23.034618   -0.494534    0.096045
     90          6           0      -21.481933   -0.126706   -1.916924
     91          6           0      -21.926288    2.421766    1.137428
     92          6           0      -20.923805    3.494441    0.966177
     93          1           0      -19.797350    3.592190    2.013323
     94          7           0      -25.478615   -2.447835    0.539196
     95          6           0      -24.111782   -2.762721    0.740708
     96          6           0      -24.081944   -4.060692    1.366447
     97          6           0      -25.393848   -4.601705    1.421601
     98          6           0      -26.284270   -3.489699    0.932254
     99          6           0      -22.759786   -4.682781    1.804442
    100          6           0      -25.776232   -5.911081    1.989819
    101          8           0      -24.900893   -6.631111    2.454003
    102          6           0      -27.158589   -6.451322    2.156481
    103          7           0      -28.358813   -1.142996   -0.143678
    104          6           0      -28.624677   -2.416742    0.207968
    105          6           0      -30.132558   -2.707368    0.099913
    106          6           0      -30.711699   -1.394003   -0.674583
    107          6           0      -29.439451   -0.508313   -0.712831
    108          6           0      -30.490440   -4.127198   -0.532207
    109          6           0      -31.957002   -0.720317   -0.017729
    110          6           0      -31.714627    0.537036    0.885140
    111          7           0      -26.963410    1.169062   -0.829156
    112          6           0      -28.276076    1.623593   -1.142477
    113          6           0      -28.190308    3.081842   -1.589610
    114          6           0      -26.866030    3.411665   -1.349325
    115          6           0      -26.175958    2.224242   -0.913479
    116          6           0      -29.243875    4.073119   -2.120263
    117          6           0      -25.902830    4.461761   -1.450035
    118          8           0      -26.011744    5.604444   -1.897815
    119          6           0      -24.650279    3.912567   -0.866303
    120          6           0      -24.538167    4.661743    0.481199
    121          8           0      -25.151716    4.422701    1.519171
    122          8           0      -23.637607    5.745290    0.284738
    123          6           0      -23.455741    6.659413    1.338134
    124          1           0      -22.032181   -2.318298    0.620063
    125          1           0      -28.084711   -4.365871    1.056920
    126          1           0      -30.305764    1.363629   -1.501288
    127          1           0      -21.889312    2.312098   -1.056572
    128          1           0      -20.843999   -0.013552    0.006906
    129          1           0      -21.378470    0.700650   -2.618384
    130          1           0      -22.136784   -0.943317   -2.221912
    131          1           0      -20.482918   -0.556091   -1.832975
    132          1           0      -21.481269    1.674291    1.794282
    133          1           0      -22.784477    2.727834    1.735797
    134          1           0      -21.554864    4.382418    0.957258
    135          1           0      -20.446918    3.363266   -0.005033
    136          1           0      -22.426820   -5.482178    1.142763
    137          1           0      -22.849929   -4.996950    2.843256
    138          1           0      -21.966884   -3.934870    1.788779
    139          1           0      -27.564230   -6.657616    1.165722
    140          1           0      -27.856866   -5.813422    2.699707
    141          1           0      -27.147245   -7.466705    2.550810
    142          1           0      -30.464679   -2.649026    1.136223
    143          1           0      -30.901435   -1.661832   -1.713442
    144          1           0      -29.668375   -4.831513   -0.405484
    145          1           0      -30.883416   -4.171520   -1.548629
    146          1           0      -31.416791   -4.384112   -0.016044
    147          1           0      -32.555510   -1.425820    0.558029
    148          1           0      -32.520243   -0.388743   -0.889700
    149          1           0      -32.547940    0.344440    1.561265
    150          1           0      -31.834106    1.523180    0.435893
    151          1           0      -30.757970    0.399527    1.389541
    152          1           0      -28.966534    4.448413   -3.104702
    153          1           0      -29.013314    4.882808   -1.428572
    154          1           0      -30.225179    3.629657   -1.952899
    155          1           0      -23.804519    4.189118   -1.495936
    156          1           0      -22.763042    7.473136    1.119792
    157          1           0      -23.058101    6.102657    2.185728
    158          1           0      -24.449901    7.062500    1.533255
 ---------------------------------------------------------------------

 SCF Done:  E(RwB97XD) =  -4070.56868765     A.U. after   20 cycles

 Excitation energies and oscillator strengths:

 Excited State   1:      Singlet-A      1.6239 eV  763.48 nm  f=0.3450  <S**2>=0.000
     309 -> 315        0.20433
     312 -> 314        0.67795
     309 <- 315        0.12289
 This state for optimization and/or second-order correction.
 Total Energy, E(TD-HF/TD-DFT) =  -4070.50900915
 Copying the excited state density for this state as the 1-particle RhoCI density.

 Excited State   2:      Singlet-A      1.6445 eV  753.95 nm  f=0.3925  <S**2>=0.000
     310 -> 316        0.18303
     311 -> 313        0.68253
     310 <- 316        0.11718

 Excited State   3:      Singlet-A      2.1336 eV  581.11 nm  f=0.0542  <S**2>=0.000
     309 -> 314        0.61276
     312 -> 315       -0.34222

 Excited State   4:      Singlet-A      2.1515 eV  576.26 nm  f=0.1376  <S**2>=0.000
     310 -> 313        0.64867
     311 -> 316       -0.26448

 Excited State   5:      Singlet-A      3.3480 eV  370.32 nm  f=0.0039  <S**2>=0.000
     304 -> 313       -0.18867
     308 -> 313        0.65709

 The electronic state is 1-A.
 Alpha  occ. eigenvalues --  -46.97662 -46.93878 -19.29958 -19.29262 -19.26350
 Alpha  occ. eigenvalues --  -19.23999 -19.23270 -19.23194 -19.22997 -19.22575
 Alpha  occ. eigenvalues --  -14.46998 -14.46610 -14.46520 -14.46448 -14.44841
 Alpha  occ. eigenvalues --  -14.44350 -14.44151 -14.42948 -10.44508 -10.42357
 Alpha  occ. eigenvalues --  -10.38590 -10.38467 -10.38184 -10.38064 -10.35856
 Alpha  occ. eigenvalues --  -10.35750 -10.35465 -10.35464 -10.35364 -10.35053
 Alpha  occ. eigenvalues --  -10.35001 -10.34870 -10.34793 -10.34780 -10.34668
 Alpha  occ. eigenvalues --  -10.34486 -10.34131 -10.34122 -10.34081 -10.33578
 Alpha  occ. eigenvalues --  -10.33496 -10.32877 -10.32840 -10.32578 -10.32536
 Alpha  occ. eigenvalues --  -10.32510 -10.32461 -10.32448 -10.32268 -10.32266
 Alpha  occ. eigenvalues --  -10.32219 -10.32174 -10.31948 -10.31882 -10.31862
 Alpha  occ. eigenvalues --  -10.31785 -10.31708 -10.31650 -10.31618 -10.31463
 Alpha  occ. eigenvalues --  -10.31418 -10.31351 -10.31326 -10.31180 -10.31120
 Alpha  occ. eigenvalues --  -10.31087 -10.31077 -10.31045 -10.30835 -10.30813
 Alpha  occ. eigenvalues --  -10.30796 -10.30773 -10.30671 -10.30228 -10.30193
 Alpha  occ. eigenvalues --  -10.30175 -10.29956 -10.29849 -10.29779 -10.29629
 Alpha  occ. eigenvalues --  -10.29531 -10.29516 -10.29514 -10.29185 -10.29047
 Alpha  occ. eigenvalues --  -10.28654  -3.23367  -3.20005  -1.96882  -1.96529
 Alpha  occ. eigenvalues --   -1.96278  -1.93610  -1.93140  -1.92984  -1.17995
 Alpha  occ. eigenvalues --   -1.17286  -1.11855  -1.11758  -1.11549  -1.10864
 Alpha  occ. eigenvalues --   -1.10147  -1.07256  -1.06879  -1.06214  -1.06114
 Alpha  occ. eigenvalues --   -1.05448  -1.05249  -1.04872  -1.04281  -1.03301
 Alpha  occ. eigenvalues --   -0.96410  -0.95067  -0.91036  -0.90884  -0.90628
 Alpha  occ. eigenvalues --   -0.90331  -0.90201  -0.89686  -0.89534  -0.89211
 Alpha  occ. eigenvalues --   -0.88928  -0.88793  -0.88043  -0.87510  -0.86698
 Alpha  occ. eigenvalues --   -0.86278  -0.85575  -0.85561  -0.84729  -0.84615
 Alpha  occ. eigenvalues --   -0.84340  -0.83560  -0.82923  -0.82812  -0.82493
 Alpha  occ. eigenvalues --   -0.82241  -0.80520  -0.79990  -0.79420  -0.79198
 Alpha  occ. eigenvalues --   -0.78806  -0.78773  -0.78129  -0.77968  -0.77229
 Alpha  occ. eigenvalues --   -0.77155  -0.75087  -0.74748  -0.73832  -0.73313
 Alpha  occ. eigenvalues --   -0.72020  -0.71841  -0.70722  -0.70721  -0.69964
 Alpha  occ. eigenvalues --   -0.69257  -0.69102  -0.68824  -0.67311  -0.67132
 Alpha  occ. eigenvalues --   -0.67017  -0.66919  -0.66699  -0.66621  -0.66554
 Alpha  occ. eigenvalues --   -0.66366  -0.64223  -0.63472  -0.61954  -0.61927
 Alpha  occ. eigenvalues --   -0.61769  -0.61605  -0.61274  -0.61141  -0.60866
 Alpha  occ. eigenvalues --   -0.60586  -0.60272  -0.59722  -0.59287  -0.59014
 Alpha  occ. eigenvalues --   -0.58148  -0.58100  -0.57940  -0.57622  -0.57554
 Alpha  occ. eigenvalues --   -0.56870  -0.56856  -0.56513  -0.56341  -0.55769
 Alpha  occ. eigenvalues --   -0.55641  -0.55302  -0.55186  -0.54978  -0.54838
 Alpha  occ. eigenvalues --   -0.54573  -0.54449  -0.54375  -0.54095  -0.53959
 Alpha  occ. eigenvalues --   -0.53894  -0.53806  -0.53611  -0.53336  -0.53251
 Alpha  occ. eigenvalues --   -0.53002  -0.52792  -0.52483  -0.52290  -0.52089
 Alpha  occ. eigenvalues --   -0.52088  -0.51904  -0.51713  -0.51566  -0.51402
 Alpha  occ. eigenvalues --   -0.51364  -0.51168  -0.50908  -0.50907  -0.50714
 Alpha  occ. eigenvalues --   -0.50426  -0.50356  -0.50181  -0.50090  -0.49831
 Alpha  occ. eigenvalues --   -0.49706  -0.49702  -0.49403  -0.49170  -0.49117
 Alpha  occ. eigenvalues --   -0.48776  -0.48692  -0.48457  -0.48159  -0.48014
 Alpha  occ. eigenvalues --   -0.47918  -0.47902  -0.47831  -0.47800  -0.47606
 Alpha  occ. eigenvalues --   -0.47365  -0.47303  -0.47234  -0.47180  -0.47085
 Alpha  occ. eigenvalues --   -0.47064  -0.46699  -0.46490  -0.46370  -0.46172
 Alpha  occ. eigenvalues --   -0.46027  -0.45895  -0.45817  -0.45802  -0.45696
 Alpha  occ. eigenvalues --   -0.45445  -0.45348  -0.45214  -0.44992  -0.44835
 Alpha  occ. eigenvalues --   -0.44687  -0.44393  -0.44347  -0.43972  -0.43518
 Alpha  occ. eigenvalues --   -0.43495  -0.43409  -0.43308  -0.43031  -0.42965
 Alpha  occ. eigenvalues --   -0.42876  -0.42687  -0.42330  -0.42234  -0.42007
 Alpha  occ. eigenvalues --   -0.41955  -0.41590  -0.41065  -0.40825  -0.40503
 Alpha  occ. eigenvalues --   -0.40179  -0.40132  -0.39884  -0.39807  -0.39630
 Alpha  occ. eigenvalues --   -0.38845  -0.38600  -0.38537  -0.38387  -0.38318
 Alpha  occ. eigenvalues --   -0.37724  -0.37606  -0.37182  -0.36303  -0.36228
 Alpha  occ. eigenvalues --   -0.35615  -0.35447  -0.34756  -0.33535  -0.33212
 Alpha  occ. eigenvalues --   -0.32985  -0.32715  -0.32545  -0.32155  -0.32143
 Alpha  occ. eigenvalues --   -0.31925  -0.31632  -0.31485  -0.25966  -0.25551
 Alpha  occ. eigenvalues --   -0.22914  -0.22834
 Alpha virt. eigenvalues --   -0.07044  -0.06883  -0.00731   0.00612   0.01851
 Alpha virt. eigenvalues --    0.02753   0.02925   0.04314   0.04462   0.06634
 Alpha virt. eigenvalues --    0.06850   0.07492   0.07568   0.08088   0.08409

 Mulliken charges:
               1
     1  Mg   0.983983
     2  C   -0.026362
     3  C   -0.065125
     4  C   -0.072352
     5  C   -0.099186
     6  N   -0.335740
     7  C   -0.019349
     8  C   -0.045857
     9  C   -0.130700
    10  C    0.025674
    11  C    0.037434
    12  C    0.055255
    13  C   -0.144123
    14  H    0.038393
    15  N   -0.481752
    16  C    0.183517
    17  C   -0.191573
    18  C   -0.022578
    19  C    0.131706
    20  C    0.056710
    21  C    0.038538
    22  O   -0.281136
    23  C    0.024478
    24  N   -0.375329
    25  C    0.076338
    26  C   -0.094261
    27  C   -0.055026
    28  C    0.063734
    29  C    0.027626
    30  C   -0.032314
    31  C   -0.043697
    32  N   -0.452852
    33  C    0.130450
    34  C   -0.169531
    35  C   -0.056338
    36  C    0.216174
    37  C    0.092244
    38  C    0.091601
    39  O   -0.190085
    40  C   -0.123876
    41  C    0.263115
    42  O   -0.290753
    43  O   -0.356960
    44  C    0.146634
    45  H   -0.009018
    46  H    0.021586
    47  H   -0.013539
    48  H    0.038413
    49  H    0.026756
    50  H    0.047604
    51  H    0.032121
    52  H    0.052278
    53  H    0.035798
    54  H    0.047026
    55  H    0.065132
    56  H    0.052658
    57  H    0.057312
    58  H    0.043339
    59  H    0.035697
    60  H    0.042655
    61  H    0.066646
    62  H    0.043754
    63  H    0.047304
    64  H    0.036193
    65  H    0.044665
    66  H    0.039203
    67  H    0.036234
    68  H    0.035244
    69  H    0.040164
    70  H    0.056351
    71  H    0.040424
    72  H    0.028982
    73  H    0.060715
    74  H    0.053785
    75  H    0.024502
    76  H    0.056512
    77  H    0.066041
    78  H    0.067030
    79  H    0.053685
    80  Mg   0.936544
    81  C    0.010938
    82  C   -0.075255
    83  C   -0.029870
    84  C   -0.064714
    85  N   -0.298190
    86  C   -0.021806
    87  C   -0.051740
    88  C   -0.134233
    89  C    0.044076
    90  C    0.038292
    91  C    0.033598
    92  C   -0.116988
    93  H    0.034896
    94  N   -0.490236
    95  C    0.145740
    96  C   -0.165537
    97  C   -0.025024
    98  C    0.111632
    99  C    0.096269
   100  C   -0.007060
   101  O   -0.246413
   102  C    0.014093
   103  N   -0.325788
   104  C    0.063021
   105  C   -0.098304
   106  C   -0.020494
   107  C    0.007757
   108  C    0.005971
   109  C   -0.047126
   110  C   -0.047947
   111  N   -0.422909
   112  C    0.106687
   113  C   -0.210692
   114  C   -0.023561
   115  C    0.162107
   116  C    0.090947
   117  C    0.075762
   118  O   -0.216290
   119  C   -0.055168
   120  C    0.276690
   121  O   -0.229476
   122  O   -0.374875
   123  C    0.144802
   124  H    0.004555
   125  H   -0.047414
   126  H   -0.000843
   127  H    0.012665
   128  H    0.029587
   129  H    0.042133
   130  H    0.047024
   131  H    0.028408
   132  H    0.032682
   133  H    0.056469
   134  H    0.045287
   135  H    0.046264
   136  H    0.058337
   137  H    0.061379
   138  H    0.009505
   139  H    0.040869
   140  H    0.071625
   141  H    0.046916
   142  H    0.050776
   143  H    0.037822
   144  H    0.052425
   145  H    0.033867
   146  H    0.031528
   147  H    0.040220
   148  H    0.030982
   149  H    0.035590
   150  H    0.046417
   151  H    0.060435
   152  H    0.072924
   153  H    0.067992
   154  H    0.038969
   155  H    0.061005
   156  H    0.058023
   157  H    0.041815
   158  H    0.053637
 Sum of Mulliken charges =  -0.00000

 Dipole moment (field-independent basis, Debye):
    X=             -1.8923    Y=              1.7011    Z=             -4.3429  Tot=              5.0334
 Quadrupole moment (field-independent basis, Debye-Ang):
   XX=           -377.0033   YY=           -544.2907   ZZ=           -484.5132
   XY=            102.4076   XZ=             57.8278   YZ=              0.0167

 Normal termination of Gaussian 16 at Sat Sep 18 19:56:16 2021.
