 Gaussian 16, Revision A.03,
 Gaussian 16:  ES64L-G16RevA.03 25-Dec-2016

 --------------------------------
 #p wB97XD/Def2SVP td=(nstates=5)
 --------------------------------

 --------------------------------
 TDDFT excited states in gaussian
 --------------------------------
 Symbolic Z-matrix:
 Charge =  0 Multiplicity = 1

                         Standard orientation:
 ---------------------------------------------------------------------
 Center     Atomic      Atomic             Coordinates (Angstroms)
 Number     Number       Type             X           Y           Z
 ---------------------------------------------------------------------
      1         12           0      -13.907787   -0.510662    0.279167
      2          6           0      -12.940276    2.888760   -0.870341
      3          6           0      -12.390937    0.391333    3.161785
      4          6           0      -14.526777   -3.522637    1.048896
      5          6           0      -14.605968   -1.206807   -3.141628
      6          7           0      -12.767407    1.394473    0.996440
      7          6           0      -12.681421    2.656319    0.432948
      8          6           0      -12.185262    3.749023    1.386807
      9          6           0      -11.593921    2.834699    2.503800
     10          6           0      -12.267129    1.433089    2.236800
     11          6           0      -10.101107    2.734254    2.521843
     12          6           0      -13.229514    4.815940    1.858118
     13          6           0      -12.738373    6.190531    2.167958
     14          1           0      -13.424470    6.878739    3.343736
     15          7           0      -13.553030   -1.472810    1.944131
     16          6           0      -12.952754   -0.924866    3.097060
     17          6           0      -13.073575   -1.890221    4.151269
     18          6           0      -13.848532   -2.972885    3.546334
     19          6           0      -13.990556   -2.662866    2.169546
     20          6           0      -12.621606   -1.664108    5.641384
     21          6           0      -14.368209   -4.174727    4.274228
     22          8           0      -14.974420   -5.101144    3.682902
     23          6           0      -14.257602   -4.345959    5.745296
     24          7           0      -14.327315   -2.195732   -0.849796
     25          6           0      -14.575164   -3.379923   -0.286580
     26          6           0      -15.000103   -4.488379   -1.302363
     27          6           0      -15.431062   -3.561165   -2.499239
     28          6           0      -14.706404   -2.225045   -2.179581
     29          6           0      -13.808115   -5.419700   -1.694292
     30          6           0      -16.999865   -3.330689   -2.548742
     31          6           0      -17.945260   -4.550265   -2.564719
     32          7           0      -13.849708    0.591892   -1.621207
     33          6           0      -14.231662    0.161740   -2.886834
     34          6           0      -14.023156    1.223597   -3.843234
     35          6           0      -13.558654    2.312318   -3.094283
     36          6           0      -13.380459    1.870519   -1.754493
     37          6           0      -14.383131    1.208467   -5.290826
     38          6           0      -13.152024    3.708300   -3.188025
     39          8           0      -13.127327    4.527017   -4.097446
     40          6           0      -12.825810    4.111786   -1.657606
     41          6           0      -11.511090    4.729255   -1.688516
     42          8           0      -10.442869    4.191651   -2.020428
     43          8           0      -11.689295    6.082586   -1.723924
     44          6           0      -10.549511    6.936669   -1.823418
     45          1           0      -12.019793    0.798249    4.104909
     46          1           0      -14.755839   -4.566846    1.270796
     47          1           0      -14.851727   -1.475878   -4.171398
     48          1           0      -11.367045    4.264709    0.883675
     49          1           0      -11.987475    3.119404    3.479138
     50          1           0       -9.845135    1.746494    2.138501
     51          1           0       -9.743268    2.771448    3.550659
     52          1           0       -9.543320    3.467431    1.939573
     53          1           0      -13.656111    4.446753    2.790322
     54          1           0      -14.031769    4.830175    1.120849
     55          1           0      -12.952512    6.747242    1.255864
     56          1           0      -11.650223    6.254846    2.177100
     57          1           0      -13.426698   -1.500113    6.357037
     58          1           0      -11.877629   -0.871344    5.714921
     59          1           0      -12.105052   -2.601995    5.849192
     60          1           0      -13.227862   -4.616086    5.980718
     61          1           0      -14.934709   -5.162842    5.996435
     62          1           0      -14.616250   -3.419021    6.191564
     63          1           0      -15.799930   -5.046426   -0.814411
     64          1           0      -15.104038   -3.882986   -3.487505
     65          1           0      -14.037470   -6.401967   -1.280444
     66          1           0      -12.817497   -5.075726   -1.398646
     67          1           0      -13.903923   -5.447088   -2.780656
     68          1           0      -17.241000   -2.807760   -3.473909
     69          1           0      -17.226038   -2.633155   -1.742468
     70          1           0      -18.574901   -4.420820   -1.684565
     71          1           0      -17.280486   -5.401864   -2.417147
     72          1           0      -18.563706   -4.590229   -3.461269
     73          1           0      -15.023104    0.332438   -5.398699
     74          1           0      -13.446183    1.074396   -5.831358
     75          1           0      -14.834393    2.134412   -5.647279
     76          1           0      -13.577236    4.814683   -1.298351
     77          1           0       -9.618191    6.369911   -1.827040
     78          1           0      -10.569223    7.539045   -0.915117
     79          1           0      -10.653364    7.640907   -2.647638
     80         12           0       13.137882   -0.824788   -0.448438
     81          6           0       15.424110    1.756279    0.140549
     82          6           0       10.665913    1.118617    0.490865
     83          6           0       11.082539   -3.574599   -0.314620
     84          6           0       15.834595   -3.045533   -0.959854
     85          7           0       13.096671    1.202998    0.124027
     86          6           0       14.103104    2.134759    0.253007
     87          6           0       13.550808    3.534919    0.486956
     88          6           0       12.053778    3.229471    0.813660
     89          6           0       11.898579    1.819317    0.361159
     90          6           0       11.513513    3.524103    2.196347
     91          6           0       13.805597    4.544924   -0.677181
     92          6           0       13.276996    5.963394   -0.437821
     93          1           0       14.276154    7.092105   -0.645643
     94          7           0       11.059402   -1.198263    0.110000
     95          6           0       10.178551   -0.200103    0.330222
     96          6           0        8.857113   -0.752320    0.443437
     97          6           0        8.981922   -2.146615    0.317398
     98          6           0       10.428835   -2.355219    0.038497
     99          6           0        7.618373    0.073264    0.720031
    100          6           0        7.929102   -3.206039    0.329707
    101          8           0        8.125005   -4.450587    0.353809
    102          6           0        6.456067   -2.821053    0.267036
    103          7           0       13.426833   -2.958543   -0.583162
    104          6           0       12.431580   -3.862260   -0.426918
    105          6           0       12.973667   -5.340547   -0.819517
    106          6           0       14.367364   -5.014669   -1.462477
    107          6           0       14.564788   -3.587706   -1.062515
    108          6           0       13.024436   -6.232579    0.482034
    109          6           0       14.278092   -5.038345   -3.032186
    110          6           0       13.197319   -4.226674   -3.729234
    111          7           0       15.277621   -0.703209   -0.484215
    112          6           0       16.184978   -1.701324   -0.711251
    113          6           0       17.447552   -1.126681   -0.640767
    114          6           0       17.284334    0.243237   -0.285522
    115          6           0       15.933458    0.455239   -0.199497
    116          6           0       18.780419   -1.775764   -0.769176
    117          6           0       17.933535    1.532937    0.041889
    118          8           0       19.101709    1.882547    0.166353
    119          6           0       16.719392    2.597656    0.233605
    120          6           0       16.936454    3.423078    1.451530
    121          8           0       17.457081    3.002649    2.527228
    122          8           0       16.647278    4.675566    1.125272
    123          6           0       17.226445    5.666482    2.012020
    124          1           0        9.793996    1.747459    0.683261
    125          1           0       10.436123   -4.455463   -0.311402
    126          1           0       16.633092   -3.730092   -1.250210
    127          1           0       14.154586    3.921597    1.308171
    128          1           0       11.359337    3.776148    0.174773
    129          1           0       12.079762    4.227815    2.806439
    130          1           0       11.385933    2.585260    2.735901
    131          1           0       10.458138    3.770039    2.077217
    132          1           0       13.395970    4.144784   -1.605004
    133          1           0       14.877711    4.611685   -0.859248
    134          1           0       13.174174    6.173824    0.626572
    135          1           0       12.343771    6.134717   -0.975139
    136          1           0        7.808652    1.120359    0.955291
    137          1           0        7.072550   -0.179868    1.628605
    138          1           0        6.896016    0.059255   -0.096703
    139          1           0        6.196743   -2.341741    1.210615
    140          1           0        5.803616   -3.690970    0.338721
    141          1           0        6.194506   -2.262983   -0.632716
    142          1           0       12.269630   -5.818150   -1.500951
    143          1           0       15.069583   -5.678014   -0.957580
    144          1           0       12.479014   -5.805583    1.323817
    145          1           0       14.030017   -6.404110    0.866415
    146          1           0       12.550108   -7.205555    0.362167
    147          1           0       14.128146   -6.108546   -3.174988
    148          1           0       15.201218   -4.769737   -3.544902
    149          1           0       12.465638   -3.873851   -3.002103
    150          1           0       12.719912   -4.692743   -4.590503
    151          1           0       13.772204   -3.421115   -4.186118
    152          1           0       18.915657   -2.346262   -1.688401
    153          1           0       18.826784   -2.485756    0.056068
    154          1           0       19.602652   -1.070433   -0.653031
    155          1           0       16.812021    3.249108   -0.634994
    156          1           0       17.637622    6.492679    1.430642
    157          1           0       18.053953    5.331093    2.636740
    158          1           0       16.402760    6.035344    2.624107
 ---------------------------------------------------------------------

 SCF Done:  E(RwB97XD) =  -4070.61730134     A.U. after   19 cycles

 Excitation energies and oscillator strengths:

 Excited State   1:      Singlet-A      1.6007 eV  774.57 nm  f=0.3865  <S**2>=0.000
     309 -> 316       -0.16164
     311 -> 313        0.68927
     309 <- 316       -0.11297
 This state for optimization and/or second-order correction.
 Total Energy, E(TD-HF/TD-DFT) =  -4070.55847730
 Copying the excited state density for this state as the 1-particle RhoCI density.

 Excited State   2:      Singlet-A      1.6683 eV  743.20 nm  f=0.3949  <S**2>=0.000
     310 -> 315        0.17124
     312 -> 314        0.68668
     310 <- 315        0.11160

 Excited State   3:      Singlet-A      2.0912 eV  592.88 nm  f=0.1572  <S**2>=0.000
     310 -> 314        0.66083
     312 -> 315       -0.23076

 Excited State   4:      Singlet-A      2.1245 eV  583.58 nm  f=0.2166  <S**2>=0.000
     309 -> 313        0.66530
     311 -> 316        0.22051

 Excited State   5:      Singlet-A      3.0730 eV  403.46 nm  f=0.0090  <S**2>=0.000
     308 -> 314        0.67866

 The electronic state is 1-A.
 Alpha  occ. eigenvalues --  -46.95706 -46.95325 -19.31845 -19.30164 -19.25091
 Alpha  occ. eigenvalues --  -19.24513 -19.24206 -19.24013 -19.23449 -19.22523
 Alpha  occ. eigenvalues --  -14.47505 -14.47027 -14.46409 -14.46089 -14.44365
 Alpha  occ. eigenvalues --  -14.44349 -14.44289 -14.42579 -10.43127 -10.43062
 Alpha  occ. eigenvalues --  -10.40149 -10.39785 -10.38817 -10.38003 -10.36193
 Alpha  occ. eigenvalues --  -10.35733 -10.35543 -10.35158 -10.34996 -10.34970
 Alpha  occ. eigenvalues --  -10.34888 -10.34867 -10.34866 -10.34779 -10.34734
 Alpha  occ. eigenvalues --  -10.34571 -10.34534 -10.34043 -10.33989 -10.33929
 Alpha  occ. eigenvalues --  -10.33294 -10.33211 -10.33209 -10.33012 -10.32586
 Alpha  occ. eigenvalues --  -10.32493 -10.32372 -10.32359 -10.32347 -10.32344
 Alpha  occ. eigenvalues --  -10.32337 -10.32262 -10.32244 -10.32157 -10.32143
 Alpha  occ. eigenvalues --  -10.32126 -10.32090 -10.31882 -10.31808 -10.31798
 Alpha  occ. eigenvalues --  -10.31791 -10.31786 -10.31782 -10.31632 -10.31502
 Alpha  occ. eigenvalues --  -10.31088 -10.31017 -10.30857 -10.30488 -10.30434
 Alpha  occ. eigenvalues --  -10.30401 -10.30399 -10.30376 -10.30206 -10.30178
 Alpha  occ. eigenvalues --  -10.30020 -10.29862 -10.29732 -10.29707 -10.29672
 Alpha  occ. eigenvalues --  -10.29520 -10.29504 -10.29450 -10.29228 -10.28691
 Alpha  occ. eigenvalues --  -10.28249  -3.21551  -3.21427  -1.95146  -1.94986
 Alpha  occ. eigenvalues --   -1.94641  -1.94550  -1.94531  -1.94414  -1.20277
 Alpha  occ. eigenvalues --   -1.18849  -1.12610  -1.10979  -1.10626  -1.09715
 Alpha  occ. eigenvalues --   -1.09340  -1.08089  -1.07492  -1.07016  -1.06373
 Alpha  occ. eigenvalues --   -1.06148  -1.05752  -1.05309  -1.04686  -1.04451
 Alpha  occ. eigenvalues --   -0.95807  -0.93776  -0.91516  -0.91479  -0.91182
 Alpha  occ. eigenvalues --   -0.90764  -0.90334  -0.90044  -0.89959  -0.89480
 Alpha  occ. eigenvalues --   -0.89046  -0.88877  -0.88269  -0.87577  -0.86730
 Alpha  occ. eigenvalues --   -0.86704  -0.86074  -0.85660  -0.85108  -0.84756
 Alpha  occ. eigenvalues --   -0.84105  -0.83798  -0.83287  -0.83127  -0.82862
 Alpha  occ. eigenvalues --   -0.82618  -0.80863  -0.80596  -0.79516  -0.79486
 Alpha  occ. eigenvalues --   -0.79306  -0.79248  -0.78268  -0.78047  -0.77473
 Alpha  occ. eigenvalues --   -0.77172  -0.75453  -0.74705  -0.73703  -0.72990
 Alpha  occ. eigenvalues --   -0.71869  -0.71301  -0.71074  -0.70683  -0.70344
 Alpha  occ. eigenvalues --   -0.70272  -0.69675  -0.69002  -0.67752  -0.67450
 Alpha  occ. eigenvalues --   -0.67189  -0.67171  -0.66992  -0.66664  -0.66548
 Alpha  occ. eigenvalues --   -0.66495  -0.64690  -0.64155  -0.63060  -0.62821
 Alpha  occ. eigenvalues --   -0.61876  -0.61731  -0.61596  -0.61211  -0.60939
 Alpha  occ. eigenvalues --   -0.60523  -0.60480  -0.59789  -0.59504  -0.59230
 Alpha  occ. eigenvalues --   -0.58208  -0.57955  -0.57947  -0.57714  -0.57700
 Alpha  occ. eigenvalues --   -0.57365  -0.57276  -0.56960  -0.56706  -0.56328
 Alpha  occ. eigenvalues --   -0.56177  -0.55763  -0.55281  -0.55230  -0.55085
 Alpha  occ. eigenvalues --   -0.54886  -0.54860  -0.54559  -0.54454  -0.54448
 Alpha  occ. eigenvalues --   -0.53788  -0.53631  -0.53502  -0.53436  -0.53279
 Alpha  occ. eigenvalues --   -0.53019  -0.52902  -0.52504  -0.52405  -0.52303
 Alpha  occ. eigenvalues --   -0.52025  -0.51940  -0.51914  -0.51720  -0.51547
 Alpha  occ. eigenvalues --   -0.51514  -0.51243  -0.51061  -0.50806  -0.50740
 Alpha  occ. eigenvalues --   -0.50481  -0.50436  -0.50350  -0.50251  -0.50161
 Alpha  occ. eigenvalues --   -0.50003  -0.49872  -0.49599  -0.49251  -0.49201
 Alpha  occ. eigenvalues --   -0.49123  -0.48683  -0.48550  -0.48446  -0.48434
 Alpha  occ. eigenvalues --   -0.48275  -0.48232  -0.47989  -0.47867  -0.47754
 Alpha  occ. eigenvalues --   -0.47475  -0.47350  -0.47123  -0.47070  -0.47021
 Alpha  occ. eigenvalues --   -0.46841  -0.46607  -0.46374  -0.46338  -0.46197
 Alpha  occ. eigenvalues --   -0.46011  -0.45787  -0.45760  -0.45625  -0.45339
 Alpha  occ. eigenvalues --   -0.45269  -0.45146  -0.45139  -0.44848  -0.44813
 Alpha  occ. eigenvalues --   -0.44687  -0.44558  -0.44302  -0.44123  -0.44007
 Alpha  occ. eigenvalues --   -0.43985  -0.43795  -0.43710  -0.43363  -0.43331
 Alpha  occ. eigenvalues --   -0.43135  -0.42758  -0.42735  -0.42669  -0.42373
 Alpha  occ. eigenvalues --   -0.41828  -0.41510  -0.41464  -0.41327  -0.41122
 Alpha  occ. eigenvalues --   -0.40598  -0.40557  -0.40259  -0.39836  -0.39779
 Alpha  occ. eigenvalues --   -0.39361  -0.39322  -0.38857  -0.38560  -0.38496
 Alpha  occ. eigenvalues --   -0.38329  -0.37972  -0.36715  -0.36382  -0.36115
 Alpha  occ. eigenvalues --   -0.35936  -0.35488  -0.35034  -0.34149  -0.33872
 Alpha  occ. eigenvalues --   -0.33539  -0.33165  -0.32950  -0.32333  -0.32163
 Alpha  occ. eigenvalues --   -0.32066  -0.31848  -0.30619  -0.26265  -0.25977
 Alpha  occ. eigenvalues --   -0.23639  -0.23581
 Alpha virt. eigenvalues --   -0.08115  -0.07709   0.00656   0.01049   0.01998
 Alpha virt. eigenvalues --    0.02266   0.04192   0.04545   0.04858   0.04958
 Alpha virt. eigenvalues --    0.05996   0.06626   0.07155   0.07549   0.08212

 Mulliken charges:
               1
     1  Mg   0.983234
     2  C   -0.013906
     3  C   -0.066029
     4  C   -0.042750
     5  C   -0.082942
     6  N   -0.296685
     7  C   -0.036556
     8  C   -0.083995
     9  C   -0.102362
    10  C   -0.016731
    11  C    0.047947
    12  C    0.043083
    13  C   -0.116545
    14  H    0.054015
    15  N   -0.496783
    16  C    0.190355
    17  C   -0.170617
    18  C   -0.082029
    19  C    0.148011
    20  C    0.071442
    21  C    0.008572
    22  O   -0.274809
    23  C    0.010215
    24  N   -0.391715
    25  C    0.045174
    26  C   -0.110628
    27  C   -0.102279
    28  C    0.088847
    29  C    0.051754
    30  C   -0.033958
    31  C   -0.032706
    32  N   -0.399905
    33  C    0.123186
    34  C   -0.202615
    35  C   -0.040034
    36  C    0.129234
    37  C    0.087851
    38  C    0.156420
    39  O   -0.192317
    40  C   -0.060050
    41  C    0.245680
    42  O   -0.269024
    43  O   -0.350306
    44  C    0.133807
    45  H   -0.007760
    46  H    0.013801
    47  H    0.005058
    48  H    0.033114
    49  H    0.025487
    50  H    0.044391
    51  H    0.034165
    52  H    0.048133
    53  H    0.032112
    54  H    0.031385
    55  H    0.048015
    56  H    0.042716
    57  H    0.068186
    58  H    0.040186
    59  H    0.043194
    60  H    0.063921
    61  H    0.055214
    62  H    0.045428
    63  H    0.047235
    64  H    0.025439
    65  H    0.046504
    66  H    0.060157
    67  H    0.028005
    68  H    0.024688
    69  H    0.033430
    70  H    0.042625
    71  H    0.036239
    72  H    0.048683
    73  H    0.031267
    74  H    0.059927
    75  H    0.065080
    76  H    0.071976
    77  H    0.065787
    78  H    0.033712
    79  H    0.061952
    80  Mg   0.940649
    81  C    0.025480
    82  C   -0.076174
    83  C   -0.054321
    84  C   -0.071397
    85  N   -0.396506
    86  C   -0.020336
    87  C   -0.029422
    88  C   -0.089402
    89  C    0.104925
    90  C    0.044328
    91  C    0.022477
    92  C   -0.128861
    93  H    0.030654
    94  N   -0.379654
    95  C    0.094833
    96  C   -0.112081
    97  C   -0.048700
    98  C    0.101477
    99  C    0.053052
   100  C    0.041217
   101  O   -0.259331
   102  C   -0.009023
   103  N   -0.351539
   104  C    0.069211
   105  C   -0.145240
   106  C   -0.029929
   107  C    0.039132
   108  C    0.014282
   109  C   -0.014301
   110  C   -0.051432
   111  N   -0.418077
   112  C    0.151632
   113  C   -0.204237
   114  C   -0.041250
   115  C    0.088578
   116  C    0.077104
   117  C    0.161890
   118  O   -0.201935
   119  C   -0.129248
   120  C    0.263398
   121  O   -0.280636
   122  O   -0.330242
   123  C    0.127217
   124  H   -0.027639
   125  H    0.024867
   126  H   -0.001132
   127  H    0.031421
   128  H    0.031595
   129  H    0.056254
   130  H    0.033549
   131  H    0.025683
   132  H    0.024493
   133  H    0.044911
   134  H    0.046452
   135  H    0.062236
   136  H    0.028510
   137  H    0.048651
   138  H    0.055311
   139  H    0.043674
   140  H    0.044747
   141  H    0.064388
   142  H    0.043828
   143  H    0.030722
   144  H    0.043506
   145  H    0.032413
   146  H    0.040125
   147  H    0.029595
   148  H    0.030944
   149  H    0.055283
   150  H    0.043889
   151  H    0.033841
   152  H    0.035256
   153  H    0.042824
   154  H    0.057927
   155  H    0.082060
   156  H    0.053486
   157  H    0.078528
   158  H    0.049541
 Sum of Mulliken charges =  -0.00000

 Dipole moment (field-independent basis, Debye):
    X=             -6.8971    Y=              3.1978    Z=              0.6934  Tot=              7.6339
 Quadrupole moment (field-independent basis, Debye-Ang):
   XX=           -655.5763   YY=           -492.4021   ZZ=           -498.6624
   XY=             -0.8158   XZ=            -65.9326   YZ=             43.2188

 Normal termination of Gaussian 16 at Sat Sep 18 17:04:21 2021.
