 Gaussian 16, Revision A.03,
 Gaussian 16:  ES64L-G16RevA.03 25-Dec-2016

 --------------------------------
 #p wB97XD/Def2SVP td=(nstates=5)
 --------------------------------

 --------------------------------
 TDDFT excited states in gaussian
 --------------------------------
 Symbolic Z-matrix:
 Charge =  0 Multiplicity = 1

                         Standard orientation:
 ---------------------------------------------------------------------
 Center     Atomic      Atomic             Coordinates (Angstroms)
 Number     Number       Type             X           Y           Z
 ---------------------------------------------------------------------
      1         12           0      -24.848517    0.620175    0.145743
      2          6           0      -21.967358   -1.329269    0.508416
      3          6           0      -26.616212   -2.363647    0.045463
      4          6           0      -27.468972    2.386619   -0.618558
      5          6           0      -22.777562    3.491746    0.051376
      6          7           0      -24.291780   -1.655728   -0.139161
      7          6           0      -23.101387   -2.156094    0.207278
      8          6           0      -23.221381   -3.643352    0.225020
      9          6           0      -24.622829   -3.941464   -0.362042
     10          6           0      -25.259263   -2.586549   -0.123372
     11          6           0      -24.756577   -4.426714   -1.806551
     12          6           0      -23.059307   -4.224729    1.665365
     13          6           0      -22.076256   -5.417832    1.894929
     14          1           0      -21.829485   -6.434081    0.736593
     15          7           0      -26.848426    0.084987   -0.094450
     16          6           0      -27.360647   -1.191383    0.097052
     17          6           0      -28.778098   -1.081631   -0.022814
     18          6           0      -29.071315    0.301866   -0.353728
     19          6           0      -27.800257    1.010542   -0.362447
     20          6           0      -29.760015   -2.271312    0.051995
     21          6           0      -30.427202    0.974152   -0.714459
     22          8           0      -30.556554    2.124270   -0.991785
     23          6           0      -31.651621    0.083863   -0.633409
     24          7           0      -25.050151    2.640700   -0.208577
     25          6           0      -26.256100    3.127511   -0.577471
     26          6           0      -26.266094    4.659883   -0.833030
     27          6           0      -24.799164    5.026455   -0.344499
     28          6           0      -24.147614    3.667182   -0.119331
     29          6           0      -26.602657    4.981132   -2.401519
     30          6           0      -24.767197    6.032689    0.848512
     31          6           0      -24.592981    5.469690    2.247665
     32          7           0      -22.777251    1.085232    0.290709
     33          6           0      -22.113338    2.281747    0.324257
     34          6           0      -20.650425    1.999207    0.537280
     35          6           0      -20.572379    0.590224    0.613994
     36          6           0      -21.885083    0.046504    0.418573
     37          6           0      -19.505652    2.973943    0.480870
     38          6           0      -19.666672   -0.542628    0.788359
     39          8           0      -18.442340   -0.518996    0.943368
     40          6           0      -20.562068   -1.774234    0.885673
     41          6           0      -19.988397   -2.771112   -0.080145
     42          8           0      -20.138754   -2.744376   -1.287907
     43          8           0      -19.162947   -3.524429    0.627793
     44          6           0      -18.160080   -4.301816   -0.083163
     45          1           0      -27.158004   -3.294833   -0.130241
     46          1           0      -28.357133    3.016871   -0.694608
     47          1           0      -22.141654    4.379720    0.037227
     48          1           0      -22.427832   -4.062838   -0.392561
     49          1           0      -25.029295   -4.758213    0.234595
     50          1           0      -23.826401   -4.584857   -2.352610
     51          1           0      -25.363915   -3.728902   -2.383683
     52          1           0      -25.288414   -5.376528   -1.755428
     53          1           0      -24.007262   -4.460043    2.148762
     54          1           0      -22.678457   -3.334632    2.165954
     55          1           0      -22.523232   -5.953486    2.733369
     56          1           0      -21.108802   -5.016551    2.195688
     57          1           0      -30.427856   -2.333389   -0.807267
     58          1           0      -30.469131   -2.171555    0.873909
     59          1           0      -29.282889   -3.243481    0.182720
     60          1           0      -31.726421   -0.447091    0.315812
     61          1           0      -31.635121   -0.587785   -1.491822
     62          1           0      -32.553083    0.660161   -0.841527
     63          1           0      -27.012548    5.179231   -0.232293
     64          1           0      -24.220352    5.562235   -1.096707
     65          1           0      -25.654449    5.325861   -2.814247
     66          1           0      -27.260463    5.839813   -2.537721
     67          1           0      -26.875571    4.102598   -2.987244
     68          1           0      -25.774638    6.448837    0.861914
     69          1           0      -24.062473    6.848429    0.688461
     70          1           0      -25.255958    4.603837    2.266278
     71          1           0      -24.939895    6.305201    2.855223
     72          1           0      -23.636044    5.060379    2.570431
     73          1           0      -19.709742    4.004587    0.190501
     74          1           0      -18.763913    2.612943   -0.231733
     75          1           0      -19.028760    2.904728    1.458056
     76          1           0      -20.494022   -2.315430    1.829582
     77          1           0      -18.037588   -4.182287   -1.159168
     78          1           0      -18.521085   -5.322995    0.042990
     79          1           0      -17.300303   -4.427828    0.574983
     80         12           0       24.948683   -0.038036    0.003040
     81          6           0       21.590524   -1.014228   -0.436171
     82          6           0       25.051106    0.554837   -3.295847
     83          6           0       27.862007    1.312177    0.611383
     84          6           0       24.271169   -0.093326    3.511371
     85          7           0       23.451852   -0.176750   -1.652106
     86          6           0       22.186888   -0.660066   -1.655747
     87          6           0       21.555838   -0.703166   -3.032670
     88          6           0       22.832689   -0.442691   -3.928625
     89          6           0       23.876350    0.027707   -2.936796
     90          6           0       23.331593   -1.695740   -4.760071
     91          6           0       20.347810    0.251780   -3.432211
     92          6           0       19.982398    1.497317   -2.581786
     93          1           0       19.416655    2.761508   -3.330467
     94          7           0       26.328026    0.703088   -1.267229
     95          6           0       26.167924    0.970698   -2.556325
     96          6           0       27.374280    1.686669   -3.053573
     97          6           0       28.295807    1.757502   -1.884417
     98          6           0       27.485121    1.253543   -0.775480
     99          6           0       27.616541    2.026593   -4.499483
    100          6           0       29.677053    2.358495   -1.887145
    101          8           0       30.140183    2.766167   -2.949512
    102          6           0       30.580348    2.575888   -0.617526
    103          7           0       25.936065    0.659536    1.869476
    104          6           0       27.171469    0.999967    1.739061
    105          6           0       27.774996    1.173442    3.203573
    106          6           0       26.523268    0.953390    4.055587
    107          6           0       25.464018    0.481073    3.078432
    108          6           0       28.971699    0.306104    3.628305
    109          6           0       25.930201    2.311625    4.699155
    110          6           0       26.002768    2.433149    6.232328
    111          7           0       23.315107   -0.386035    1.316285
    112          6           0       23.212821   -0.495312    2.677946
    113          6           0       21.926965   -1.136453    3.056846
    114          6           0       21.173115   -1.252734    1.854811
    115          6           0       22.146867   -0.873250    0.832692
    116          6           0       21.402966   -1.404232    4.485425
    117          6           0       19.940045   -1.614444    1.239238
    118          8           0       18.809078   -1.903943    1.665877
    119          6           0       20.175004   -1.550519   -0.291426
    120          6           0       19.897093   -2.952739   -0.840844
    121          8           0       18.987504   -3.413987   -1.477652
    122          8           0       21.056890   -3.714921   -0.663453
    123          6           0       21.070849   -5.099105   -1.230632
    124          1           0       25.053128    0.746535   -4.371060
    125          1           0       28.859089    1.733953    0.759502
    126          1           0       24.180043   -0.348491    4.568877
    127          1           0       21.267706   -1.745458   -3.168247
    128          1           0       22.603038    0.327758   -4.664820
    129          1           0       22.731789   -2.576751   -4.534175
    130          1           0       24.297951   -1.890029   -4.296058
    131          1           0       23.363826   -1.443414   -5.820133
    132          1           0       19.463365   -0.380585   -3.510578
    133          1           0       20.503437    0.606066   -4.451776
    134          1           0       20.903390    1.784643   -2.074470
    135          1           0       19.137932    1.340377   -1.911411
    136          1           0       28.650392    2.299413   -4.710152
    137          1           0       26.859975    2.763950   -4.770443
    138          1           0       27.295756    1.129467   -5.030002
    139          1           0       30.793875    1.756022    0.069314
    140          1           0       30.080342    3.296019    0.030175
    141          1           0       31.571043    2.946851   -0.878648
    142          1           0       28.185576    2.172095    3.348757
    143          1           0       26.580134    0.279466    4.911103
    144          1           0       29.304221   -0.349122    2.823032
    145          1           0       28.757330   -0.260657    4.534976
    146          1           0       29.865944    0.884197    3.861205
    147          1           0       24.874129    2.440567    4.466101
    148          1           0       26.488211    3.121929    4.229474
    149          1           0       25.187192    2.986098    6.699017
    150          1           0       26.907335    3.008713    6.428566
    151          1           0       26.009477    1.394770    6.563949
    152          1           0       21.951879   -0.900711    5.280531
    153          1           0       21.515686   -2.481149    4.608072
    154          1           0       20.333048   -1.197814    4.497972
    155          1           0       19.476997   -0.840536   -0.733828
    156          1           0       20.130572   -5.646472   -1.292995
    157          1           0       21.676533   -5.652676   -0.513380
    158          1           0       21.570025   -5.265155   -2.185497
 ---------------------------------------------------------------------

 SCF Done:  E(RwB97XD) =  -4070.59102120     A.U. after   19 cycles

 Excitation energies and oscillator strengths:

 Excited State   1:      Singlet-A      1.6772 eV  739.24 nm  f=0.4041  <S**2>=0.000
     310 -> 316        0.19184
     312 -> 314        0.68160
     310 <- 316        0.11862
 This state for optimization and/or second-order correction.
 Total Energy, E(TD-HF/TD-DFT) =  -4070.52938567
 Copying the excited state density for this state as the 1-particle RhoCI density.

 Excited State   2:      Singlet-A      1.7163 eV  722.38 nm  f=0.4000  <S**2>=0.000
     309 -> 315       -0.19062
     311 -> 313        0.68124
     309 <- 315       -0.11530

 Excited State   3:      Singlet-A      2.1599 eV  574.03 nm  f=0.0978  <S**2>=0.000
     310 -> 314        0.64014
     312 -> 316       -0.28504

 Excited State   4:      Singlet-A      2.2310 eV  555.73 nm  f=0.0955  <S**2>=0.000
     309 -> 313        0.63454
     311 -> 315        0.29973

 Excited State   5:      Singlet-A      3.3636 eV  368.60 nm  f=0.0023  <S**2>=0.000
     306 -> 314       -0.35603
     308 -> 314        0.57996

 The electronic state is 1-A.
 Alpha  occ. eigenvalues --  -46.96418 -46.95108 -19.31483 -19.29876 -19.25397
 Alpha  occ. eigenvalues --  -19.24614 -19.24611 -19.24529 -19.23583 -19.23542
 Alpha  occ. eigenvalues --  -14.46920 -14.46380 -14.46338 -14.46161 -14.45071
 Alpha  occ. eigenvalues --  -14.44721 -14.43931 -14.43275 -10.43786 -10.43015
 Alpha  occ. eigenvalues --  -10.39781 -10.39558 -10.39537 -10.38369 -10.35795
 Alpha  occ. eigenvalues --  -10.35652 -10.35581 -10.35300 -10.35149 -10.35130
 Alpha  occ. eigenvalues --  -10.35116 -10.34765 -10.34762 -10.34732 -10.34696
 Alpha  occ. eigenvalues --  -10.34430 -10.34180 -10.34074 -10.33826 -10.33676
 Alpha  occ. eigenvalues --  -10.33606 -10.33511 -10.33461 -10.33379 -10.33328
 Alpha  occ. eigenvalues --  -10.33069 -10.32892 -10.32880 -10.32867 -10.32415
 Alpha  occ. eigenvalues --  -10.32381 -10.32362 -10.32111 -10.32069 -10.31966
 Alpha  occ. eigenvalues --  -10.31947 -10.31689 -10.31600 -10.31529 -10.31429
 Alpha  occ. eigenvalues --  -10.31321 -10.31166 -10.31127 -10.31126 -10.31097
 Alpha  occ. eigenvalues --  -10.31019 -10.30977 -10.30695 -10.30604 -10.30578
 Alpha  occ. eigenvalues --  -10.30454 -10.30425 -10.30400 -10.30346 -10.30328
 Alpha  occ. eigenvalues --  -10.30315 -10.30248 -10.30022 -10.29926 -10.29917
 Alpha  occ. eigenvalues --  -10.29782 -10.29611 -10.29259 -10.29190 -10.29018
 Alpha  occ. eigenvalues --  -10.28872  -3.22347  -3.21014  -1.95922  -1.95466
 Alpha  occ. eigenvalues --   -1.95316  -1.94609  -1.94172  -1.93942  -1.20541
 Alpha  occ. eigenvalues --   -1.18260  -1.13497  -1.11898  -1.11746  -1.11639
 Alpha  occ. eigenvalues --   -1.10872  -1.09533  -1.08744  -1.07002  -1.06848
 Alpha  occ. eigenvalues --   -1.06065  -1.05758  -1.05333  -1.04655  -1.03835
 Alpha  occ. eigenvalues --   -0.95622  -0.95384  -0.91734  -0.90733  -0.90570
 Alpha  occ. eigenvalues --   -0.90484  -0.90464  -0.90211  -0.89912  -0.89007
 Alpha  occ. eigenvalues --   -0.88908  -0.88210  -0.87410  -0.87326  -0.86839
 Alpha  occ. eigenvalues --   -0.86359  -0.85839  -0.85595  -0.84789  -0.84484
 Alpha  occ. eigenvalues --   -0.83716  -0.83327  -0.82782  -0.82682  -0.82480
 Alpha  occ. eigenvalues --   -0.81940  -0.80480  -0.79854  -0.79647  -0.79287
 Alpha  occ. eigenvalues --   -0.78952  -0.78887  -0.78626  -0.78206  -0.77315
 Alpha  occ. eigenvalues --   -0.77013  -0.75342  -0.74671  -0.74386  -0.73671
 Alpha  occ. eigenvalues --   -0.71608  -0.71441  -0.71205  -0.70867  -0.70604
 Alpha  occ. eigenvalues --   -0.69978  -0.69511  -0.68787  -0.68043  -0.67650
 Alpha  occ. eigenvalues --   -0.67514  -0.67224  -0.66885  -0.66884  -0.66606
 Alpha  occ. eigenvalues --   -0.66315  -0.65193  -0.64790  -0.62598  -0.62217
 Alpha  occ. eigenvalues --   -0.61813  -0.61631  -0.61455  -0.61157  -0.60540
 Alpha  occ. eigenvalues --   -0.60460  -0.60097  -0.60082  -0.59281  -0.59264
 Alpha  occ. eigenvalues --   -0.58814  -0.58355  -0.57981  -0.57870  -0.57659
 Alpha  occ. eigenvalues --   -0.57038  -0.56895  -0.56723  -0.56624  -0.56517
 Alpha  occ. eigenvalues --   -0.55920  -0.55597  -0.55568  -0.55188  -0.54906
 Alpha  occ. eigenvalues --   -0.54809  -0.54724  -0.54428  -0.53972  -0.53876
 Alpha  occ. eigenvalues --   -0.53672  -0.53586  -0.53538  -0.53318  -0.53225
 Alpha  occ. eigenvalues --   -0.53123  -0.53032  -0.52973  -0.52534  -0.52109
 Alpha  occ. eigenvalues --   -0.51962  -0.51755  -0.51602  -0.51466  -0.51300
 Alpha  occ. eigenvalues --   -0.51084  -0.50998  -0.50806  -0.50737  -0.50606
 Alpha  occ. eigenvalues --   -0.50481  -0.50458  -0.50290  -0.50243  -0.49994
 Alpha  occ. eigenvalues --   -0.49867  -0.49804  -0.49536  -0.49380  -0.49235
 Alpha  occ. eigenvalues --   -0.49213  -0.48882  -0.48795  -0.48585  -0.48300
 Alpha  occ. eigenvalues --   -0.48239  -0.48054  -0.47906  -0.47811  -0.47803
 Alpha  occ. eigenvalues --   -0.47771  -0.47576  -0.47513  -0.47497  -0.47302
 Alpha  occ. eigenvalues --   -0.47300  -0.46933  -0.46792  -0.46725  -0.46405
 Alpha  occ. eigenvalues --   -0.46128  -0.45916  -0.45684  -0.45526  -0.45305
 Alpha  occ. eigenvalues --   -0.45262  -0.45147  -0.45092  -0.45007  -0.44879
 Alpha  occ. eigenvalues --   -0.44614  -0.44586  -0.44261  -0.44083  -0.44051
 Alpha  occ. eigenvalues --   -0.44006  -0.43689  -0.43525  -0.43370  -0.43119
 Alpha  occ. eigenvalues --   -0.43087  -0.42931  -0.42858  -0.42602  -0.42576
 Alpha  occ. eigenvalues --   -0.42143  -0.41887  -0.41515  -0.41174  -0.41152
 Alpha  occ. eigenvalues --   -0.40769  -0.40266  -0.40139  -0.39729  -0.39167
 Alpha  occ. eigenvalues --   -0.39001  -0.38898  -0.38764  -0.38724  -0.38402
 Alpha  occ. eigenvalues --   -0.38281  -0.38125  -0.37070  -0.36391  -0.36266
 Alpha  occ. eigenvalues --   -0.36066  -0.35870  -0.35319  -0.34099  -0.33494
 Alpha  occ. eigenvalues --   -0.33425  -0.33277  -0.32981  -0.32875  -0.32257
 Alpha  occ. eigenvalues --   -0.32130  -0.31429  -0.31053  -0.26427  -0.25698
 Alpha  occ. eigenvalues --   -0.23351  -0.22858
 Alpha virt. eigenvalues --   -0.07270  -0.06810  -0.00134   0.00417   0.01408
 Alpha virt. eigenvalues --    0.02238   0.03845   0.04513   0.05008   0.05910
 Alpha virt. eigenvalues --    0.06807   0.07185   0.07716   0.07889   0.07964

 Mulliken charges:
               1
     1  Mg   0.943750
     2  C   -0.009800
     3  C   -0.053568
     4  C   -0.049895
     5  C   -0.089514
     6  N   -0.281373
     7  C    0.032574
     8  C   -0.102532
     9  C   -0.078959
    10  C   -0.023188
    11  C    0.044045
    12  C   -0.008055
    13  C   -0.108847
    14  H    0.034725
    15  N   -0.486591
    16  C    0.194222
    17  C   -0.162155
    18  C   -0.110834
    19  C    0.127647
    20  C    0.066929
    21  C    0.057576
    22  O   -0.197973
    23  C   -0.025164
    24  N   -0.388329
    25  C    0.068200
    26  C   -0.106255
    27  C   -0.052114
    28  C    0.081492
    29  C    0.014973
    30  C   -0.034353
    31  C   -0.035146
    32  N   -0.431009
    33  C    0.126498
    34  C   -0.181576
    35  C   -0.031529
    36  C    0.144785
    37  C    0.071985
    38  C    0.142855
    39  O   -0.213822
    40  C   -0.092644
    41  C    0.223712
    42  O   -0.247814
    43  O   -0.327094
    44  C    0.146638
    45  H   -0.006254
    46  H    0.024677
    47  H   -0.006534
    48  H    0.040530
    49  H    0.020974
    50  H    0.046982
    51  H    0.041488
    52  H    0.029941
    53  H    0.038449
    54  H    0.025576
    55  H    0.052989
    56  H    0.060577
    57  H    0.037114
    58  H    0.040587
    59  H    0.034212
    60  H    0.057459
    61  H    0.052187
    62  H    0.039900
    63  H    0.049998
    64  H    0.031438
    65  H    0.019127
    66  H    0.045876
    67  H    0.058982
    68  H    0.022749
    69  H    0.029640
    70  H    0.030062
    71  H    0.044286
    72  H    0.041697
    73  H    0.038411
    74  H    0.061924
    75  H    0.059433
    76  H    0.073371
    77  H    0.085506
    78  H    0.026928
    79  H    0.057240
    80  Mg   0.957766
    81  C   -0.036487
    82  C   -0.091633
    83  C   -0.036436
    84  C   -0.103727
    85  N   -0.341060
    86  C   -0.037839
    87  C    0.005239
    88  C   -0.158269
    89  C    0.057853
    90  C    0.033628
    91  C    0.002412
    92  C   -0.150132
    93  H    0.026905
    94  N   -0.476118
    95  C    0.164548
    96  C   -0.173414
    97  C   -0.081300
    98  C    0.167339
    99  C    0.085972
   100  C    0.055569
   101  O   -0.240361
   102  C   -0.027211
   103  N   -0.273838
   104  C    0.045780
   105  C   -0.055720
   106  C   -0.126063
   107  C    0.077440
   108  C    0.014305
   109  C   -0.041889
   110  C   -0.039882
   111  N   -0.402068
   112  C    0.126980
   113  C   -0.186208
   114  C   -0.008768
   115  C    0.160827
   116  C    0.075231
   117  C    0.093737
   118  O   -0.218087
   119  C   -0.083231
   120  C    0.279591
   121  O   -0.209511
   122  O   -0.398027
   123  C    0.134876
   124  H   -0.010882
   125  H   -0.053781
   126  H    0.002653
   127  H    0.040934
   128  H    0.037048
   129  H    0.035426
   130  H    0.038112
   131  H    0.054856
   132  H    0.045350
   133  H    0.044656
   134  H    0.072958
   135  H    0.074415
   136  H    0.077691
   137  H    0.041039
   138  H    0.036922
   139  H    0.056559
   140  H    0.057197
   141  H    0.052416
   142  H    0.035505
   143  H    0.023169
   144  H    0.033242
   145  H    0.035995
   146  H    0.027108
   147  H    0.043331
   148  H    0.025249
   149  H    0.043762
   150  H    0.037806
   151  H    0.028131
   152  H    0.042822
   153  H    0.054948
   154  H    0.069761
   155  H    0.068907
   156  H    0.065924
   157  H    0.044843
   158  H    0.047209
 Sum of Mulliken charges =  -0.00000

 Dipole moment (field-independent basis, Debye):
    X=              2.8863    Y=             -3.1270    Z=              4.2221  Tot=              5.9946
 Quadrupole moment (field-independent basis, Debye-Ang):
   XX=           -385.8555   YY=           -469.5879   ZZ=           -493.4913
   XY=              2.9620   XZ=             37.3923   YZ=              9.9902

 Normal termination of Gaussian 16 at Mon Sep 20 21:08:19 2021.
