 Gaussian 16, Revision A.03,
 Gaussian 16:  ES64L-G16RevA.03 25-Dec-2016

 --------------------------------
 #p wB97XD/Def2SVP td=(nstates=5)
 --------------------------------

 --------------------------------
 TDDFT excited states in gaussian
 --------------------------------
 Symbolic Z-matrix:
 Charge =  0 Multiplicity = 1

                         Standard orientation:
 ---------------------------------------------------------------------
 Center     Atomic      Atomic             Coordinates (Angstroms)
 Number     Number       Type             X           Y           Z
 ---------------------------------------------------------------------
      1         12           0       16.409589    0.673533   -0.309470
      2          6           0       15.804376   -2.067968    1.832518
      3          6           0       14.128723    2.527608    1.433578
      4          6           0       16.539773    2.904787   -2.733237
      5          6           0       18.373482   -1.493848   -2.317313
      6          7           0       15.206020    0.276274    1.515504
      7          6           0       15.147863   -0.862600    2.177133
      8          6           0       14.490482   -0.599585    3.519919
      9          6           0       13.590879    0.665043    3.238490
     10          6           0       14.333588    1.219279    1.965939
     11          6           0       12.073800    0.268131    3.081385
     12          6           0       15.518992   -0.256460    4.628024
     13          6           0       15.016589   -0.463378    6.124246
     14          1           0       13.595716   -0.935873    6.443664
     15          7           0       15.640835    2.518556   -0.503348
     16          6           0       14.745007    3.197942    0.361558
     17          6           0       14.538098    4.566028   -0.168196
     18          6           0       15.191440    4.641262   -1.450502
     19          6           0       15.852797    3.334349   -1.655880
     20          6           0       13.776946    5.625411    0.547674
     21          6           0       15.321647    5.792271   -2.522485
     22          8           0       16.011811    5.711511   -3.547754
     23          6           0       14.454072    7.007795   -2.369021
     24          7           0       17.245301    0.663948   -2.331884
     25          6           0       17.210044    1.719054   -3.101730
     26          6           0       17.945902    1.587002   -4.405643
     27          6           0       18.550784    0.143332   -4.295011
     28          6           0       18.115303   -0.247155   -2.846898
     29          6           0       17.049937    1.922098   -5.601664
     30          6           0       20.064447    0.072379   -4.452912
     31          6           0       20.631752   -1.140449   -5.274146
     32          7           0       17.090691   -1.386577   -0.282826
     33          6           0       17.927204   -2.102169   -1.161761
     34          6           0       18.220133   -3.368100   -0.582827
     35          6           0       17.290822   -3.500002    0.497812
     36          6           0       16.681838   -2.282101    0.664942
     37          6           0       19.311022   -4.301776   -1.022889
     38          6           0       16.789408   -4.291316    1.647093
     39          8           0       17.058152   -5.423480    1.991246
     40          6           0       15.630663   -3.442066    2.356929
     41          6           0       15.572677   -3.745965    3.818223
     42          8           0       16.440266   -3.564850    4.620815
     43          8           0       14.368117   -4.388835    4.159694
     44          6           0       14.423573   -5.339998    5.290030
     45          1           0       13.283938    3.106597    1.813603
     46          1           0       16.764593    3.622944   -3.523774
     47          1           0       19.044432   -2.109265   -2.920381
     48          1           0       14.052737   -1.566517    3.767733
     49          1           0       13.662763    1.395857    4.044701
     50          1           0       11.953419   -0.809924    3.182802
     51          1           0       11.870540    0.463248    2.028407
     52          1           0       11.403836    0.727109    3.808533
     53          1           0       15.730765    0.802647    4.475653
     54          1           0       16.415015   -0.842643    4.424298
     55          1           0       15.191408    0.500929    6.603797
     56          1           0       15.737676   -1.153364    6.563158
     57          1           0       13.487616    5.462859    1.585301
     58          1           0       12.818616    5.837774    0.074575
     59          1           0       14.453970    6.479939    0.535802
     60          1           0       14.886928    7.786504   -1.741229
     61          1           0       13.566153    6.534780   -1.947748
     62          1           0       14.246692    7.355788   -3.380575
     63          1           0       18.726290    2.339903   -4.295790
     64          1           0       18.132847   -0.567285   -5.007010
     65          1           0       15.986449    1.772554   -5.412777
     66          1           0       17.333935    1.211075   -6.376476
     67          1           0       17.181511    2.945861   -5.952642
     68          1           0       20.559152    0.034164   -3.482540
     69          1           0       20.336755    1.068248   -4.802152
     70          1           0       19.850406   -1.862214   -5.511555
     71          1           0       21.346861   -1.610843   -4.599599
     72          1           0       21.165210   -0.942601   -6.204447
     73          1           0       19.191261   -4.379207   -2.103627
     74          1           0       19.250580   -5.303663   -0.597442
     75          1           0       20.284990   -3.846474   -0.840679
     76          1           0       14.667703   -3.834896    2.032167
     77          1           0       13.796112   -4.943982    6.088644
     78          1           0       15.442704   -5.510762    5.638635
     79          1           0       14.004573   -6.268017    4.901112
     80         12           0      -16.225391    0.428832    0.610321
     81          6           0      -16.492685   -2.676878   -1.158725
     82          6           0      -12.714559    0.014091    0.464998
     83          6           0      -15.897234    3.632510    1.553215
     84          6           0      -19.592227    0.936889    0.044926
     85          7           0      -14.737931   -1.159730   -0.240369
     86          6           0      -15.154393   -2.269308   -0.921232
     87          6           0      -13.964463   -2.925469   -1.603408
     88          6           0      -12.803572   -2.190004   -0.811696
     89          6           0      -13.394562   -1.014570   -0.131181
     90          6           0      -11.991645   -3.039134    0.223193
     91          6           0      -14.069926   -2.751147   -3.152482
     92          6           0      -13.778469   -3.981527   -4.106420
     93          1           0      -12.615057   -3.908464   -5.111658
     94          7           0      -14.634634    1.578260    1.130546
     95          6           0      -13.257507    1.248974    1.025331
     96          6           0      -12.435818    2.334286    1.528400
     97          6           0      -13.385942    3.391319    1.835822
     98          6           0      -14.697954    2.864236    1.510334
     99          6           0      -10.965639    2.271777    1.499552
    100          6           0      -12.960206    4.750908    2.416873
    101          8           0      -11.714624    4.949718    2.521123
    102          6           0      -13.919531    5.869766    2.875285
    103          7           0      -17.491511    2.217959    0.552791
    104          6           0      -17.180772    3.351103    1.152584
    105          6           0      -18.357603    4.268952    1.072206
    106          6           0      -19.529047    3.346562    0.640884
    107          6           0      -18.820692    2.072092    0.298337
    108          6           0      -18.744386    5.174409    2.318733
    109          6           0      -20.430272    3.900530   -0.579708
    110          6           0      -21.916649    4.237743   -0.306908
    111          7           0      -17.767207   -0.667929   -0.150105
    112          6           0      -19.061964   -0.349605   -0.317022
    113          6           0      -19.787839   -1.413229   -0.908370
    114          6           0      -18.811264   -2.365176   -1.210292
    115          6           0      -17.565935   -1.852495   -0.766923
    116          6           0      -21.229762   -1.568431   -1.182271
    117          6           0      -18.671385   -3.640686   -1.842411
    118          8           0      -19.520215   -4.306736   -2.391420
    119          6           0      -17.033137   -3.890049   -1.871790
    120          6           0      -16.703681   -5.124913   -1.150110
    121          8           0      -17.187314   -5.475600   -0.066304
    122          8           0      -15.746649   -5.776203   -1.898729
    123          6           0      -15.263794   -7.050361   -1.368943
    124          1           0      -11.625865   -0.057226    0.455147
    125          1           0      -15.841642    4.704226    1.753419
    126          1           0      -20.684276    0.951353    0.051532
    127          1           0      -13.946285   -3.958765   -1.255945
    128          1           0      -12.254675   -1.811374   -1.674734
    129          1           0      -12.071185   -2.536601    1.188224
    130          1           0      -10.927007   -3.113631    0.002715
    131          1           0      -12.372751   -4.043299    0.411461
    132          1           0      -13.306961   -1.985972   -3.293892
    133          1           0      -14.998059   -2.314799   -3.520945
    134          1           0      -14.718809   -4.151020   -4.630629
    135          1           0      -13.725833   -4.879286   -3.491247
    136          1           0      -10.691153    2.017045    0.475627
    137          1           0      -10.616674    1.443401    2.115739
    138          1           0      -10.410484    3.119747    1.901470
    139          1           0      -14.365314    6.314636    1.985487
    140          1           0      -13.347246    6.418558    3.622505
    141          1           0      -14.681433    5.318156    3.427074
    142          1           0      -18.128475    4.998317    0.296257
    143          1           0      -20.017334    3.149507    1.595350
    144          1           0      -19.222923    6.048780    1.876909
    145          1           0      -17.834301    5.408419    2.870858
    146          1           0      -19.466233    4.602656    2.902205
    147          1           0      -20.338913    3.121796   -1.336714
    148          1           0      -19.895588    4.740264   -1.023430
    149          1           0      -22.591235    3.794242   -1.038047
    150          1           0      -22.031414    5.322009   -0.306985
    151          1           0      -22.252794    3.959409    0.692084
    152          1           0      -21.501182   -2.612000   -1.338446
    153          1           0      -21.265317   -0.977824   -2.097889
    154          1           0      -21.773432   -0.919203   -0.496073
    155          1           0      -16.639961   -3.818326   -2.885244
    156          1           0      -16.085833   -7.723190   -1.123651
    157          1           0      -14.639874   -6.872045   -0.491902
    158          1           0      -14.663616   -7.540631   -2.135481
 ---------------------------------------------------------------------

 SCF Done:  E(RwB97XD) =  -4070.57984157     A.U. after   19 cycles

 Excitation energies and oscillator strengths:

 Excited State   1:      Singlet-A      1.6376 eV  757.13 nm  f=0.3879  <S**2>=0.000
     309 -> 316       -0.19097
     311 -> 313        0.68323
     309 <- 316       -0.12121
 This state for optimization and/or second-order correction.
 Total Energy, E(TD-HF/TD-DFT) =  -4070.51966242
 Copying the excited state density for this state as the 1-particle RhoCI density.

 Excited State   2:      Singlet-A      1.7667 eV  701.78 nm  f=0.3728  <S**2>=0.000
     310 -> 315       -0.19122
     312 -> 314        0.67831
     310 <- 315       -0.11014

 Excited State   3:      Singlet-A      2.1197 eV  584.90 nm  f=0.0965  <S**2>=0.000
     310 -> 314        0.63986
     312 -> 315        0.27485

 Excited State   4:      Singlet-A      2.1988 eV  563.87 nm  f=0.1290  <S**2>=0.000
     309 -> 313        0.63868
     311 -> 316        0.29222

 Excited State   5:      Singlet-A      3.2684 eV  379.34 nm  f=0.0032  <S**2>=0.000
     303 -> 314        0.16894
     306 -> 314       -0.15599
     308 -> 314        0.64082
     308 -> 317       -0.10628

 The electronic state is 1-A.
 Alpha  occ. eigenvalues --  -46.95278 -46.94862 -19.31530 -19.28462 -19.25550
 Alpha  occ. eigenvalues --  -19.25413 -19.24841 -19.24442 -19.23316 -19.23219
 Alpha  occ. eigenvalues --  -14.46577 -14.46517 -14.46310 -14.45998 -14.44584
 Alpha  occ. eigenvalues --  -14.44456 -14.44429 -14.42554 -10.43977 -10.42356
 Alpha  occ. eigenvalues --  -10.40849 -10.39526 -10.39285 -10.38753 -10.36331
 Alpha  occ. eigenvalues --  -10.36218 -10.35719 -10.35245 -10.34947 -10.34892
 Alpha  occ. eigenvalues --  -10.34818 -10.34703 -10.34643 -10.34577 -10.34427
 Alpha  occ. eigenvalues --  -10.34421 -10.34353 -10.34052 -10.33806 -10.33655
 Alpha  occ. eigenvalues --  -10.33424 -10.33129 -10.32986 -10.32816 -10.32750
 Alpha  occ. eigenvalues --  -10.32286 -10.32248 -10.32165 -10.31977 -10.31968
 Alpha  occ. eigenvalues --  -10.31942 -10.31877 -10.31801 -10.31730 -10.31698
 Alpha  occ. eigenvalues --  -10.31663 -10.31652 -10.31648 -10.31646 -10.31608
 Alpha  occ. eigenvalues --  -10.31589 -10.31575 -10.31466 -10.31383 -10.31265
 Alpha  occ. eigenvalues --  -10.31222 -10.31138 -10.30809 -10.30737 -10.30699
 Alpha  occ. eigenvalues --  -10.30596 -10.30509 -10.30305 -10.30154 -10.30132
 Alpha  occ. eigenvalues --  -10.30118 -10.29949 -10.29925 -10.29908 -10.29707
 Alpha  occ. eigenvalues --  -10.29688 -10.29530 -10.29401 -10.29018 -10.28648
 Alpha  occ. eigenvalues --  -10.28363  -3.21275  -3.20773  -1.94853  -1.94386
 Alpha  occ. eigenvalues --   -1.94375  -1.94259  -1.93895  -1.93735  -1.18753
 Alpha  occ. eigenvalues --   -1.17300  -1.13115  -1.12769  -1.11693  -1.10397
 Alpha  occ. eigenvalues --   -1.09492  -1.09162  -1.07500  -1.07097  -1.06787
 Alpha  occ. eigenvalues --   -1.06504  -1.05783  -1.04425  -1.03648  -1.03069
 Alpha  occ. eigenvalues --   -0.95192  -0.93723  -0.91274  -0.91149  -0.90842
 Alpha  occ. eigenvalues --   -0.90236  -0.90033  -0.89919  -0.89660  -0.89529
 Alpha  occ. eigenvalues --   -0.89447  -0.89171  -0.88004  -0.87307  -0.86618
 Alpha  occ. eigenvalues --   -0.85899  -0.85791  -0.85571  -0.84832  -0.84637
 Alpha  occ. eigenvalues --   -0.83951  -0.83590  -0.83363  -0.82565  -0.82476
 Alpha  occ. eigenvalues --   -0.81792  -0.80609  -0.80220  -0.79620  -0.79075
 Alpha  occ. eigenvalues --   -0.78854  -0.78275  -0.78251  -0.77317  -0.77283
 Alpha  occ. eigenvalues --   -0.77079  -0.75231  -0.74447  -0.74226  -0.73677
 Alpha  occ. eigenvalues --   -0.71759  -0.71739  -0.71411  -0.70595  -0.70462
 Alpha  occ. eigenvalues --   -0.69222  -0.68776  -0.68627  -0.68100  -0.67940
 Alpha  occ. eigenvalues --   -0.67651  -0.67146  -0.67098  -0.66811  -0.66540
 Alpha  occ. eigenvalues --   -0.65431  -0.64983  -0.63009  -0.62256  -0.62174
 Alpha  occ. eigenvalues --   -0.61960  -0.61536  -0.61077  -0.60930  -0.60564
 Alpha  occ. eigenvalues --   -0.60429  -0.60006  -0.59626  -0.59525  -0.58763
 Alpha  occ. eigenvalues --   -0.58456  -0.58209  -0.57930  -0.57627  -0.57392
 Alpha  occ. eigenvalues --   -0.57006  -0.56883  -0.56500  -0.56142  -0.55693
 Alpha  occ. eigenvalues --   -0.55663  -0.55320  -0.55123  -0.55049  -0.54922
 Alpha  occ. eigenvalues --   -0.54745  -0.54610  -0.54126  -0.54087  -0.53915
 Alpha  occ. eigenvalues --   -0.53673  -0.53660  -0.53382  -0.53264  -0.53209
 Alpha  occ. eigenvalues --   -0.53151  -0.52850  -0.52556  -0.52438  -0.52278
 Alpha  occ. eigenvalues --   -0.52059  -0.52024  -0.51928  -0.51927  -0.51556
 Alpha  occ. eigenvalues --   -0.51380  -0.51170  -0.50827  -0.50759  -0.50626
 Alpha  occ. eigenvalues --   -0.50434  -0.50234  -0.49931  -0.49884  -0.49741
 Alpha  occ. eigenvalues --   -0.49685  -0.49637  -0.49575  -0.49464  -0.49427
 Alpha  occ. eigenvalues --   -0.49217  -0.49015  -0.48921  -0.48606  -0.48541
 Alpha  occ. eigenvalues --   -0.48428  -0.48416  -0.48117  -0.48072  -0.47925
 Alpha  occ. eigenvalues --   -0.47574  -0.47486  -0.47407  -0.47335  -0.46996
 Alpha  occ. eigenvalues --   -0.46943  -0.46751  -0.46504  -0.46150  -0.45874
 Alpha  occ. eigenvalues --   -0.45711  -0.45633  -0.45602  -0.45563  -0.45310
 Alpha  occ. eigenvalues --   -0.45241  -0.45048  -0.45002  -0.44937  -0.44802
 Alpha  occ. eigenvalues --   -0.44700  -0.44522  -0.44275  -0.44199  -0.43926
 Alpha  occ. eigenvalues --   -0.43603  -0.43524  -0.43449  -0.43254  -0.43176
 Alpha  occ. eigenvalues --   -0.43112  -0.43050  -0.42890  -0.42813  -0.42271
 Alpha  occ. eigenvalues --   -0.42170  -0.42011  -0.41881  -0.40959  -0.40894
 Alpha  occ. eigenvalues --   -0.40691  -0.40678  -0.40246  -0.39794  -0.39702
 Alpha  occ. eigenvalues --   -0.39620  -0.39587  -0.38578  -0.38365  -0.37783
 Alpha  occ. eigenvalues --   -0.37663  -0.37339  -0.37173  -0.36206  -0.36133
 Alpha  occ. eigenvalues --   -0.35772  -0.35323  -0.35200  -0.33908  -0.33586
 Alpha  occ. eigenvalues --   -0.33398  -0.33178  -0.32500  -0.32357  -0.32274
 Alpha  occ. eigenvalues --   -0.32018  -0.31586  -0.30379  -0.26116  -0.25655
 Alpha  occ. eigenvalues --   -0.23146  -0.23144
 Alpha virt. eigenvalues --   -0.07324  -0.06805  -0.00084   0.00147   0.01899
 Alpha virt. eigenvalues --    0.02353   0.04467   0.04894   0.05447   0.06047
 Alpha virt. eigenvalues --    0.06375   0.06997   0.07546   0.08121   0.08484

 Mulliken charges:
               1
     1  Mg   0.949544
     2  C    0.045675
     3  C   -0.095078
     4  C   -0.065670
     5  C   -0.086050
     6  N   -0.314087
     7  C    0.001196
     8  C   -0.120853
     9  C   -0.103136
    10  C    0.089396
    11  C    0.035015
    12  C   -0.006337
    13  C   -0.094847
    14  H    0.041440
    15  N   -0.554550
    16  C    0.175956
    17  C   -0.150963
    18  C   -0.082802
    19  C    0.208240
    20  C    0.035055
    21  C    0.082020
    22  O   -0.237323
    23  C   -0.013239
    24  N   -0.304678
    25  C   -0.029638
    26  C   -0.047668
    27  C   -0.103714
    28  C    0.058272
    29  C    0.030144
    30  C   -0.003892
    31  C   -0.057102
    32  N   -0.438219
    33  C    0.134134
    34  C   -0.193278
    35  C   -0.035323
    36  C    0.077327
    37  C    0.080567
    38  C    0.135332
    39  O   -0.202677
    40  C   -0.093118
    41  C    0.220906
    42  O   -0.208209
    43  O   -0.410341
    44  C    0.136761
    45  H    0.001541
    46  H    0.012941
    47  H   -0.022063
    48  H    0.032088
    49  H    0.036228
    50  H    0.038390
    51  H    0.032948
    52  H    0.048427
    53  H    0.023419
    54  H    0.054518
    55  H    0.041813
    56  H    0.065391
    57  H    0.043043
    58  H    0.065328
    59  H    0.060779
    60  H    0.080033
    61  H    0.041680
    62  H    0.065187
    63  H    0.042236
    64  H    0.040164
    65  H    0.046674
    66  H    0.033102
    67  H    0.056304
    68  H    0.030816
    69  H    0.022371
    70  H    0.035956
    71  H    0.038513
    72  H    0.045665
    73  H    0.035910
    74  H    0.058384
    75  H    0.050924
    76  H    0.080220
    77  H    0.051970
    78  H    0.069246
    79  H    0.055668
    80  Mg   0.980487
    81  C   -0.124130
    82  C   -0.080672
    83  C   -0.101699
    84  C   -0.096382
    85  N   -0.314557
    86  C   -0.024882
    87  C   -0.047728
    88  C   -0.085509
    89  C    0.061046
    90  C    0.030231
    91  C   -0.009471
    92  C   -0.101161
    93  H    0.050337
    94  N   -0.481192
    95  C    0.127663
    96  C   -0.142855
    97  C   -0.097888
    98  C    0.230135
    99  C    0.077175
   100  C    0.025783
   101  O   -0.277849
   102  C    0.020149
   103  N   -0.347051
   104  C    0.019039
   105  C   -0.090700
   106  C   -0.108934
   107  C    0.094294
   108  C    0.033660
   109  C    0.010059
   110  C   -0.047590
   111  N   -0.436788
   112  C    0.106322
   113  C   -0.206126
   114  C   -0.066829
   115  C    0.193064
   116  C    0.118111
   117  C    0.144233
   118  O   -0.188349
   119  C   -0.050516
   120  C    0.292284
   121  O   -0.254387
   122  O   -0.371208
   123  C    0.136595
   124  H   -0.000149
   125  H   -0.036538
   126  H    0.003005
   127  H    0.018646
   128  H    0.029530
   129  H    0.037157
   130  H    0.045319
   131  H    0.037113
   132  H    0.031043
   133  H    0.053682
   134  H    0.048113
   135  H    0.042460
   136  H    0.047662
   137  H    0.033271
   138  H    0.069249
   139  H    0.083943
   140  H    0.065014
   141  H    0.043380
   142  H    0.038383
   143  H    0.032697
   144  H    0.040656
   145  H    0.041096
   146  H    0.031858
   147  H    0.033605
   148  H    0.025537
   149  H    0.046699
   150  H    0.035587
   151  H    0.033297
   152  H    0.081012
   153  H    0.046794
   154  H    0.029951
   155  H    0.059557
   156  H    0.065700
   157  H    0.052762
   158  H    0.056699
 Sum of Mulliken charges =  -0.00000

 Dipole moment (field-independent basis, Debye):
    X=             -2.8313    Y=              6.6982    Z=             -1.6248  Tot=              7.4513
 Quadrupole moment (field-independent basis, Debye-Ang):
   XX=           -553.3101   YY=           -509.0767   ZZ=           -507.6463
   XY=             12.1466   XZ=            -51.9625   YZ=             14.6478

 Normal termination of Gaussian 16 at Sat Sep 18 23:25:37 2021.
