 Gaussian 16, Revision A.03,
 Gaussian 16:  ES64L-G16RevA.03 25-Dec-2016

 --------------------------------
 #p wB97XD/Def2SVP td=(nstates=5)
 --------------------------------

 --------------------------------
 TDDFT excited states in gaussian
 --------------------------------
 Symbolic Z-matrix:
 Charge =  0 Multiplicity = 1

                         Standard orientation:
 ---------------------------------------------------------------------
 Center     Atomic      Atomic             Coordinates (Angstroms)
 Number     Number       Type             X           Y           Z
 ---------------------------------------------------------------------
      1         12           0      -11.199715    0.288225   -0.369277
      2          6           0       -9.258577   -2.503596   -0.535751
      3          6           0      -13.789927   -1.747034    0.715974
      4          6           0      -12.987014    3.081276    0.157053
      5          6           0       -8.356062    2.312197   -0.819766
      6          7           0      -11.397408   -1.861043    0.289161
      7          6           0      -10.442753   -2.785920    0.064188
      8          6           0      -10.820332   -4.129287    0.572298
      9          6           0      -12.460498   -3.929964    0.623530
     10          6           0      -12.596773   -2.395160    0.537905
     11          6           0      -13.201053   -4.721872   -0.494260
     12          6           0      -10.217517   -4.344585    1.951436
     13          6           0      -10.516105   -3.283235    3.109070
     14          1           0      -10.777527   -3.750988    4.535346
     15          7           0      -13.107532    0.631024    0.333730
     16          6           0      -14.089686   -0.354594    0.606139
     17          6           0      -15.326846    0.328465    0.787840
     18          6           0      -15.147222    1.702718    0.690320
     19          6           0      -13.729517    1.897605    0.342887
     20          6           0      -16.564171   -0.501611    1.063139
     21          6           0      -16.164726    2.785763    0.958511
     22          8           0      -17.307052    2.386648    1.296171
     23          6           0      -15.897049    4.180776    1.064925
     24          7           0      -10.663002    2.394496   -0.126763
     25          6           0      -11.621613    3.353148    0.022755
     26          6           0      -11.000014    4.770188    0.040493
     27          6           0       -9.493984    4.483661   -0.278510
     28          6           0       -9.473085    2.965812   -0.342523
     29          6           0      -11.665633    5.734108   -0.918342
     30          6           0       -8.524025    5.109986    0.859221
     31          6           0       -7.263127    5.782542    0.304436
     32          7           0       -9.133509    0.036808   -0.646932
     33          6           0       -8.146476    0.895065   -1.012722
     34          6           0       -7.034349    0.093164   -1.445159
     35          6           0       -7.389453   -1.295733   -1.333996
     36          6           0       -8.673319   -1.258357   -0.815593
     37          6           0       -5.654490    0.598435   -1.694080
     38          6           0       -6.989331   -2.662907   -1.427706
     39          8           0       -5.890193   -3.043624   -1.849973
     40          6           0       -8.180322   -3.476645   -0.956284
     41          6           0       -8.595888   -4.384208   -2.053294
     42          8           0       -7.788498   -5.167927   -2.512507
     43          8           0       -9.912804   -4.302999   -2.389022
     44          6           0      -10.340225   -5.210915   -3.455285
     45          1           0      -14.662574   -2.399671    0.785067
     46          1           0      -13.633175    3.959434    0.098503
     47          1           0       -7.472418    2.865964   -1.144744
     48          1           0      -10.527978   -5.001866   -0.011942
     49          1           0      -12.882085   -4.406561    1.509485
     50          1           0      -13.914968   -5.414039   -0.049291
     51          1           0      -12.446219   -5.312469   -1.014094
     52          1           0      -13.703346   -4.100520   -1.236831
     53          1           0       -9.148482   -4.504093    1.809146
     54          1           0      -10.528780   -5.364263    2.177999
     55          1           0      -11.375092   -2.632624    2.944381
     56          1           0       -9.574570   -2.736349    3.150051
     57          1           0      -16.560993   -0.675687    2.139308
     58          1           0      -16.460915   -1.464249    0.563932
     59          1           0      -17.516879   -0.067982    0.757662
     60          1           0      -16.587372    4.674849    1.749354
     61          1           0      -15.802069    4.682248    0.100940
     62          1           0      -14.954939    4.238376    1.608407
     63          1           0      -11.125700    5.079550    1.078674
     64          1           0       -9.267232    4.824289   -1.288603
     65          1           0      -12.551643    5.331516   -1.408541
     66          1           0      -11.088207    6.280013   -1.663956
     67          1           0      -12.134481    6.449154   -0.241699
     68          1           0       -8.176047    4.382065    1.592197
     69          1           0       -9.048111    5.821028    1.497607
     70          1           0       -7.381421    6.860374    0.412357
     71          1           0       -7.223609    5.596918   -0.769127
     72          1           0       -6.352059    5.462716    0.810409
     73          1           0       -5.497724    1.224144   -2.571897
     74          1           0       -5.031226   -0.294888   -1.749195
     75          1           0       -5.292050    1.221656   -0.876492
     76          1           0       -7.825507   -4.070727   -0.113594
     77          1           0      -10.109094   -6.228085   -3.137688
     78          1           0       -9.912859   -4.969096   -4.428547
     79          1           0      -11.395467   -5.063713   -3.684806
     80         12           0       10.607224    0.710279   -0.187384
     81          6           0       11.897654   -2.441524    0.413023
     82          6           0        7.600214   -0.308205    1.397987
     83          6           0        9.469923    3.942581   -0.217941
     84          6           0       13.684579    1.826151   -1.289076
     85          7           0        9.839425   -1.210323    0.660024
     86          6           0       10.602211   -2.337109    0.884246
     87          6           0        9.891875   -3.421683    1.777981
     88          6           0        8.381032   -2.892252    1.743046
     89          6           0        8.542247   -1.367204    1.194480
     90          6           0        7.300274   -3.698330    0.926590
     91          6           0       10.416520   -3.544789    3.165245
     92          6           0       11.020324   -4.847338    3.654092
     93          1           0       10.901754   -5.121773    5.161866
     94          7           0        8.730570    1.671214    0.417486
     95          6           0        7.630797    1.011920    0.998188
     96          6           0        6.551181    1.932927    1.160722
     97          6           0        7.141476    3.256484    0.829861
     98          6           0        8.528684    3.022473    0.321856
     99          6           0        5.215476    1.583303    1.825087
    100          6           0        6.335782    4.556248    1.000008
    101          8           0        5.191032    4.670697    1.428462
    102          6           0        7.096558    5.833618    0.946603
    103          7           0       11.542539    2.734012   -0.533095
    104          6           0       10.784571    3.832848   -0.650077
    105          6           0       11.747208    5.014185   -0.761955
    106          6           0       13.148479    4.384123   -1.207907
    107          6           0       12.792542    2.840494   -1.033500
    108          6           0       11.255474    5.989852   -1.889182
    109          6           0       14.472415    4.779522   -0.433703
    110          6           0       15.575557    5.557571   -1.135366
    111          7           0       12.457864   -0.151937   -0.486414
    112          6           0       13.635722    0.415728   -0.982281
    113          6           0       14.688726   -0.553088   -0.964967
    114          6           0       14.078848   -1.723421   -0.416391
    115          6           0       12.685095   -1.391592   -0.197301
    116          6           0       16.113866   -0.389373   -1.390292
    117          6           0       14.243778   -3.075339   -0.072416
    118          8           0       15.249098   -3.751723   -0.158662
    119          6           0       12.883776   -3.578086    0.549794
    120          6           0       12.564211   -4.894715   -0.023814
    121          8           0       12.700770   -5.947130    0.589702
    122          8           0       12.126298   -4.752693   -1.332080
    123          6           0       11.828616   -6.046547   -1.986560
    124          1           0        6.617863   -0.516428    1.826029
    125          1           0        8.997787    4.926109   -0.272904
    126          1           0       14.659064    2.208349   -1.599733
    127          1           0        9.948432   -4.390794    1.283493
    128          1           0        8.070185   -2.781545    2.782521
    129          1           0        7.739559   -4.666225    0.685325
    130          1           0        6.956319   -3.204919    0.017459
    131          1           0        6.423027   -3.787538    1.566268
    132          1           0        9.564775   -3.388884    3.829019
    133          1           0       11.202855   -2.809279    3.331532
    134          1           0       12.094101   -4.800840    3.474950
    135          1           0       10.574666   -5.729290    3.194600
    136          1           0        5.039292    0.601084    2.263044
    137          1           0        4.502555    1.834195    1.040046
    138          1           0        5.057659    2.414390    2.511723
    139          1           0        7.230927    6.341972   -0.007222
    140          1           0        8.050875    5.767315    1.469301
    141          1           0        6.501008    6.557613    1.503951
    142          1           0       11.852486    5.564991    0.173005
    143          1           0       13.287442    4.501113   -2.282095
    144          1           0       11.252405    6.990666   -1.457391
    145          1           0       10.275889    5.763872   -2.312315
    146          1           0       11.901273    5.992237   -2.767571
    147          1           0       14.863528    3.824342   -0.084022
    148          1           0       14.140990    5.434140    0.373551
    149          1           0       16.483185    5.323032   -0.578645
    150          1           0       15.383570    6.624354   -1.018324
    151          1           0       15.808392    5.352889   -2.179818
    152          1           0       16.586629   -1.357903   -1.225275
    153          1           0       16.535050    0.423013   -0.798839
    154          1           0       16.259941   -0.147695   -2.443230
    155          1           0       13.127578   -3.732841    1.601389
    156          1           0       12.720781   -6.429696   -2.481763
    157          1           0       10.970719   -5.861722   -2.633016
    158          1           0       11.471148   -6.788840   -1.273461
 ---------------------------------------------------------------------

 SCF Done:  E(RwB97XD) =  -4070.59398891     A.U. after   20 cycles

 Excitation energies and oscillator strengths:

 Excited State   1:      Singlet-A      1.6644 eV  744.90 nm  f=0.5712  <S**2>=0.000
     309 -> 315        0.17299
     311 -> 313        0.66498
     312 -> 314        0.16208
     309 <- 315        0.11004
 This state for optimization and/or second-order correction.
 Total Energy, E(TD-HF/TD-DFT) =  -4070.53282199
 Copying the excited state density for this state as the 1-particle RhoCI density.

 Excited State   2:      Singlet-A      1.6898 eV  733.71 nm  f=0.2202  <S**2>=0.000
     310 -> 316        0.17709
     311 -> 313       -0.16155
     312 -> 314        0.66362
     310 <- 316        0.10961

 Excited State   3:      Singlet-A      2.1185 eV  585.26 nm  f=0.1459  <S**2>=0.000
     309 -> 313        0.64888
     311 -> 315       -0.25630

 Excited State   4:      Singlet-A      2.1631 eV  573.18 nm  f=0.1304  <S**2>=0.000
     310 -> 314        0.64759
     312 -> 316       -0.25627

 Excited State   5:      Singlet-A      3.0627 eV  404.82 nm  f=0.0072  <S**2>=0.000
     307 -> 313        0.68060

 The electronic state is 1-A.
 Alpha  occ. eigenvalues --  -46.96728 -46.95489 -19.31627 -19.30220 -19.24655
 Alpha  occ. eigenvalues --  -19.24459 -19.24116 -19.23346 -19.23255 -19.23190
 Alpha  occ. eigenvalues --  -14.48052 -14.46687 -14.46676 -14.46456 -14.44604
 Alpha  occ. eigenvalues --  -14.44468 -14.44315 -14.43198 -10.43334 -10.42859
 Alpha  occ. eigenvalues --  -10.39225 -10.38837 -10.38474 -10.38045 -10.37167
 Alpha  occ. eigenvalues --  -10.36521 -10.36134 -10.35759 -10.35665 -10.35574
 Alpha  occ. eigenvalues --  -10.35358 -10.35259 -10.35106 -10.34692 -10.34526
 Alpha  occ. eigenvalues --  -10.34493 -10.34451 -10.34207 -10.34003 -10.33983
 Alpha  occ. eigenvalues --  -10.33393 -10.33185 -10.33061 -10.32922 -10.32658
 Alpha  occ. eigenvalues --  -10.32650 -10.32649 -10.32630 -10.32516 -10.32479
 Alpha  occ. eigenvalues --  -10.32472 -10.32447 -10.32441 -10.32248 -10.32238
 Alpha  occ. eigenvalues --  -10.32198 -10.32190 -10.32122 -10.32109 -10.31833
 Alpha  occ. eigenvalues --  -10.31810 -10.31549 -10.31462 -10.31442 -10.31391
 Alpha  occ. eigenvalues --  -10.31290 -10.31227 -10.31220 -10.30921 -10.30892
 Alpha  occ. eigenvalues --  -10.30796 -10.30720 -10.30693 -10.30434 -10.30359
 Alpha  occ. eigenvalues --  -10.30243 -10.30050 -10.30000 -10.29795 -10.29649
 Alpha  occ. eigenvalues --  -10.29541 -10.29398 -10.29273 -10.28834 -10.28793
 Alpha  occ. eigenvalues --  -10.28579  -3.22421  -3.21395  -1.96030  -1.95513
 Alpha  occ. eigenvalues --   -1.95383  -1.94956  -1.94533  -1.94344  -1.19615
 Alpha  occ. eigenvalues --   -1.17572  -1.12256  -1.11851  -1.11274  -1.10653
 Alpha  occ. eigenvalues --   -1.10241  -1.09561  -1.07006  -1.06699  -1.06560
 Alpha  occ. eigenvalues --   -1.05964  -1.04765  -1.04537  -1.03707  -1.03622
 Alpha  occ. eigenvalues --   -0.96078  -0.94436  -0.91373  -0.91261  -0.91136
 Alpha  occ. eigenvalues --   -0.90919  -0.90656  -0.89970  -0.89733  -0.89554
 Alpha  occ. eigenvalues --   -0.88983  -0.88362  -0.87801  -0.87736  -0.87042
 Alpha  occ. eigenvalues --   -0.86335  -0.86020  -0.85643  -0.85309  -0.84721
 Alpha  occ. eigenvalues --   -0.84713  -0.84094  -0.83418  -0.82881  -0.82731
 Alpha  occ. eigenvalues --   -0.82623  -0.80592  -0.79995  -0.79696  -0.79040
 Alpha  occ. eigenvalues --   -0.78985  -0.78824  -0.78086  -0.78028  -0.77370
 Alpha  occ. eigenvalues --   -0.76952  -0.75398  -0.74501  -0.74186  -0.74138
 Alpha  occ. eigenvalues --   -0.72107  -0.71258  -0.71092  -0.70875  -0.70791
 Alpha  occ. eigenvalues --   -0.69886  -0.69187  -0.68993  -0.68491  -0.67459
 Alpha  occ. eigenvalues --   -0.67369  -0.67346  -0.67235  -0.67187  -0.66676
 Alpha  occ. eigenvalues --   -0.66390  -0.65832  -0.64868  -0.62245  -0.62209
 Alpha  occ. eigenvalues --   -0.61734  -0.61629  -0.61354  -0.61350  -0.60967
 Alpha  occ. eigenvalues --   -0.60765  -0.60399  -0.60054  -0.59706  -0.58800
 Alpha  occ. eigenvalues --   -0.58773  -0.58596  -0.58457  -0.57832  -0.57798
 Alpha  occ. eigenvalues --   -0.57301  -0.57112  -0.56590  -0.56499  -0.56241
 Alpha  occ. eigenvalues --   -0.55727  -0.55680  -0.55461  -0.55391  -0.55058
 Alpha  occ. eigenvalues --   -0.55046  -0.54700  -0.54618  -0.54481  -0.54276
 Alpha  occ. eigenvalues --   -0.53934  -0.53835  -0.53762  -0.53716  -0.53364
 Alpha  occ. eigenvalues --   -0.53162  -0.53036  -0.52819  -0.52744  -0.52346
 Alpha  occ. eigenvalues --   -0.52253  -0.52035  -0.51616  -0.51598  -0.51456
 Alpha  occ. eigenvalues --   -0.51339  -0.51090  -0.51069  -0.50742  -0.50725
 Alpha  occ. eigenvalues --   -0.50603  -0.50472  -0.50449  -0.50106  -0.50093
 Alpha  occ. eigenvalues --   -0.49724  -0.49692  -0.49567  -0.49050  -0.49048
 Alpha  occ. eigenvalues --   -0.48868  -0.48678  -0.48514  -0.48437  -0.48404
 Alpha  occ. eigenvalues --   -0.48392  -0.48024  -0.47980  -0.47818  -0.47700
 Alpha  occ. eigenvalues --   -0.47693  -0.47581  -0.47540  -0.47167  -0.47108
 Alpha  occ. eigenvalues --   -0.46990  -0.46842  -0.46611  -0.46540  -0.46538
 Alpha  occ. eigenvalues --   -0.46501  -0.46399  -0.45977  -0.45714  -0.45553
 Alpha  occ. eigenvalues --   -0.45538  -0.45467  -0.44884  -0.44774  -0.44643
 Alpha  occ. eigenvalues --   -0.44348  -0.44255  -0.44250  -0.44204  -0.44046
 Alpha  occ. eigenvalues --   -0.43847  -0.43753  -0.43511  -0.43324  -0.43319
 Alpha  occ. eigenvalues --   -0.43159  -0.43104  -0.42962  -0.42361  -0.42230
 Alpha  occ. eigenvalues --   -0.41792  -0.41521  -0.41429  -0.41254  -0.41104
 Alpha  occ. eigenvalues --   -0.40684  -0.40179  -0.39837  -0.39818  -0.39735
 Alpha  occ. eigenvalues --   -0.39494  -0.39305  -0.39092  -0.39020  -0.38674
 Alpha  occ. eigenvalues --   -0.37913  -0.37729  -0.36751  -0.36415  -0.36223
 Alpha  occ. eigenvalues --   -0.36001  -0.35374  -0.35322  -0.34016  -0.33897
 Alpha  occ. eigenvalues --   -0.33129  -0.32837  -0.32432  -0.32372  -0.32332
 Alpha  occ. eigenvalues --   -0.32196  -0.31743  -0.31160  -0.26443  -0.26244
 Alpha  occ. eigenvalues --   -0.23874  -0.23497
 Alpha virt. eigenvalues --   -0.07988  -0.07518  -0.00320   0.00032   0.02162
 Alpha virt. eigenvalues --    0.02190   0.04098   0.04423   0.04442   0.05586
 Alpha virt. eigenvalues --    0.07161   0.07324   0.07538   0.08001   0.08552

 Mulliken charges:
               1
     1  Mg   0.931690
     2  C   -0.001048
     3  C   -0.065869
     4  C   -0.091457
     5  C   -0.077366
     6  N   -0.307417
     7  C    0.004346
     8  C   -0.074826
     9  C   -0.126159
    10  C    0.080330
    11  C    0.020501
    12  C    0.008088
    13  C   -0.131096
    14  H    0.036927
    15  N   -0.514527
    16  C    0.149041
    17  C   -0.151967
    18  C   -0.055357
    19  C    0.177962
    20  C    0.087498
    21  C    0.034378
    22  O   -0.270977
    23  C    0.017191
    24  N   -0.324711
    25  C    0.043703
    26  C   -0.057448
    27  C   -0.088558
    28  C    0.105820
    29  C    0.017467
    30  C   -0.009965
    31  C   -0.055827
    32  N   -0.439932
    33  C    0.094759
    34  C   -0.179757
    35  C    0.011781
    36  C    0.117586
    37  C    0.048019
    38  C    0.070904
    39  O   -0.202404
    40  C   -0.081216
    41  C    0.257178
    42  O   -0.228075
    43  O   -0.352580
    44  C    0.138929
    45  H   -0.003830
    46  H   -0.037193
    47  H   -0.004960
    48  H    0.022042
    49  H    0.037578
    50  H    0.038130
    51  H    0.026397
    52  H    0.039101
    53  H    0.024871
    54  H    0.032674
    55  H    0.078093
    56  H    0.066387
    57  H    0.053659
    58  H    0.029869
    59  H    0.063930
    60  H    0.061138
    61  H    0.077268
    62  H    0.047617
    63  H    0.049808
    64  H    0.040775
    65  H    0.036040
    66  H    0.051973
    67  H    0.027152
    68  H    0.036539
    69  H    0.028031
    70  H    0.035041
    71  H    0.031272
    72  H    0.047780
    73  H    0.038428
    74  H    0.057780
    75  H    0.038183
    76  H    0.089439
    77  H    0.063361
    78  H    0.059010
    79  H    0.051059
    80  Mg   0.930670
    81  C    0.061004
    82  C   -0.053305
    83  C   -0.068053
    84  C   -0.064768
    85  N   -0.367821
    86  C   -0.017603
    87  C   -0.066927
    88  C   -0.122726
    89  C    0.087902
    90  C    0.030058
    91  C    0.037190
    92  C   -0.149266
    93  H    0.025054
    94  N   -0.454861
    95  C    0.135253
    96  C   -0.149220
    97  C   -0.136980
    98  C    0.177680
    99  C    0.084269
   100  C    0.092280
   101  O   -0.240062
   102  C   -0.062350
   103  N   -0.335553
   104  C    0.120617
   105  C   -0.138898
   106  C   -0.048813
   107  C    0.022578
   108  C    0.006451
   109  C   -0.011546
   110  C   -0.052369
   111  N   -0.425416
   112  C    0.118231
   113  C   -0.169545
   114  C   -0.018340
   115  C    0.076799
   116  C    0.078437
   117  C    0.069205
   118  O   -0.202583
   119  C   -0.060312
   120  C    0.246628
   121  O   -0.245830
   122  O   -0.384154
   123  C    0.134884
   124  H   -0.012073
   125  H   -0.020036
   126  H   -0.002874
   127  H    0.035078
   128  H    0.040616
   129  H    0.043436
   130  H    0.048970
   131  H    0.043698
   132  H    0.039739
   133  H    0.043058
   134  H    0.068702
   135  H    0.059220
   136  H    0.057543
   137  H    0.058340
   138  H    0.063362
   139  H    0.068258
   140  H    0.055758
   141  H    0.048126
   142  H    0.055006
   143  H    0.030075
   144  H    0.035913
   145  H    0.039820
   146  H    0.030957
   147  H    0.041463
   148  H    0.028635
   149  H    0.036880
   150  H    0.037354
   151  H    0.038345
   152  H    0.062903
   153  H    0.045323
   154  H    0.046800
   155  H    0.066498
   156  H    0.069521
   157  H    0.052837
   158  H    0.054866
 Sum of Mulliken charges =  -0.00000

 Dipole moment (field-independent basis, Debye):
    X=             -4.9624    Y=              6.8361    Z=             -2.3427  Tot=              8.7662
 Quadrupole moment (field-independent basis, Debye-Ang):
   XX=           -553.9004   YY=           -481.6803   ZZ=           -506.9424
   XY=             85.6644   XZ=              1.6636   YZ=             -6.6068

 Normal termination of Gaussian 16 at Sun Sep 19 20:40:06 2021.
