 Gaussian 16, Revision A.03,
 Gaussian 16:  ES64L-G16RevA.03 25-Dec-2016

 --------------------------------
 #p wB97XD/Def2SVP td=(nstates=5)
 --------------------------------

 --------------------------------
 TDDFT excited states in gaussian
 --------------------------------
 Symbolic Z-matrix:
 Charge =  0 Multiplicity = 1

                         Standard orientation:
 ---------------------------------------------------------------------
 Center     Atomic      Atomic             Coordinates (Angstroms)
 Number     Number       Type             X           Y           Z
 ---------------------------------------------------------------------
      1         12           0       33.816531    0.561819   -0.583025
      2          6           0       31.665257   -2.256672    0.362356
      3          6           0       31.370075    2.533514    0.868509
      4          6           0       36.025538    2.854978   -0.405321
      5          6           0       36.206802   -1.940873   -1.549929
      6          7           0       31.743123    0.090214    0.655257
      7          6           0       31.082654   -1.095268    0.893320
      8          6           0       29.819783   -0.816946    1.788008
      9          6           0       29.605750    0.703576    1.690996
     10          6           0       30.972269    1.141692    1.039420
     11          6           0       28.402344    1.245300    0.812797
     12          6           0       29.948858   -1.367841    3.249425
     13          6           0       28.702571   -1.982603    3.849131
     14          1           0       27.905565   -1.104551    4.864201
     15          7           0       33.700531    2.448485    0.003783
     16          6           0       32.611032    3.133049    0.469496
     17          6           0       32.983439    4.547941    0.743698
     18          6           0       34.355975    4.625074    0.390913
     19          6           0       34.755744    3.270762    0.016795
     20          6           0       32.091871    5.641014    1.355263
     21          6           0       35.330189    5.787943    0.600133
     22          8           0       34.865075    6.838917    1.032836
     23          6           0       36.707805    5.750607    0.303533
     24          7           0       35.926779    0.374439   -0.686247
     25          6           0       36.546436    1.600362   -0.826407
     26          6           0       38.032310    1.345988   -1.292006
     27          6           0       38.139296   -0.220271   -1.345085
     28          6           0       36.642501   -0.608926   -1.286284
     29          6           0       38.450632    2.038491   -2.618080
     30          6           0       39.023841   -0.963226   -0.264380
     31          6           0       40.547994   -0.991900   -0.472697
     32          7           0       33.986627   -1.645662   -0.672560
     33          6           0       34.960476   -2.466528   -1.205266
     34          6           0       34.526424   -3.840742   -1.275580
     35          6           0       33.211924   -3.801779   -0.676452
     36          6           0       32.896492   -2.464005   -0.251603
     37          6           0       35.375113   -4.966723   -1.780427
     38          6           0       32.151206   -4.612743   -0.274554
     39          8           0       32.044983   -5.830592   -0.222382
     40          6           0       31.167103   -3.707463    0.521513
     41          6           0       29.839378   -3.885559   -0.177200
     42          8           0       28.787040   -4.133729    0.416591
     43          8           0       29.835422   -3.581612   -1.597980
     44          6           0       28.483246   -3.420666   -2.130184
     45          1           0       30.583398    3.185038    1.253377
     46          1           0       36.833327    3.570931   -0.570649
     47          1           0       37.004641   -2.568320   -1.952480
     48          1           0       28.940296   -1.204474    1.271806
     49          1           0       29.593837    1.174739    2.673825
     50          1           0       27.665163    1.585868    1.539594
     51          1           0       27.937624    0.441386    0.242693
     52          1           0       28.661216    2.006968    0.077379
     53          1           0       30.154482   -0.609196    4.005025
     54          1           0       30.704702   -2.152300    3.292880
     55          1           0       28.992592   -2.950901    4.257079
     56          1           0       28.009816   -2.181724    3.030867
     57          1           0       32.275326    6.590765    0.852145
     58          1           0       32.357279    5.631098    2.412347
     59          1           0       31.037416    5.421766    1.193064
     60          1           0       36.816847    5.661656   -0.777816
     61          1           0       37.274688    4.997978    0.851612
     62          1           0       37.034427    6.695114    0.739994
     63          1           0       38.779970    1.678865   -0.572857
     64          1           0       38.459823   -0.562875   -2.328649
     65          1           0       38.782397    1.229032   -3.268464
     66          1           0       39.281073    2.710691   -2.404438
     67          1           0       37.540147    2.548409   -2.935259
     68          1           0       38.641305   -1.984157   -0.287462
     69          1           0       38.926174   -0.488893    0.712351
     70          1           0       40.625577   -0.507418   -1.446443
     71          1           0       40.905370   -2.009564   -0.636357
     72          1           0       41.160663   -0.477828    0.267493
     73          1           0       36.273713   -4.945636   -1.165244
     74          1           0       35.747367   -4.810801   -2.792798
     75          1           0       34.948791   -5.947539   -1.569494
     76          1           0       31.087828   -4.132512    1.521902
     77          1           0       28.772513   -2.775051   -2.960270
     78          1           0       27.779783   -3.078343   -1.371231
     79          1           0       28.211213   -4.382156   -2.565832
     80         12           0      -33.914108   -0.332984   -0.481700
     81          6           0      -30.946732    1.374037   -0.023237
     82          6           0      -32.344659   -3.174980    0.662947
     83          6           0      -36.977008   -1.883327   -0.362198
     84          6           0      -35.440720    2.576682   -1.508582
     85          7           0      -31.960764   -0.793690    0.417090
     86          6           0      -30.888131    0.076082    0.423486
     87          6           0      -29.623803   -0.583911    0.967263
     88          6           0      -30.005225   -2.106991    0.853807
     89          6           0      -31.514733   -2.018977    0.682846
     90          6           0      -29.235419   -2.976128   -0.240828
     91          6           0      -29.149057   -0.117092    2.380288
     92          6           0      -27.666758    0.159360    2.517868
     93          1           0      -26.970075   -0.871292    3.392622
     94          7           0      -34.525960   -2.235463    0.087701
     95          6           0      -33.749499   -3.246756    0.492772
     96          6           0      -34.534078   -4.453849    0.686636
     97          6           0      -35.871517   -4.203725    0.428460
     98          6           0      -35.872300   -2.718450    0.078754
     99          6           0      -33.894849   -5.820539    1.226649
    100          6           0      -37.044954   -5.240803    0.431258
    101          8           0      -36.800964   -6.429933    0.782039
    102          6           0      -38.432500   -4.856210    0.085678
    103          7           0      -36.040382    0.335877   -0.655408
    104          6           0      -37.052778   -0.496524   -0.736276
    105          6           0      -38.282048    0.131586   -1.359017
    106          6           0      -37.908467    1.618082   -1.682043
    107          6           0      -36.343193    1.535370   -1.344196
    108          6           0      -39.108173   -0.657245   -2.424601
    109          6           0      -38.601726    2.789676   -0.927969
    110          6           0      -38.445138    4.121501   -1.632321
    111          7           0      -33.316354    1.631239   -0.715454
    112          6           0      -34.039349    2.729361   -1.236094
    113          6           0      -33.128623    3.833837   -1.367117
    114          6           0      -31.865918    3.360507   -0.934392
    115          6           0      -32.086873    2.048420   -0.525020
    116          6           0      -33.397988    5.150891   -2.079606
    117          6           0      -30.550963    3.748096   -0.793750
    118          8           0      -29.944725    4.778905   -0.903185
    119          6           0      -29.877880    2.490036   -0.034125
    120          6           0      -29.800212    2.941213    1.423598
    121          8           0      -30.717586    2.924496    2.221550
    122          8           0      -28.503877    3.381962    1.635783
    123          6           0      -28.235359    3.964840    2.946429
    124          1           0      -31.865251   -4.142672    0.823789
    125          1           0      -37.914367   -2.440924   -0.314459
    126          1           0      -35.751729    3.527031   -1.947373
    127          1           0      -28.828926   -0.410113    0.242538
    128          1           0      -29.928842   -2.520919    1.859916
    129          1           0      -29.944072   -3.786171   -0.412939
    130          1           0      -28.356141   -3.497533    0.138280
    131          1           0      -28.951625   -2.468016   -1.162347
    132          1           0      -29.436243   -0.948912    3.023804
    133          1           0      -29.731724    0.666960    2.863442
    134          1           0      -27.562567    1.159376    2.939451
    135          1           0      -27.147478    0.139686    1.559509
    136          1           0      -32.832759   -5.772444    1.470637
    137          1           0      -34.036542   -6.621929    0.500760
    138          1           0      -34.291435   -6.124950    2.194242
    139          1           0      -38.459019   -4.465639   -0.931108
    140          1           0      -38.882524   -4.235830    0.860843
    141          1           0      -38.940249   -5.809997   -0.052311
    142          1           0      -39.096353    0.354546   -0.669291
    143          1           0      -37.821175    1.803252   -2.752907
    144          1           0      -38.747531   -1.685765   -2.378907
    145          1           0      -39.096768   -0.203452   -3.416251
    146          1           0      -40.173618   -0.725144   -2.204320
    147          1           0      -38.197825    2.775263    0.084243
    148          1           0      -39.639348    2.469381   -0.834449
    149          1           0      -39.334772    4.713053   -1.414739
    150          1           0      -38.351822    4.067665   -2.717632
    151          1           0      -37.631618    4.676000   -1.164473
    152          1           0      -32.506871    5.759138   -2.234938
    153          1           0      -34.146971    5.690252   -1.501214
    154          1           0      -33.838190    4.985637   -3.063040
    155          1           0      -28.948079    2.185765   -0.515725
    156          1           0      -28.807797    4.885808    3.058256
    157          1           0      -27.170145    4.126884    3.107652
    158          1           0      -28.607297    3.296812    3.722772
 ---------------------------------------------------------------------

 SCF Done:  E(RwB97XD) =  -4070.55912877     A.U. after   20 cycles

 Excitation energies and oscillator strengths:

 Excited State   1:      Singlet-A      1.6685 eV  743.07 nm  f=0.3519  <S**2>=0.000
     309 -> 315        0.20211
     312 -> 313        0.67714
     309 <- 315        0.11957
 This state for optimization and/or second-order correction.
 Total Energy, E(TD-HF/TD-DFT) =  -4070.49781145
 Copying the excited state density for this state as the 1-particle RhoCI density.

 Excited State   2:      Singlet-A      1.8712 eV  662.58 nm  f=0.3748  <S**2>=0.000
     310 -> 316        0.14188
     311 -> 314        0.68597

 Excited State   3:      Singlet-A      2.1894 eV  566.28 nm  f=0.0675  <S**2>=0.000
     309 -> 313        0.61431
     312 -> 315       -0.33153

 Excited State   4:      Singlet-A      2.2255 eV  557.12 nm  f=0.1258  <S**2>=0.000
     310 -> 314        0.64385
     311 -> 316       -0.24648
     311 -> 318        0.10811

 Excited State   5:      Singlet-A      3.2140 eV  385.76 nm  f=0.0157  <S**2>=0.000
     308 -> 313        0.61824
     308 -> 317        0.12002
     312 -> 315        0.24314

 The electronic state is 1-A.
 Alpha  occ. eigenvalues --  -46.97094 -46.95750 -19.29683 -19.28933 -19.25344
 Alpha  occ. eigenvalues --  -19.25025 -19.24727 -19.23827 -19.22894 -19.22648
 Alpha  occ. eigenvalues --  -14.47343 -14.46913 -14.46632 -14.46564 -14.45411
 Alpha  occ. eigenvalues --  -14.45217 -14.43732 -14.43011 -10.43266 -10.42886
 Alpha  occ. eigenvalues --  -10.41101 -10.38888 -10.37482 -10.37343 -10.37288
 Alpha  occ. eigenvalues --  -10.36525 -10.36408 -10.35960 -10.35829 -10.35641
 Alpha  occ. eigenvalues --  -10.35600 -10.35452 -10.35250 -10.35000 -10.34844
 Alpha  occ. eigenvalues --  -10.34487 -10.34348 -10.34082 -10.33868 -10.33769
 Alpha  occ. eigenvalues --  -10.33386 -10.33360 -10.33228 -10.33060 -10.32974
 Alpha  occ. eigenvalues --  -10.32895 -10.32674 -10.32490 -10.32441 -10.32413
 Alpha  occ. eigenvalues --  -10.32367 -10.32299 -10.32294 -10.32268 -10.32238
 Alpha  occ. eigenvalues --  -10.32209 -10.32117 -10.32108 -10.31587 -10.31565
 Alpha  occ. eigenvalues --  -10.31394 -10.31359 -10.31177 -10.31104 -10.31056
 Alpha  occ. eigenvalues --  -10.31035 -10.30943 -10.30865 -10.30844 -10.30823
 Alpha  occ. eigenvalues --  -10.30784 -10.30778 -10.30770 -10.30767 -10.30725
 Alpha  occ. eigenvalues --  -10.30613 -10.30508 -10.30489 -10.30113 -10.30031
 Alpha  occ. eigenvalues --  -10.29878 -10.29647 -10.29631 -10.29249 -10.29082
 Alpha  occ. eigenvalues --  -10.26991  -3.22997  -3.21645  -1.96521  -1.96163
 Alpha  occ. eigenvalues --   -1.95917  -1.95214  -1.94769  -1.94615  -1.17549
 Alpha  occ. eigenvalues --   -1.16077  -1.12681  -1.11931  -1.11441  -1.11189
 Alpha  occ. eigenvalues --   -1.10027  -1.08546  -1.07104  -1.06606  -1.05870
 Alpha  occ. eigenvalues --   -1.05359  -1.05349  -1.05280  -1.04540  -1.03084
 Alpha  occ. eigenvalues --   -0.94870  -0.93465  -0.91031  -0.90893  -0.90818
 Alpha  occ. eigenvalues --   -0.90402  -0.90350  -0.89950  -0.89002  -0.88981
 Alpha  occ. eigenvalues --   -0.88881  -0.88699  -0.87851  -0.87714  -0.86921
 Alpha  occ. eigenvalues --   -0.86405  -0.85765  -0.85596  -0.85544  -0.85126
 Alpha  occ. eigenvalues --   -0.84478  -0.83989  -0.83111  -0.82616  -0.82150
 Alpha  occ. eigenvalues --   -0.81844  -0.80237  -0.79589  -0.79276  -0.79099
 Alpha  occ. eigenvalues --   -0.78955  -0.78639  -0.77763  -0.77260  -0.77227
 Alpha  occ. eigenvalues --   -0.77087  -0.74824  -0.74352  -0.73917  -0.73675
 Alpha  occ. eigenvalues --   -0.71661  -0.71098  -0.71098  -0.70549  -0.69845
 Alpha  occ. eigenvalues --   -0.69709  -0.69367  -0.68999  -0.67545  -0.67509
 Alpha  occ. eigenvalues --   -0.67393  -0.67326  -0.66998  -0.66698  -0.66030
 Alpha  occ. eigenvalues --   -0.66027  -0.63884  -0.63666  -0.62413  -0.62031
 Alpha  occ. eigenvalues --   -0.61809  -0.61423  -0.61261  -0.61033  -0.60906
 Alpha  occ. eigenvalues --   -0.60467  -0.59758  -0.59321  -0.59184  -0.58997
 Alpha  occ. eigenvalues --   -0.58666  -0.58461  -0.57588  -0.57404  -0.56965
 Alpha  occ. eigenvalues --   -0.56747  -0.56295  -0.56084  -0.55914  -0.55835
 Alpha  occ. eigenvalues --   -0.55681  -0.55661  -0.55474  -0.55269  -0.55226
 Alpha  occ. eigenvalues --   -0.55109  -0.54848  -0.54696  -0.54438  -0.53945
 Alpha  occ. eigenvalues --   -0.53905  -0.53677  -0.53495  -0.53418  -0.52970
 Alpha  occ. eigenvalues --   -0.52968  -0.52665  -0.52521  -0.52493  -0.52129
 Alpha  occ. eigenvalues --   -0.51958  -0.51814  -0.51796  -0.51739  -0.51507
 Alpha  occ. eigenvalues --   -0.51402  -0.51101  -0.50979  -0.50898  -0.50608
 Alpha  occ. eigenvalues --   -0.50563  -0.50396  -0.50333  -0.50124  -0.50085
 Alpha  occ. eigenvalues --   -0.49896  -0.49662  -0.49518  -0.49277  -0.49238
 Alpha  occ. eigenvalues --   -0.49164  -0.48656  -0.48500  -0.48467  -0.48115
 Alpha  occ. eigenvalues --   -0.48042  -0.48033  -0.47915  -0.47851  -0.47315
 Alpha  occ. eigenvalues --   -0.47124  -0.47106  -0.46958  -0.46904  -0.46794
 Alpha  occ. eigenvalues --   -0.46606  -0.46596  -0.46438  -0.46316  -0.46254
 Alpha  occ. eigenvalues --   -0.46023  -0.45845  -0.45722  -0.45562  -0.45502
 Alpha  occ. eigenvalues --   -0.45308  -0.45153  -0.45081  -0.44767  -0.44556
 Alpha  occ. eigenvalues --   -0.44451  -0.44442  -0.44384  -0.44258  -0.44083
 Alpha  occ. eigenvalues --   -0.44041  -0.43973  -0.43906  -0.43497  -0.43423
 Alpha  occ. eigenvalues --   -0.43255  -0.42644  -0.42330  -0.42168  -0.42119
 Alpha  occ. eigenvalues --   -0.42076  -0.41830  -0.41760  -0.41224  -0.41214
 Alpha  occ. eigenvalues --   -0.40879  -0.40776  -0.39999  -0.39810  -0.39615
 Alpha  occ. eigenvalues --   -0.39269  -0.39162  -0.38593  -0.38311  -0.38285
 Alpha  occ. eigenvalues --   -0.37341  -0.37271  -0.36545  -0.36381  -0.36138
 Alpha  occ. eigenvalues --   -0.35935  -0.35331  -0.35266  -0.34474  -0.34123
 Alpha  occ. eigenvalues --   -0.33838  -0.33526  -0.33204  -0.33062  -0.32117
 Alpha  occ. eigenvalues --   -0.31597  -0.31153  -0.30865  -0.26400  -0.26046
 Alpha  occ. eigenvalues --   -0.23346  -0.23267
 Alpha virt. eigenvalues --   -0.07135  -0.06732  -0.00802   0.00155   0.01879
 Alpha virt. eigenvalues --    0.02186   0.03642   0.04100   0.04319   0.04936
 Alpha virt. eigenvalues --    0.06817   0.06982   0.07625   0.08152   0.08190

 Mulliken charges:
               1
     1  Mg   0.966443
     2  C   -0.023733
     3  C   -0.063173
     4  C   -0.091998
     5  C   -0.100976
     6  N   -0.282721
     7  C   -0.034087
     8  C    0.018331
     9  C   -0.119626
    10  C   -0.008134
    11  C    0.015351
    12  C    0.017523
    13  C   -0.125806
    14  H    0.022211
    15  N   -0.499396
    16  C    0.163123
    17  C   -0.190139
    18  C   -0.055694
    19  C    0.215204
    20  C    0.096997
    21  C    0.017619
    22  O   -0.245735
    23  C    0.020409
    24  N   -0.384907
    25  C    0.048250
    26  C   -0.125759
    27  C   -0.090039
    28  C    0.045120
    29  C    0.037758
    30  C   -0.003800
    31  C   -0.042747
    32  N   -0.423467
    33  C    0.155173
    34  C   -0.159554
    35  C   -0.021090
    36  C    0.159194
    37  C    0.093632
    38  C    0.074466
    39  O   -0.216358
    40  C   -0.098881
    41  C    0.286730
    42  O   -0.256822
    43  O   -0.417819
    44  C    0.139152
    45  H   -0.001268
    46  H   -0.023751
    47  H   -0.001918
    48  H    0.034631
    49  H    0.044276
    50  H    0.048578
    51  H    0.036649
    52  H    0.049378
    53  H    0.048457
    54  H    0.043935
    55  H    0.057357
    56  H    0.052622
    57  H    0.068245
    58  H    0.069355
    59  H    0.030885
    60  H    0.075384
    61  H    0.063936
    62  H    0.054802
    63  H    0.035892
    64  H    0.019937
    65  H    0.037843
    66  H    0.042229
    67  H    0.042237
    68  H    0.028955
    69  H    0.036388
    70  H    0.015403
    71  H    0.040185
    72  H    0.050251
    73  H    0.034099
    74  H    0.047806
    75  H    0.062821
    76  H    0.072086
    77  H    0.050729
    78  H    0.068791
    79  H    0.052569
    80  Mg   0.966799
    81  C   -0.041463
    82  C   -0.128809
    83  C   -0.109105
    84  C   -0.042042
    85  N   -0.333175
    86  C   -0.011556
    87  C   -0.074677
    88  C   -0.076008
    89  C    0.063593
    90  C    0.034898
    91  C    0.028397
    92  C   -0.107194
    93  H    0.024758
    94  N   -0.466026
    95  C    0.185949
    96  C   -0.152921
    97  C   -0.065512
    98  C    0.142345
    99  C    0.072130
   100  C    0.052423
   101  O   -0.253974
   102  C    0.003552
   103  N   -0.330956
   104  C    0.128550
   105  C   -0.083481
   106  C   -0.090908
   107  C    0.027160
   108  C    0.020514
   109  C    0.009852
   110  C   -0.034575
   111  N   -0.438519
   112  C    0.046358
   113  C   -0.148264
   114  C    0.002740
   115  C    0.157723
   116  C    0.059527
   117  C    0.057940
   118  O   -0.195159
   119  C   -0.117621
   120  C    0.296817
   121  O   -0.238842
   122  O   -0.364140
   123  C    0.141318
   124  H   -0.003501
   125  H   -0.019480
   126  H   -0.016880
   127  H    0.023285
   128  H    0.032775
   129  H    0.025023
   130  H    0.044690
   131  H    0.053882
   132  H    0.020241
   133  H    0.052772
   134  H    0.048266
   135  H    0.048692
   136  H    0.019579
   137  H    0.064696
   138  H    0.059510
   139  H    0.061903
   140  H    0.091288
   141  H    0.055073
   142  H    0.038391
   143  H    0.031574
   144  H    0.030249
   145  H    0.041601
   146  H    0.029152
   147  H    0.042110
   148  H    0.025814
   149  H    0.032456
   150  H    0.043075
   151  H    0.051706
   152  H    0.058569
   153  H    0.038064
   154  H    0.040752
   155  H    0.054831
   156  H    0.058150
   157  H    0.060940
   158  H    0.042338
 Sum of Mulliken charges =  -0.00000

 Dipole moment (field-independent basis, Debye):
    X=             -0.1356    Y=              1.3885    Z=             -3.8846  Tot=              4.1275
 Quadrupole moment (field-independent basis, Debye-Ang):
   XX=            -31.8333   YY=           -593.9142   ZZ=           -499.9080
   XY=            181.1372   XZ=             -8.8714   YZ=              5.0959

 Normal termination of Gaussian 16 at Mon Sep 20 06:20:16 2021.
