 Gaussian 16, Revision A.03,
 Gaussian 16:  ES64L-G16RevA.03 25-Dec-2016

 --------------------------------
 #p wB97XD/Def2SVP td=(nstates=5)
 --------------------------------

 --------------------------------
 TDDFT excited states in gaussian
 --------------------------------
 Symbolic Z-matrix:
 Charge =  0 Multiplicity = 1

                         Standard orientation:
 ---------------------------------------------------------------------
 Center     Atomic      Atomic             Coordinates (Angstroms)
 Number     Number       Type             X           Y           Z
 ---------------------------------------------------------------------
      1         12           0       24.502808   -0.786858    0.199015
      2          6           0       22.692127    2.266727    0.699037
      3          6           0       27.344517    1.113538   -0.253446
      4          6           0       25.970505   -3.507271   -0.859483
      5          6           0       21.469823   -2.439730    0.480881
      6          7           0       24.917916    1.525800   -0.055125
      7          6           0       24.022112    2.490046    0.320220
      8          6           0       24.761272    3.843967    0.493254
      9          6           0       26.264560    3.496015    0.126699
     10          6           0       26.227900    1.942018   -0.109347
     11          6           0       26.910446    4.224909   -1.125795
     12          6           0       24.652161    4.480358    1.904605
     13          6           0       24.365898    5.937440    1.988406
     14          1           0       24.590488    6.938785    0.791721
     15          7           0       26.443213   -1.190417   -0.499176
     16          6           0       27.533777   -0.321141   -0.494007
     17          6           0       28.707406   -1.027181   -1.042823
     18          6           0       28.322376   -2.421175   -1.110278
     19          6           0       26.868028   -2.426627   -0.828646
     20          6           0       30.035022   -0.412035   -1.367240
     21          6           0       29.147448   -3.687987   -1.437824
     22          8           0       28.798208   -4.857942   -1.174139
     23          6           0       30.519524   -3.493283   -1.945341
     24          7           0       23.800230   -2.617383   -0.178770
     25          6           0       24.644163   -3.577788   -0.691755
     26          6           0       23.974597   -4.979870   -0.674981
     27          6           0       22.632122   -4.658678    0.119683
     28          6           0       22.623029   -3.140588    0.167101
     29          6           0       23.732006   -5.709865   -2.058646
     30          6           0       22.495818   -5.248977    1.514248
     31          6           0       21.377883   -6.298197    1.688684
     32          7           0       22.517768   -0.269151    0.709358
     33          6           0       21.389028   -1.052877    0.752459
     34          6           0       20.210244   -0.220575    1.026349
     35          6           0       20.712400    1.068097    1.065556
     36          6           0       22.109389    0.996389    0.867628
     37          6           0       18.778989   -0.626287    1.153694
     38          6           0       20.300929    2.408217    1.283443
     39          8           0       19.194282    2.909673    1.631866
     40          6           0       21.507615    3.217553    1.060614
     41          6           0       21.227378    4.300735    0.054340
     42          8           0       21.052814    4.131935   -1.103963
     43          8           0       21.273344    5.493685    0.646983
     44          6           0       20.742871    6.630235   -0.026335
     45          1           0       28.287720    1.637592   -0.422303
     46          1           0       26.334623   -4.495868   -1.149848
     47          1           0       20.510586   -2.959930    0.489969
     48          1           0       24.315238    4.520480   -0.236716
     49          1           0       26.909274    3.689656    0.983463
     50          1           0       26.315952    5.031315   -1.554284
     51          1           0       26.980070    3.479300   -1.919170
     52          1           0       27.916552    4.571464   -0.887738
     53          1           0       25.566567    4.373385    2.489313
     54          1           0       23.855870    4.040838    2.504619
     55          1           0       25.004099    6.393933    2.745593
     56          1           0       23.327456    6.043895    2.300882
     57          1           0       30.295300   -0.638482   -2.400973
     58          1           0       30.761142   -0.890416   -0.709964
     59          1           0       30.077107    0.634770   -1.064587
     60          1           0       30.444029   -2.979366   -2.903666
     61          1           0       30.894819   -4.495670   -2.150009
     62          1           0       31.177590   -3.059498   -1.192918
     63          1           0       24.610998   -5.595227   -0.038231
     64          1           0       21.811347   -5.043527   -0.485481
     65          1           0       24.100690   -5.092992   -2.877401
     66          1           0       22.701715   -6.041368   -2.193467
     67          1           0       24.285395   -6.648502   -2.025832
     68          1           0       22.466635   -4.542115    2.343583
     69          1           0       23.416069   -5.798347    1.710012
     70          1           0       20.762566   -6.220663    2.584828
     71          1           0       21.873434   -7.245502    1.902847
     72          1           0       20.674122   -6.375792    0.861050
     73          1           0       18.660524   -1.694872    1.335395
     74          1           0       18.272249   -0.511774    0.195575
     75          1           0       18.325183    0.065426    1.863300
     76          1           0       21.747791    3.662990    2.025660
     77          1           0       19.657497    6.530796    0.020205
     78          1           0       20.975720    6.596990   -1.090759
     79          1           0       21.010594    7.553617    0.487958
     80         12           0      -24.420975   -0.707866   -0.009278
     81          6           0      -23.286263    2.646351   -0.812795
     82          6           0      -24.315687    0.283394    3.211158
     83          6           0      -25.361448   -3.681893    0.678803
     84          6           0      -24.114232   -1.548456   -3.435091
     85          7           0      -23.859082    1.363829    1.084295
     86          6           0      -23.536145    2.550872    0.542543
     87          6           0      -23.492839    3.639572    1.631776
     88          6           0      -23.379026    2.663238    2.893659
     89          6           0      -23.930699    1.393398    2.396944
     90          6           0      -22.084576    2.660499    3.689498
     91          6           0      -24.769743    4.491683    1.530096
     92          6           0      -24.583129    5.931242    2.093549
     93          1           0      -23.153916    6.553418    2.447332
     94          7           0      -24.849712   -1.615879    1.739543
     95          6           0      -24.669826   -1.088565    3.003949
     96          6           0      -24.991697   -2.130309    3.974515
     97          6           0      -25.376804   -3.281612    3.244169
     98          6           0      -25.192826   -2.872132    1.822981
     99          6           0      -24.907397   -1.960814    5.426105
    100          6           0      -25.925552   -4.710224    3.767623
    101          8           0      -26.375616   -5.525930    3.010346
    102          6           0      -26.179400   -4.975471    5.262431
    103          7           0      -24.431195   -2.442443   -1.200718
    104          6           0      -25.020824   -3.517167   -0.683225
    105          6           0      -25.265143   -4.627524   -1.669475
    106          6           0      -25.242315   -3.799727   -2.977647
    107          6           0      -24.394805   -2.568639   -2.505090
    108          6           0      -24.142000   -5.766239   -1.670490
    109          6           0      -26.655387   -3.431251   -3.597100
    110          6           0      -27.870885   -4.377767   -3.375301
    111          7           0      -23.734180    0.245696   -1.750521
    112          6           0      -23.714647   -0.148862   -3.047710
    113          6           0      -23.395827    0.901187   -3.904950
    114          6           0      -23.179954    1.957866   -3.067157
    115          6           0      -23.406454    1.563334   -1.763355
    116          6           0      -23.378624    0.842890   -5.429964
    117          6           0      -22.833288    3.386525   -3.105776
    118          8           0      -22.406342    4.117633   -3.986820
    119          6           0      -22.981511    3.877181   -1.599655
    120          6           0      -21.753669    4.566414   -1.243367
    121          8           0      -20.673231    4.050796   -0.939549
    122          8           0      -21.928796    5.866593   -1.559104
    123          6           0      -20.676598    6.599432   -1.614151
    124          1           0      -24.104646    0.551802    4.248475
    125          1           0      -25.644735   -4.699172    0.954907
    126          1           0      -24.127769   -1.829667   -4.489997
    127          1           0      -22.568475    4.215604    1.587082
    128          1           0      -24.098797    3.039716    3.619215
    129          1           0      -22.217997    3.068162    4.691094
    130          1           0      -21.322688    3.242300    3.171059
    131          1           0      -21.620767    1.678320    3.780925
    132          1           0      -25.512436    4.039409    2.187708
    133          1           0      -25.212213    4.512446    0.534329
    134          1           0      -25.253541    6.126875    2.931051
    135          1           0      -25.123518    6.526313    1.357495
    136          1           0      -24.991777   -0.913857    5.716643
    137          1           0      -23.935782   -2.370729    5.702385
    138          1           0      -25.689301   -2.480004    5.980767
    139          1           0      -26.977765   -4.367733    5.688239
    140          1           0      -25.193745   -4.900611    5.722281
    141          1           0      -26.421162   -6.027664    5.414835
    142          1           0      -26.222992   -5.031659   -1.342776
    143          1           0      -24.692535   -4.287260   -3.782357
    144          1           0      -24.750389   -6.670343   -1.676594
    145          1           0      -23.501965   -5.768995   -0.787494
    146          1           0      -23.497355   -5.795358   -2.548118
    147          1           0      -26.528702   -3.245771   -4.662761
    148          1           0      -26.903168   -2.546786   -3.009949
    149          1           0      -28.373153   -4.137505   -2.438544
    150          1           0      -27.429615   -5.372042   -3.452877
    151          1           0      -28.588156   -4.326003   -4.193682
    152          1           0      -24.120160    0.084207   -5.681332
    153          1           0      -22.433259    0.484178   -5.835993
    154          1           0      -23.647726    1.827665   -5.811515
    155          1           0      -23.832500    4.559241   -1.582392
    156          1           0      -20.799714    7.646236   -1.890429
    157          1           0      -19.852186    6.119235   -2.141530
    158          1           0      -20.251293    6.698275   -0.614833
 ---------------------------------------------------------------------

 SCF Done:  E(RwB97XD) =  -4070.58017660     A.U. after   19 cycles

 Excitation energies and oscillator strengths:

 Excited State   1:      Singlet-A      1.6708 eV  742.04 nm  f=0.4203  <S**2>=0.000
     309 -> 315        0.18115
     312 -> 313        0.68458
     309 <- 315        0.11412
 This state for optimization and/or second-order correction.
 Total Energy, E(TD-HF/TD-DFT) =  -4070.51877410
 Copying the excited state density for this state as the 1-particle RhoCI density.

 Excited State   2:      Singlet-A      1.7990 eV  689.18 nm  f=0.3711  <S**2>=0.000
     310 -> 316       -0.19145
     311 -> 314        0.67946
     310 <- 316       -0.11149

 Excited State   3:      Singlet-A      2.1576 eV  574.65 nm  f=0.1251  <S**2>=0.000
     309 -> 313        0.64761
     312 -> 315       -0.26950

 Excited State   4:      Singlet-A      2.1925 eV  565.49 nm  f=0.1529  <S**2>=0.000
     310 -> 314        0.65250
     311 -> 316        0.25640

 Excited State   5:      Singlet-A      3.3917 eV  365.56 nm  f=0.0150  <S**2>=0.000
     301 -> 313        0.20045
     301 -> 317       -0.15923
     302 -> 313        0.44342
     302 -> 317       -0.28928
     302 -> 319        0.13148
     303 -> 313       -0.24658
     307 -> 313        0.14384
     312 -> 315       -0.13762

 The electronic state is 1-A.
 Alpha  occ. eigenvalues --  -46.95668 -46.95239 -19.30230 -19.30076 -19.25572
 Alpha  occ. eigenvalues --  -19.24599 -19.24177 -19.23836 -19.23672 -19.23505
 Alpha  occ. eigenvalues --  -14.46644 -14.46209 -14.46055 -14.45643 -14.44542
 Alpha  occ. eigenvalues --  -14.44322 -14.44087 -14.43181 -10.42899 -10.42004
 Alpha  occ. eigenvalues --  -10.41006 -10.38855 -10.38781 -10.38776 -10.35766
 Alpha  occ. eigenvalues --  -10.35401 -10.35239 -10.35066 -10.34925 -10.34836
 Alpha  occ. eigenvalues --  -10.34826 -10.34677 -10.34665 -10.34231 -10.34107
 Alpha  occ. eigenvalues --  -10.33646 -10.33634 -10.33545 -10.33542 -10.33460
 Alpha  occ. eigenvalues --  -10.33371 -10.33182 -10.32982 -10.32794 -10.32691
 Alpha  occ. eigenvalues --  -10.32537 -10.32350 -10.32334 -10.32296 -10.32287
 Alpha  occ. eigenvalues --  -10.32157 -10.32026 -10.31962 -10.31641 -10.31613
 Alpha  occ. eigenvalues --  -10.31595 -10.31551 -10.31514 -10.31428 -10.31414
 Alpha  occ. eigenvalues --  -10.31287 -10.31260 -10.31239 -10.31106 -10.31065
 Alpha  occ. eigenvalues --  -10.31030 -10.30852 -10.30778 -10.30709 -10.30492
 Alpha  occ. eigenvalues --  -10.30407 -10.30139 -10.30112 -10.29927 -10.29853
 Alpha  occ. eigenvalues --  -10.29745 -10.29723 -10.29436 -10.29403 -10.29381
 Alpha  occ. eigenvalues --  -10.29344 -10.29303 -10.29266 -10.29146 -10.29019
 Alpha  occ. eigenvalues --  -10.27661  -3.21622  -3.21259  -1.95212  -1.94830
 Alpha  occ. eigenvalues --   -1.94761  -1.94573  -1.94394  -1.94229  -1.20819
 Alpha  occ. eigenvalues --   -1.18624  -1.14867  -1.11919  -1.11620  -1.10442
 Alpha  occ. eigenvalues --   -1.10367  -1.08775  -1.07779  -1.07204  -1.06902
 Alpha  occ. eigenvalues --   -1.06705  -1.05795  -1.05397  -1.04499  -1.03760
 Alpha  occ. eigenvalues --   -0.95629  -0.94269  -0.91154  -0.91023  -0.90588
 Alpha  occ. eigenvalues --   -0.90399  -0.90234  -0.89934  -0.89729  -0.89482
 Alpha  occ. eigenvalues --   -0.88805  -0.88758  -0.88198  -0.87462  -0.86512
 Alpha  occ. eigenvalues --   -0.86273  -0.85389  -0.84977  -0.84507  -0.84239
 Alpha  occ. eigenvalues --   -0.83952  -0.83866  -0.83644  -0.82641  -0.82466
 Alpha  occ. eigenvalues --   -0.82042  -0.80606  -0.80237  -0.79656  -0.79081
 Alpha  occ. eigenvalues --   -0.78709  -0.78507  -0.78265  -0.77616  -0.77175
 Alpha  occ. eigenvalues --   -0.77109  -0.75182  -0.74689  -0.73610  -0.73462
 Alpha  occ. eigenvalues --   -0.71573  -0.71374  -0.70925  -0.70689  -0.69550
 Alpha  occ. eigenvalues --   -0.69426  -0.68794  -0.68199  -0.67840  -0.67372
 Alpha  occ. eigenvalues --   -0.67023  -0.66859  -0.66815  -0.66589  -0.66456
 Alpha  occ. eigenvalues --   -0.65638  -0.65022  -0.63752  -0.62852  -0.62302
 Alpha  occ. eigenvalues --   -0.61874  -0.61453  -0.61295  -0.61203  -0.61129
 Alpha  occ. eigenvalues --   -0.60349  -0.60182  -0.59831  -0.59726  -0.59450
 Alpha  occ. eigenvalues --   -0.58565  -0.58421  -0.58077  -0.57375  -0.57122
 Alpha  occ. eigenvalues --   -0.57120  -0.56887  -0.56501  -0.55961  -0.55744
 Alpha  occ. eigenvalues --   -0.55692  -0.55522  -0.55324  -0.55216  -0.54928
 Alpha  occ. eigenvalues --   -0.54910  -0.54832  -0.54660  -0.54343  -0.54158
 Alpha  occ. eigenvalues --   -0.53651  -0.53634  -0.53489  -0.53406  -0.53189
 Alpha  occ. eigenvalues --   -0.53044  -0.53026  -0.52613  -0.52385  -0.52017
 Alpha  occ. eigenvalues --   -0.51937  -0.51912  -0.51781  -0.51623  -0.51251
 Alpha  occ. eigenvalues --   -0.51040  -0.50997  -0.50860  -0.50685  -0.50675
 Alpha  occ. eigenvalues --   -0.50528  -0.50500  -0.50253  -0.50201  -0.50136
 Alpha  occ. eigenvalues --   -0.49773  -0.49606  -0.49397  -0.49326  -0.49293
 Alpha  occ. eigenvalues --   -0.48910  -0.48850  -0.48693  -0.48643  -0.48155
 Alpha  occ. eigenvalues --   -0.48137  -0.48061  -0.47973  -0.47741  -0.47655
 Alpha  occ. eigenvalues --   -0.47329  -0.47174  -0.46792  -0.46738  -0.46531
 Alpha  occ. eigenvalues --   -0.46491  -0.46418  -0.46410  -0.46201  -0.45968
 Alpha  occ. eigenvalues --   -0.45828  -0.45723  -0.45614  -0.45350  -0.45234
 Alpha  occ. eigenvalues --   -0.45160  -0.44890  -0.44875  -0.44576  -0.44565
 Alpha  occ. eigenvalues --   -0.44508  -0.44355  -0.44195  -0.44123  -0.43964
 Alpha  occ. eigenvalues --   -0.43821  -0.43539  -0.43394  -0.43323  -0.43199
 Alpha  occ. eigenvalues --   -0.43123  -0.42880  -0.42267  -0.42169  -0.41984
 Alpha  occ. eigenvalues --   -0.41608  -0.41560  -0.41205  -0.41017  -0.40576
 Alpha  occ. eigenvalues --   -0.40143  -0.40070  -0.39984  -0.39832  -0.39390
 Alpha  occ. eigenvalues --   -0.39084  -0.38635  -0.38557  -0.38243  -0.37882
 Alpha  occ. eigenvalues --   -0.37751  -0.37623  -0.36654  -0.36126  -0.36108
 Alpha  occ. eigenvalues --   -0.35640  -0.35147  -0.34669  -0.33941  -0.33724
 Alpha  occ. eigenvalues --   -0.33707  -0.33555  -0.32852  -0.32815  -0.32592
 Alpha  occ. eigenvalues --   -0.32288  -0.31580  -0.31569  -0.26034  -0.25285
 Alpha  occ. eigenvalues --   -0.23193  -0.23101
 Alpha virt. eigenvalues --   -0.07272  -0.06571   0.00462   0.00856   0.01861
 Alpha virt. eigenvalues --    0.02635   0.04133   0.04784   0.05414   0.05588
 Alpha virt. eigenvalues --    0.06781   0.07827   0.07933   0.08364   0.08493

 Mulliken charges:
               1
     1  Mg   0.968327
     2  C   -0.020955
     3  C   -0.037301
     4  C   -0.068958
     5  C   -0.100334
     6  N   -0.318817
     7  C   -0.004720
     8  C   -0.025585
     9  C   -0.108464
    10  C    0.038764
    11  C    0.011075
    12  C    0.007059
    13  C   -0.131912
    14  H    0.014350
    15  N   -0.444754
    16  C    0.109590
    17  C   -0.188342
    18  C   -0.082146
    19  C    0.150429
    20  C    0.090593
    21  C    0.056687
    22  O   -0.260092
    23  C   -0.009994
    24  N   -0.428896
    25  C    0.096620
    26  C   -0.123075
    27  C   -0.081879
    28  C    0.106196
    29  C    0.027992
    30  C    0.012432
    31  C   -0.064931
    32  N   -0.411570
    33  C    0.113976
    34  C   -0.170838
    35  C   -0.051489
    36  C    0.143924
    37  C    0.088535
    38  C    0.114913
    39  O   -0.251319
    40  C   -0.028990
    41  C    0.225704
    42  O   -0.205777
    43  O   -0.332423
    44  C    0.138711
    45  H   -0.013843
    46  H    0.020104
    47  H   -0.001496
    48  H    0.046119
    49  H    0.041901
    50  H    0.041078
    51  H    0.040369
    52  H    0.039972
    53  H    0.033325
    54  H    0.031253
    55  H    0.045750
    56  H    0.057655
    57  H    0.058325
    58  H    0.041425
    59  H    0.035370
    60  H    0.054098
    61  H    0.046895
    62  H    0.066185
    63  H    0.046326
    64  H    0.023318
    65  H    0.051631
    66  H    0.034851
    67  H    0.038250
    68  H    0.040927
    69  H    0.022546
    70  H    0.029642
    71  H    0.032277
    72  H    0.037114
    73  H    0.030957
    74  H    0.058266
    75  H    0.072588
    76  H    0.069294
    77  H    0.047692
    78  H    0.056369
    79  H    0.061152
    80  Mg   0.963177
    81  C   -0.002513
    82  C   -0.069656
    83  C   -0.087038
    84  C   -0.078703
    85  N   -0.252485
    86  C   -0.062565
    87  C   -0.062013
    88  C   -0.088822
    89  C    0.000135
    90  C    0.039643
    91  C    0.010091
    92  C   -0.092284
    93  H    0.048538
    94  N   -0.472760
    95  C    0.161609
    96  C   -0.161816
    97  C   -0.088104
    98  C    0.121925
    99  C    0.059396
   100  C    0.076563
   101  O   -0.197402
   102  C   -0.024126
   103  N   -0.321531
   104  C    0.065314
   105  C   -0.102446
   106  C   -0.113750
   107  C    0.058241
   108  C    0.030276
   109  C   -0.010576
   110  C   -0.052902
   111  N   -0.409994
   112  C    0.090488
   113  C   -0.219133
   114  C   -0.051367
   115  C    0.154526
   116  C    0.095810
   117  C    0.138656
   118  O   -0.197771
   119  C   -0.093045
   120  C    0.252634
   121  O   -0.272129
   122  O   -0.331227
   123  C    0.153303
   124  H   -0.010550
   125  H    0.011896
   126  H    0.003369
   127  H    0.040496
   128  H    0.017712
   129  H    0.039841
   130  H    0.042844
   131  H    0.036626
   132  H    0.031780
   133  H    0.048025
   134  H    0.038516
   135  H    0.037337
   136  H    0.044155
   137  H    0.065954
   138  H    0.040906
   139  H    0.086374
   140  H    0.045220
   141  H    0.050802
   142  H    0.043779
   143  H    0.017531
   144  H    0.041925
   145  H    0.045904
   146  H    0.042523
   147  H    0.037403
   148  H    0.027784
   149  H    0.050430
   150  H    0.034809
   151  H    0.039869
   152  H    0.025434
   153  H    0.053071
   154  H    0.055820
   155  H    0.073328
   156  H    0.049842
   157  H    0.060911
   158  H    0.024170
 Sum of Mulliken charges =  -0.00000

 Dipole moment (field-independent basis, Debye):
    X=             -0.8698    Y=             -0.6739    Z=              6.6778  Tot=              6.7678
 Quadrupole moment (field-independent basis, Debye-Ang):
   XX=           -249.4358   YY=           -492.0462   ZZ=           -488.6676
   XY=             65.6748   XZ=            -86.7424   YZ=             19.1857

 Normal termination of Gaussian 16 at Mon Sep 20 10:42:00 2021.
