 Gaussian 16, Revision A.03,
 Gaussian 16:  ES64L-G16RevA.03 25-Dec-2016

 --------------------------------
 #p wB97XD/Def2SVP td=(nstates=5)
 --------------------------------

 --------------------------------
 TDDFT excited states in gaussian
 --------------------------------
 Symbolic Z-matrix:
 Charge =  0 Multiplicity = 1

                         Standard orientation:
 ---------------------------------------------------------------------
 Center     Atomic      Atomic             Coordinates (Angstroms)
 Number     Number       Type             X           Y           Z
 ---------------------------------------------------------------------
      1         12           0       -4.481269   -0.185164    1.124764
      2          6           0       -4.858816    3.035839   -0.144143
      3          6           0       -2.039623    0.967278    3.256686
      4          6           0       -4.044963   -3.403503    2.049039
      5          6           0       -6.735638   -1.325107   -1.402697
      6          7           0       -3.515851    1.744470    1.400403
      7          6           0       -3.831891    2.929199    0.810519
      8          6           0       -3.037966    4.089807    1.424000
      9          6           0       -2.051309    3.315798    2.405710
     10          6           0       -2.601856    1.886963    2.349065
     11          6           0       -0.604312    3.379852    1.931933
     12          6           0       -3.864092    5.102766    2.294101
     13          6           0       -3.352093    6.516935    2.382994
     14          1           0       -1.981184    6.816980    1.969095
     15          7           0       -3.300671   -1.054270    2.506849
     16          6           0       -2.336482   -0.390212    3.291288
     17          6           0       -1.857589   -1.357645    4.243535
     18          6           0       -2.442544   -2.620491    3.972739
     19          6           0       -3.313443   -2.404446    2.791151
     20          6           0       -0.720096   -1.081702    5.203410
     21          6           0       -2.323277   -3.914335    4.662831
     22          8           0       -2.730889   -4.957326    4.197656
     23          6           0       -1.498041   -4.032155    5.995352
     24          7           0       -5.403478   -2.145864    0.548645
     25          6           0       -5.022915   -3.276471    1.064014
     26          6           0       -5.757321   -4.480729    0.401481
     27          6           0       -6.664887   -3.846998   -0.637114
     28          6           0       -6.244668   -2.334430   -0.574047
     29          6           0       -4.699347   -5.567530   -0.111131
     30          6           0       -8.162272   -4.119157   -0.380883
     31          6           0       -8.818197   -5.322245   -1.156276
     32          7           0       -5.744972    0.619358   -0.238180
     33          6           0       -6.606853    0.046584   -1.206208
     34          6           0       -7.254553    1.044015   -1.969707
     35          6           0       -6.502604    2.242856   -1.612593
     36          6           0       -5.642514    1.882206   -0.536202
     37          6           0       -8.169036    0.805210   -3.157276
     38          6           0       -6.383705    3.603500   -1.987704
     39          8           0       -6.983028    4.286153   -2.808964
     40          6           0       -5.284396    4.231399   -0.902246
     41          6           0       -4.244240    4.907315   -1.746508
     42          8           0       -3.563237    4.338527   -2.606256
     43          8           0       -4.210715    6.320010   -1.551500
     44          6           0       -3.204033    7.065791   -2.369830
     45          1           0       -1.273162    1.401794    3.902930
     46          1           0       -3.711984   -4.418887    2.272314
     47          1           0       -7.469364   -1.612023   -2.158389
     48          1           0       -2.504956    4.561514    0.598174
     49          1           0       -2.055103    3.720753    3.417603
     50          1           0       -0.471731    4.148688    1.171221
     51          1           0       -0.221816    2.410371    1.611553
     52          1           0        0.086280    3.772038    2.678543
     53          1           0       -3.950792    4.678840    3.293928
     54          1           0       -4.888689    5.062540    1.923745
     55          1           0       -3.352095    6.786063    3.439018
     56          1           0       -4.008763    7.169190    1.807222
     57          1           0        0.177084   -1.660258    4.983573
     58          1           0       -1.081589   -1.268400    6.215497
     59          1           0       -0.335794   -0.061856    5.211660
     60          1           0       -0.454097   -4.109182    5.690359
     61          1           0       -1.695099   -4.991213    6.474584
     62          1           0       -1.619229   -3.140059    6.608619
     63          1           0       -6.313674   -4.912246    1.233776
     64          1           0       -6.375629   -4.123234   -1.649910
     65          1           0       -4.831535   -5.758847   -1.175947
     66          1           0       -4.843308   -6.555786    0.326039
     67          1           0       -3.727760   -5.107992    0.075001
     68          1           0       -8.685333   -3.205631   -0.665873
     69          1           0       -8.275150   -4.241675    0.696415
     70          1           0       -9.134161   -4.951585   -2.132045
     71          1           0       -9.620319   -5.884552   -0.677864
     72          1           0       -7.937884   -5.936394   -1.342906
     73          1           0       -9.142153    0.651178   -2.691730
     74          1           0       -7.884095   -0.092136   -3.705255
     75          1           0       -8.097575    1.521204   -3.977031
     76          1           0       -5.807243    4.911240   -0.228391
     77          1           0       -3.411180    6.980814   -3.435979
     78          1           0       -2.148926    6.821684   -2.243452
     79          1           0       -3.444573    8.079308   -2.048861
     80         12           0        3.907754   -0.876484   -1.088996
     81          6           0        6.586556    1.110792   -0.244978
     82          6           0        1.870682    1.964852   -0.899960
     83          6           0        1.210193   -2.769107   -1.820792
     84          6           0        5.866698   -3.640400   -0.887601
     85          7           0        4.190808    1.264449   -0.353985
     86          6           0        5.450603    1.873478   -0.296873
     87          6           0        5.351857    3.411625   -0.320665
     88          6           0        3.793458    3.600746   -0.422031
     89          6           0        3.204391    2.220580   -0.619835
     90          6           0        3.198433    4.315920    0.784375
     91          6           0        6.120380    4.220388   -1.424900
     92          6           0        7.347611    5.163254   -0.932362
     93          1           0        7.104832    6.629258   -1.304367
     94          7           0        1.855280   -0.505469   -1.225500
     95          6           0        1.239819    0.756597   -1.243971
     96          6           0       -0.152480    0.665108   -1.695761
     97          6           0       -0.445245   -0.787215   -1.918226
     98          6           0        0.907233   -1.447380   -1.724765
     99          6           0       -1.059184    1.868505   -1.830993
    100          6           0       -1.671955   -1.478610   -2.287344
    101          8           0       -1.694107   -2.717898   -2.318171
    102          6           0       -2.975410   -0.755629   -2.578236
    103          7           0        3.616994   -2.856257   -1.223309
    104          6           0        2.426805   -3.454748   -1.676576
    105          6           0        2.528193   -5.005882   -1.971114
    106          6           0        4.086442   -5.230455   -1.610624
    107          6           0        4.554763   -3.807011   -1.232559
    108          6           0        1.530612   -5.918024   -1.100440
    109          6           0        4.878165   -5.843729   -2.816416
    110          6           0        5.940602   -6.854457   -2.517054
    111          7           0        5.852613   -1.203007   -0.541955
    112          6           0        6.548381   -2.415236   -0.560336
    113          6           0        7.939454   -2.206679   -0.344849
    114          6           0        8.018574   -0.765399   -0.306816
    115          6           0        6.714371   -0.257025   -0.355531
    116          6           0        9.068697   -3.148651   -0.305948
    117          6           0        8.915121    0.321014   -0.063501
    118          8           0       10.136684    0.429387    0.090258
    119          6           0        7.968110    1.590565    0.132430
    120          6           0        8.119671    2.089477    1.524922
    121          8           0        7.424887    1.904044    2.445246
    122          8           0        9.197250    2.968395    1.605945
    123          6           0        9.116761    3.939959    2.676797
    124          1           0        1.259055    2.869144   -0.926069
    125          1           0        0.437212   -3.478484   -2.123464
    126          1           0        6.527172   -4.506071   -0.969860
    127          1           0        5.672013    3.794004    0.647957
    128          1           0        3.519842    4.264067   -1.243015
    129          1           0        2.549489    3.621365    1.317153
    130          1           0        2.605426    5.104907    0.323413
    131          1           0        3.912556    4.802947    1.448066
    132          1           0        5.394433    4.846303   -1.944476
    133          1           0        6.585178    3.553958   -2.151627
    134          1           0        8.172498    4.799014   -1.544984
    135          1           0        7.500644    5.058480    0.141513
    136          1           0       -1.317586    2.177747   -0.817469
    137          1           0       -1.955977    1.554487   -2.362871
    138          1           0       -0.564015    2.739767   -2.260267
    139          1           0       -3.752769   -1.515575   -2.496279
    140          1           0       -2.997527   -0.260658   -3.549682
    141          1           0       -3.336229   -0.053177   -1.827183
    142          1           0        2.434502   -5.184674   -3.041770
    143          1           0        4.274139   -5.940786   -0.805129
    144          1           0        2.059068   -6.827962   -0.815338
    145          1           0        0.666435   -6.331667   -1.618822
    146          1           0        1.156907   -5.411496   -0.210344
    147          1           0        5.315355   -5.100006   -3.482430
    148          1           0        4.242080   -6.434878   -3.474953
    149          1           0        6.872465   -6.358537   -2.788241
    150          1           0        6.040563   -7.750321   -3.129872
    151          1           0        5.930204   -7.096071   -1.453718
    152          1           0        8.813879   -4.014392   -0.917845
    153          1           0        9.119136   -3.455240    0.738759
    154          1           0        9.986707   -2.600303   -0.518157
    155          1           0        8.259688    2.383377   -0.555978
    156          1           0        9.377130    3.367702    3.566556
    157          1           0        8.071413    4.245891    2.715511
    158          1           0        9.832278    4.750915    2.537852
 ---------------------------------------------------------------------

 SCF Done:  E(RwB97XD) =  -4070.64604772     A.U. after   19 cycles

 Excitation energies and oscillator strengths:

 Excited State   1:      Singlet-A      1.6257 eV  762.67 nm  f=0.3849  <S**2>=0.000
     310 -> 315        0.15987
     312 -> 314        0.68156
     310 <- 315        0.10498
 This state for optimization and/or second-order correction.
 Total Energy, E(TD-HF/TD-DFT) =  -4070.58630577
 Copying the excited state density for this state as the 1-particle RhoCI density.

 Excited State   2:      Singlet-A      1.7118 eV  724.31 nm  f=0.3873  <S**2>=0.000
     309 -> 316        0.17320
     311 -> 313        0.67866
     309 <- 316        0.10965

 Excited State   3:      Singlet-A      2.1409 eV  579.11 nm  f=0.0379  <S**2>=0.000
     309 -> 313       -0.21527
     310 -> 314        0.60593
     312 -> 315       -0.24671

 Excited State   4:      Singlet-A      2.1825 eV  568.08 nm  f=0.1786  <S**2>=0.000
     309 -> 313        0.60999
     310 -> 314        0.20621
     311 -> 316       -0.24769

 Excited State   5:      Singlet-A      2.6340 eV  470.71 nm  f=0.0000  <S**2>=0.000
     312 -> 313        0.70165

 The electronic state is 1-A.
 Alpha  occ. eigenvalues --  -46.94650 -46.94268 -19.30117 -19.27468 -19.25283
 Alpha  occ. eigenvalues --  -19.24536 -19.24515 -19.23735 -19.23595 -19.22902
 Alpha  occ. eigenvalues --  -14.47683 -14.47127 -14.46602 -14.46465 -14.45102
 Alpha  occ. eigenvalues --  -14.44882 -14.44342 -14.43085 -10.43727 -10.41973
 Alpha  occ. eigenvalues --  -10.39638 -10.39064 -10.38725 -10.38138 -10.36158
 Alpha  occ. eigenvalues --  -10.36147 -10.35933 -10.35678 -10.35626 -10.35396
 Alpha  occ. eigenvalues --  -10.35256 -10.35120 -10.35108 -10.35107 -10.34895
 Alpha  occ. eigenvalues --  -10.34689 -10.34522 -10.34464 -10.34199 -10.34125
 Alpha  occ. eigenvalues --  -10.33578 -10.33295 -10.33171 -10.33119 -10.33095
 Alpha  occ. eigenvalues --  -10.32827 -10.32628 -10.32575 -10.32529 -10.32528
 Alpha  occ. eigenvalues --  -10.32372 -10.32325 -10.32288 -10.32266 -10.32122
 Alpha  occ. eigenvalues --  -10.31793 -10.31780 -10.31768 -10.31677 -10.31672
 Alpha  occ. eigenvalues --  -10.31566 -10.31524 -10.31463 -10.31332 -10.31241
 Alpha  occ. eigenvalues --  -10.31170 -10.31037 -10.30754 -10.30689 -10.30552
 Alpha  occ. eigenvalues --  -10.30410 -10.30351 -10.30345 -10.30323 -10.30294
 Alpha  occ. eigenvalues --  -10.30062 -10.30038 -10.29977 -10.29806 -10.29749
 Alpha  occ. eigenvalues --  -10.29733 -10.29652 -10.29628 -10.29114 -10.28834
 Alpha  occ. eigenvalues --  -10.28382  -3.20765  -3.20436  -1.94376  -1.94001
 Alpha  occ. eigenvalues --   -1.93886  -1.93757  -1.93574  -1.93430  -1.18971
 Alpha  occ. eigenvalues --   -1.16377  -1.13548  -1.11593  -1.11212  -1.10268
 Alpha  occ. eigenvalues --   -1.09975  -1.08822  -1.07635  -1.06549  -1.06229
 Alpha  occ. eigenvalues --   -1.05709  -1.05393  -1.04798  -1.04060  -1.02643
 Alpha  occ. eigenvalues --   -0.94499  -0.94469  -0.91557  -0.91174  -0.91022
 Alpha  occ. eigenvalues --   -0.90556  -0.90539  -0.90371  -0.89991  -0.89631
 Alpha  occ. eigenvalues --   -0.89212  -0.89012  -0.88481  -0.88338  -0.86617
 Alpha  occ. eigenvalues --   -0.86124  -0.85316  -0.85107  -0.84436  -0.84301
 Alpha  occ. eigenvalues --   -0.83601  -0.83466  -0.82741  -0.82616  -0.82393
 Alpha  occ. eigenvalues --   -0.82108  -0.80950  -0.80389  -0.79472  -0.79189
 Alpha  occ. eigenvalues --   -0.79080  -0.78607  -0.78297  -0.77216  -0.77148
 Alpha  occ. eigenvalues --   -0.77140  -0.75409  -0.74932  -0.73901  -0.73649
 Alpha  occ. eigenvalues --   -0.71802  -0.71200  -0.71022  -0.70560  -0.70326
 Alpha  occ. eigenvalues --   -0.69887  -0.69614  -0.69458  -0.68193  -0.67548
 Alpha  occ. eigenvalues --   -0.67434  -0.67253  -0.67168  -0.66973  -0.66963
 Alpha  occ. eigenvalues --   -0.65865  -0.63937  -0.62869  -0.62625  -0.62034
 Alpha  occ. eigenvalues --   -0.61948  -0.61649  -0.61342  -0.60928  -0.60882
 Alpha  occ. eigenvalues --   -0.60418  -0.60205  -0.60165  -0.59684  -0.59595
 Alpha  occ. eigenvalues --   -0.58494  -0.58287  -0.57449  -0.57317  -0.57081
 Alpha  occ. eigenvalues --   -0.56992  -0.56374  -0.55840  -0.55676  -0.55628
 Alpha  occ. eigenvalues --   -0.55539  -0.55164  -0.55062  -0.54859  -0.54806
 Alpha  occ. eigenvalues --   -0.54644  -0.54624  -0.54595  -0.54138  -0.54090
 Alpha  occ. eigenvalues --   -0.53908  -0.53760  -0.53489  -0.53274  -0.53260
 Alpha  occ. eigenvalues --   -0.53061  -0.52903  -0.52654  -0.52431  -0.52328
 Alpha  occ. eigenvalues --   -0.51918  -0.51866  -0.51771  -0.51700  -0.51663
 Alpha  occ. eigenvalues --   -0.51600  -0.51476  -0.51437  -0.51242  -0.50834
 Alpha  occ. eigenvalues --   -0.50668  -0.50635  -0.50444  -0.50402  -0.50362
 Alpha  occ. eigenvalues --   -0.49989  -0.49836  -0.49766  -0.49594  -0.49466
 Alpha  occ. eigenvalues --   -0.49369  -0.49139  -0.49051  -0.48897  -0.48717
 Alpha  occ. eigenvalues --   -0.48691  -0.48474  -0.47956  -0.47876  -0.47838
 Alpha  occ. eigenvalues --   -0.47408  -0.47337  -0.47218  -0.47199  -0.47023
 Alpha  occ. eigenvalues --   -0.46886  -0.46752  -0.46539  -0.46432  -0.46280
 Alpha  occ. eigenvalues --   -0.46163  -0.46068  -0.45639  -0.45508  -0.45403
 Alpha  occ. eigenvalues --   -0.45320  -0.45181  -0.45081  -0.44854  -0.44752
 Alpha  occ. eigenvalues --   -0.44687  -0.44627  -0.44453  -0.44265  -0.44260
 Alpha  occ. eigenvalues --   -0.43851  -0.43579  -0.43472  -0.43444  -0.43304
 Alpha  occ. eigenvalues --   -0.43028  -0.42913  -0.42832  -0.42648  -0.42594
 Alpha  occ. eigenvalues --   -0.42179  -0.42025  -0.41868  -0.41394  -0.41010
 Alpha  occ. eigenvalues --   -0.40690  -0.40671  -0.40079  -0.39812  -0.39577
 Alpha  occ. eigenvalues --   -0.39516  -0.39342  -0.39187  -0.38555  -0.38422
 Alpha  occ. eigenvalues --   -0.38005  -0.36963  -0.36811  -0.36449  -0.36400
 Alpha  occ. eigenvalues --   -0.36102  -0.36051  -0.35359  -0.34074  -0.33596
 Alpha  occ. eigenvalues --   -0.33301  -0.33258  -0.33033  -0.32166  -0.32031
 Alpha  occ. eigenvalues --   -0.31989  -0.31769  -0.31309  -0.26466  -0.26278
 Alpha  occ. eigenvalues --   -0.23741  -0.23210
 Alpha virt. eigenvalues --   -0.07652  -0.07514  -0.00177  -0.00057   0.01906
 Alpha virt. eigenvalues --    0.01954   0.04182   0.04377   0.05306   0.06120
 Alpha virt. eigenvalues --    0.06712   0.07514   0.07534   0.07854   0.08244

 Mulliken charges:
               1
     1  Mg   0.951818
     2  C   -0.068901
     3  C   -0.103752
     4  C   -0.069752
     5  C   -0.085860
     6  N   -0.331697
     7  C   -0.012873
     8  C   -0.036509
     9  C   -0.130399
    10  C    0.072174
    11  C   -0.004038
    12  C    0.019411
    13  C   -0.105708
    14  H    0.035009
    15  N   -0.534086
    16  C    0.239524
    17  C   -0.150121
    18  C   -0.043496
    19  C    0.155682
    20  C    0.051535
    21  C    0.017386
    22  O   -0.223772
    23  C   -0.005484
    24  N   -0.321160
    25  C    0.063063
    26  C   -0.098107
    27  C   -0.040441
    28  C    0.030190
    29  C    0.014885
    30  C   -0.005772
    31  C   -0.042805
    32  N   -0.445893
    33  C    0.121199
    34  C   -0.137374
    35  C   -0.087494
    36  C    0.179360
    37  C    0.059916
    38  C    0.111837
    39  O   -0.211519
    40  C   -0.083276
    41  C    0.291288
    42  O   -0.265444
    43  O   -0.402499
    44  C    0.140820
    45  H    0.005903
    46  H    0.033655
    47  H    0.001311
    48  H    0.036132
    49  H    0.038849
    50  H    0.027190
    51  H    0.061458
    52  H    0.032436
    53  H    0.026130
    54  H    0.026281
    55  H    0.050583
    56  H    0.067472
    57  H    0.068654
    58  H    0.050105
    59  H    0.032840
    60  H    0.055559
    61  H    0.056386
    62  H    0.038411
    63  H    0.047691
    64  H    0.029534
    65  H    0.033176
    66  H    0.042652
    67  H    0.060155
    68  H    0.025630
    69  H    0.026537
    70  H    0.036751
    71  H    0.054452
    72  H    0.028643
    73  H    0.055170
    74  H    0.037168
    75  H    0.063288
    76  H    0.073322
    77  H    0.059738
    78  H    0.050997
    79  H    0.056502
    80  Mg   0.964509
    81  C    0.011741
    82  C   -0.100060
    83  C   -0.071364
    84  C   -0.099167
    85  N   -0.365382
    86  C   -0.035051
    87  C   -0.002448
    88  C   -0.138054
    89  C    0.090315
    90  C    0.015389
    91  C   -0.009034
    92  C   -0.148473
    93  H    0.036012
    94  N   -0.482364
    95  C    0.198591
    96  C   -0.183652
    97  C   -0.027656
    98  C    0.196256
    99  C    0.102217
   100  C    0.017350
   101  O   -0.256173
   102  C   -0.045245
   103  N   -0.411453
   104  C    0.039555
   105  C   -0.045537
   106  C   -0.088107
   107  C    0.133278
   108  C   -0.000843
   109  C   -0.040599
   110  C   -0.057939
   111  N   -0.418619
   112  C    0.118083
   113  C   -0.180486
   114  C   -0.042579
   115  C    0.137534
   116  C    0.103384
   117  C    0.092322
   118  O   -0.218902
   119  C   -0.114482
   120  C    0.257196
   121  O   -0.189389
   122  O   -0.389246
   123  C    0.148775
   124  H   -0.014239
   125  H    0.025577
   126  H   -0.022609
   127  H    0.030609
   128  H    0.033988
   129  H    0.050413
   130  H    0.027239
   131  H    0.045190
   132  H    0.042991
   133  H    0.041476
   134  H    0.074692
   135  H    0.059685
   136  H    0.036781
   137  H    0.055604
   138  H    0.055758
   139  H    0.054131
   140  H    0.081517
   141  H    0.072360
   142  H    0.052300
   143  H    0.038771
   144  H    0.033971
   145  H    0.045644
   146  H    0.057738
   147  H    0.033931
   148  H    0.029453
   149  H    0.026274
   150  H    0.038637
   151  H    0.034648
   152  H    0.041256
   153  H    0.053037
   154  H    0.066727
   155  H    0.052078
   156  H    0.050226
   157  H    0.035977
   158  H    0.060343
 Sum of Mulliken charges =  -0.00000

 Dipole moment (field-independent basis, Debye):
    X=             -2.1944    Y=             -0.1302    Z=              2.0512  Tot=              3.0066
 Quadrupole moment (field-independent basis, Debye-Ang):
   XX=           -590.8938   YY=           -470.9663   ZZ=           -495.7321
   XY=             17.0579   XZ=            -25.6432   YZ=             29.5074

 Normal termination of Gaussian 16 at Mon Sep 20 11:31:38 2021.
