 Gaussian 16, Revision A.03,
 Gaussian 16:  ES64L-G16RevA.03 25-Dec-2016

 --------------------------------
 #p wB97XD/Def2SVP td=(nstates=5)
 --------------------------------

 --------------------------------
 TDDFT excited states in gaussian
 --------------------------------
 Symbolic Z-matrix:
 Charge =  0 Multiplicity = 1

                         Standard orientation:
 ---------------------------------------------------------------------
 Center     Atomic      Atomic             Coordinates (Angstroms)
 Number     Number       Type             X           Y           Z
 ---------------------------------------------------------------------
      1         12           0      -23.603995    0.446182    0.451878
      2          6           0      -22.621625   -2.446967   -1.145182
      3          6           0      -21.740752    2.210830   -2.046569
      4          6           0      -24.170922    3.237519    2.045678
      5          6           0      -25.079126   -1.394577    2.981858
      6          7           0      -22.131556   -0.132505   -1.297842
      7          6           0      -22.115270   -1.338392   -1.840494
      8          6           0      -21.587268   -1.284537   -3.301968
      9          6           0      -20.834483    0.091211   -3.262209
     10          6           0      -21.584792    0.823838   -2.138416
     11          6           0      -19.304115   -0.072435   -2.951678
     12          6           0      -22.837467   -1.297185   -4.209521
     13          6           0      -22.586495   -1.398237   -5.720227
     14          1           0      -21.185880   -1.227841   -6.273442
     15          7           0      -23.180186    2.447469    0.081530
     16          6           0      -22.425425    2.954775   -1.031537
     17          6           0      -22.565046    4.403723   -0.981445
     18          6           0      -23.373343    4.703888    0.159303
     19          6           0      -23.592607    3.439532    0.860271
     20          6           0      -21.968913    5.400808   -2.043814
     21          6           0      -23.942010    6.102115    0.570557
     22          8           0      -24.504184    6.193677    1.627344
     23          6           0      -23.751294    7.290803   -0.314543
     24          7           0      -24.591190    0.869892    2.235904
     25          6           0      -24.714130    2.128314    2.714979
     26          6           0      -25.393643    2.189741    4.082451
     27          6           0      -25.800942    0.714271    4.301854
     28          6           0      -25.100651    0.001404    3.074481
     29          6           0      -24.516458    2.766886    5.253521
     30          6           0      -27.264452    0.423348    4.515999
     31          6           0      -28.349302    1.036921    3.598285
     32          7           0      -23.838529   -1.502773    0.919453
     33          6           0      -24.462345   -2.125769    1.962248
     34          6           0      -24.441957   -3.546319    1.683907
     35          6           0      -23.752272   -3.768778    0.442629
     36          6           0      -23.395296   -2.454164    0.035367
     37          6           0      -25.044013   -4.583805    2.579330
     38          6           0      -23.244406   -4.727603   -0.480100
     39          8           0      -23.265641   -5.977459   -0.507255
     40          6           0      -22.243297   -3.848375   -1.410060
     41          6           0      -22.367136   -4.407567   -2.828355
     42          8           0      -23.367465   -4.546128   -3.421996
     43          8           0      -21.116344   -4.754327   -3.253677
     44          6           0      -20.914825   -4.966327   -4.672296
     45          1           0      -21.116965    2.736855   -2.771643
     46          1           0      -24.343939    4.133813    2.645020
     47          1           0      -25.510622   -2.033012    3.754622
     48          1           0      -20.858014   -2.068238   -3.506632
     49          1           0      -21.044682    0.521327   -4.241749
     50          1           0      -18.732663    0.070360   -3.867995
     51          1           0      -19.154185   -1.068560   -2.534872
     52          1           0      -18.916455    0.680616   -2.265520
     53          1           0      -23.343055   -0.341229   -4.075516
     54          1           0      -23.583206   -2.015342   -3.869983
     55          1           0      -23.348891   -0.896098   -6.316223
     56          1           0      -22.883827   -2.416814   -5.970322
     57          1           0      -21.400783    6.208673   -1.581683
     58          1           0      -22.821701    5.749991   -2.625763
     59          1           0      -21.358185    4.847581   -2.758312
     60          1           0      -24.623047    7.895635   -0.063903
     61          1           0      -23.870019    7.052164   -1.370834
     62          1           0      -22.777271    7.773673   -0.392907
     63          1           0      -26.262765    2.830274    3.934314
     64          1           0      -25.271818    0.245752    5.131654
     65          1           0      -24.808691    2.204219    6.139748
     66          1           0      -24.854603    3.802033    5.305122
     67          1           0      -23.461644    2.759740    4.979080
     68          1           0      -27.435236    0.992259    5.429316
     69          1           0      -27.559432   -0.618741    4.643525
     70          1           0      -29.087802    1.700995    4.045464
     71          1           0      -29.018550    0.270482    3.207485
     72          1           0      -27.865517    1.608365    2.805998
     73          1           0      -24.804517   -5.541291    2.117647
     74          1           0      -26.131157   -4.494318    2.575445
     75          1           0      -24.780353   -4.500402    3.633257
     76          1           0      -21.260642   -3.974840   -0.955171
     77          1           0      -20.481110   -5.949452   -4.488824
     78          1           0      -20.325168   -4.186370   -5.154506
     79          1           0      -21.834062   -5.097735   -5.243710
     80         12           0       23.594117    0.576374   -0.435754
     81          6           0       22.655421   -2.685689    0.202391
     82          6           0       20.265634    1.450231   -0.346866
     83          6           0       24.539558    3.878532   -0.468866
     84          6           0       26.906947   -0.358966   -0.397135
     85          7           0       21.716635   -0.443865    0.083666
     86          6           0       21.596507   -1.810964    0.237598
     87          6           0       20.143352   -2.236153    0.430899
     88          6           0       19.383209   -0.958962   -0.087841
     89          6           0       20.500542    0.073932   -0.070943
     90          6           0       18.583606   -1.089401   -1.462559
     91          6           0       19.744431   -2.715959    1.862888
     92          6           0       18.905377   -3.974823    1.924651
     93          1           0       17.482097   -3.693415    2.380600
     94          7           0       22.532322    2.362119   -0.394392
     95          6           0       21.202978    2.512050   -0.387031
     96          6           0       20.841718    3.916026   -0.479569
     97          6           0       21.980465    4.703395   -0.515139
     98          6           0       23.101903    3.674125   -0.408745
     99          6           0       19.321192    4.420096   -0.435007
    100          6           0       22.050258    6.256982   -0.699494
    101          8           0       20.969712    6.910598   -0.742133
    102          6           0       23.339841    6.980963   -0.773306
    103          7           0       25.523490    1.678369   -0.187319
    104          6           0       25.650316    2.966778   -0.407083
    105          6           0       27.080650    3.377211   -0.688375
    106          6           0       27.945313    2.074489   -0.594299
    107          6           0       26.746805    1.018209   -0.456755
    108          6           0       27.393773    4.373972   -1.849679
    109          6           0       28.998845    1.904471    0.538410
    110          6           0       30.010789    0.815800    0.246598
    111          7           0       24.612089   -1.197196   -0.138588
    112          6           0       25.998375   -1.458868   -0.235533
    113          6           0       26.186923   -2.879782   -0.126407
    114          6           0       24.894854   -3.441745    0.016673
    115          6           0       24.023564   -2.356269    0.040619
    116          6           0       27.475489   -3.645610   -0.387045
    117          6           0       24.243096   -4.650554    0.131157
    118          8           0       24.578181   -5.795332    0.269969
    119          6           0       22.712042   -4.215546    0.412986
    120          6           0       22.554800   -4.386493    1.923153
    121          8           0       22.928456   -3.597357    2.769454
    122          8           0       21.931631   -5.607727    2.123190
    123          6           0       21.779417   -6.025498    3.513132
    124          1           0       19.234275    1.759173   -0.528478
    125          1           0       24.768553    4.945685   -0.492938
    126          1           0       27.893163   -0.815967   -0.501802
    127          1           0       19.938628   -3.029846   -0.287015
    128          1           0       18.760764   -0.612570    0.737992
    129          1           0       18.548972   -0.051411   -1.793254
    130          1           0       17.529828   -1.343576   -1.345663
    131          1           0       19.006159   -1.753082   -2.216807
    132          1           0       19.180830   -1.870434    2.257800
    133          1           0       20.534886   -2.744930    2.612565
    134          1           0       19.403177   -4.661365    2.609834
    135          1           0       18.818286   -4.466705    0.955653
    136          1           0       18.575417    3.636116   -0.296897
    137          1           0       19.071760    4.963772   -1.346828
    138          1           0       19.100886    5.037679    0.434612
    139          1           0       23.915970    6.611938   -1.621245
    140          1           0       23.845931    6.999949    0.191985
    141          1           0       23.062479    7.970517   -1.134434
    142          1           0       27.581121    3.917568    0.115408
    143          1           0       28.319629    1.750919   -1.565818
    144          1           0       26.432732    4.796176   -2.146578
    145          1           0       27.980878    3.938244   -2.658923
    146          1           0       27.995813    5.232683   -1.552239
    147          1           0       28.430628    1.745107    1.454735
    148          1           0       29.444906    2.893962    0.638080
    149          1           0       30.949600    1.107059    0.718325
    150          1           0       30.220869    0.644503   -0.809825
    151          1           0       29.715376   -0.092330    0.772143
    152          1           0       27.342875   -4.725969   -0.445536
    153          1           0       28.181622   -3.377494    0.397755
    154          1           0       27.936212   -3.336626   -1.325390
    155          1           0       22.019199   -4.760621   -0.228816
    156          1           0       22.763043   -6.200125    3.949434
    157          1           0       21.133498   -6.897912    3.605942
    158          1           0       21.347165   -5.209225    4.091200
 ---------------------------------------------------------------------

 SCF Done:  E(RwB97XD) =  -4070.60661163     A.U. after   20 cycles

 Excitation energies and oscillator strengths:

 Excited State   1:      Singlet-A      1.6762 eV  739.68 nm  f=0.3709  <S**2>=0.000
     310 -> 315        0.20179
     312 -> 313        0.67875
     310 <- 315        0.12039
 This state for optimization and/or second-order correction.
 Total Energy, E(TD-HF/TD-DFT) =  -4070.54501264
 Copying the excited state density for this state as the 1-particle RhoCI density.

 Excited State   2:      Singlet-A      1.8710 eV  662.65 nm  f=0.3753  <S**2>=0.000
     309 -> 316        0.14188
     311 -> 314        0.68597

 Excited State   3:      Singlet-A      2.1629 eV  573.24 nm  f=0.0892  <S**2>=0.000
     310 -> 313        0.63316
     312 -> 315       -0.30176

 Excited State   4:      Singlet-A      2.2254 eV  557.13 nm  f=0.1259  <S**2>=0.000
     309 -> 314        0.64386
     311 -> 316       -0.24646
     311 -> 317        0.10814

 Excited State   5:      Singlet-A      3.3462 eV  370.52 nm  f=0.0459  <S**2>=0.000
     303 -> 313       -0.24620
     303 -> 318        0.17836
     304 -> 313        0.41181
     304 -> 318       -0.24535
     304 -> 320        0.11278
     305 -> 313       -0.15509
     307 -> 313       -0.18591
     312 -> 315        0.18196

 The electronic state is 1-A.
 Alpha  occ. eigenvalues --  -46.95759 -46.94614 -19.29694 -19.29640 -19.25357
 Alpha  occ. eigenvalues --  -19.25200 -19.24738 -19.24137 -19.24072 -19.22659
 Alpha  occ. eigenvalues --  -14.46926 -14.46644 -14.46333 -14.46295 -14.45229
 Alpha  occ. eigenvalues --  -14.43905 -14.43901 -14.43025 -10.42897 -10.42783
 Alpha  occ. eigenvalues --  -10.41114 -10.39203 -10.39149 -10.37356 -10.37300
 Alpha  occ. eigenvalues --  -10.36536 -10.35841 -10.35262 -10.35215 -10.34854
 Alpha  occ. eigenvalues --  -10.34750 -10.34636 -10.34588 -10.34448 -10.34361
 Alpha  occ. eigenvalues --  -10.34314 -10.34095 -10.33781 -10.33685 -10.33400
 Alpha  occ. eigenvalues --  -10.33381 -10.32963 -10.32802 -10.32751 -10.32581
 Alpha  occ. eigenvalues --  -10.32503 -10.32425 -10.32312 -10.32249 -10.32221
 Alpha  occ. eigenvalues --  -10.32160 -10.32129 -10.31852 -10.31808 -10.31775
 Alpha  occ. eigenvalues --  -10.31734 -10.31708 -10.31626 -10.31577 -10.31549
 Alpha  occ. eigenvalues --  -10.31373 -10.31189 -10.31117 -10.31070 -10.31048
 Alpha  occ. eigenvalues --  -10.30955 -10.30835 -10.30799 -10.30791 -10.30778
 Alpha  occ. eigenvalues --  -10.30710 -10.30589 -10.30525 -10.30501 -10.30392
 Alpha  occ. eigenvalues --  -10.30134 -10.30118 -10.30058 -10.29890 -10.29856
 Alpha  occ. eigenvalues --  -10.29711 -10.29640 -10.29092 -10.29076 -10.28933
 Alpha  occ. eigenvalues --  -10.27003  -3.21655  -3.20678  -1.95224  -1.94779
 Alpha  occ. eigenvalues --   -1.94625  -1.94271  -1.93822  -1.93639  -1.19794
 Alpha  occ. eigenvalues --   -1.17559  -1.13704  -1.12026  -1.11942  -1.11454
 Alpha  occ. eigenvalues --   -1.10297  -1.10038  -1.07228  -1.06618  -1.06092
 Alpha  occ. eigenvalues --   -1.05883  -1.05292  -1.05116  -1.04552  -1.04096
 Alpha  occ. eigenvalues --   -0.95047  -0.93477  -0.91216  -0.91042  -0.90599
 Alpha  occ. eigenvalues --   -0.90397  -0.90362  -0.89962  -0.89252  -0.89014
 Alpha  occ. eigenvalues --   -0.88712  -0.88404  -0.87726  -0.87600  -0.86417
 Alpha  occ. eigenvalues --   -0.85991  -0.85616  -0.85556  -0.85138  -0.84324
 Alpha  occ. eigenvalues --   -0.84001  -0.83659  -0.83382  -0.82628  -0.82252
 Alpha  occ. eigenvalues --   -0.82161  -0.79945  -0.79602  -0.79270  -0.79111
 Alpha  occ. eigenvalues --   -0.78740  -0.78652  -0.77830  -0.77444  -0.77272
 Alpha  occ. eigenvalues --   -0.77099  -0.74685  -0.74365  -0.73988  -0.73688
 Alpha  occ. eigenvalues --   -0.72179  -0.71673  -0.71110  -0.70870  -0.70089
 Alpha  occ. eigenvalues --   -0.69857  -0.69380  -0.68189  -0.67558  -0.67405
 Alpha  occ. eigenvalues --   -0.67162  -0.66867  -0.66710  -0.66287  -0.66131
 Alpha  occ. eigenvalues --   -0.66039  -0.64356  -0.63677  -0.62484  -0.62044
 Alpha  occ. eigenvalues --   -0.61633  -0.61435  -0.61150  -0.61046  -0.60828
 Alpha  occ. eigenvalues --   -0.60479  -0.60161  -0.59884  -0.59770  -0.59333
 Alpha  occ. eigenvalues --   -0.58474  -0.58128  -0.58108  -0.57640  -0.57416
 Alpha  occ. eigenvalues --   -0.57287  -0.56976  -0.56200  -0.56096  -0.55927
 Alpha  occ. eigenvalues --   -0.55673  -0.55631  -0.55470  -0.55280  -0.55121
 Alpha  occ. eigenvalues --   -0.54901  -0.54708  -0.54319  -0.54208  -0.54007
 Alpha  occ. eigenvalues --   -0.53956  -0.53717  -0.53506  -0.52982  -0.52719
 Alpha  occ. eigenvalues --   -0.52676  -0.52651  -0.52506  -0.52141  -0.52069
 Alpha  occ. eigenvalues --   -0.51971  -0.51910  -0.51751  -0.51625  -0.51498
 Alpha  occ. eigenvalues --   -0.51415  -0.51256  -0.51216  -0.50991  -0.50757
 Alpha  occ. eigenvalues --   -0.50620  -0.50407  -0.50183  -0.50135  -0.50082
 Alpha  occ. eigenvalues --   -0.49903  -0.49566  -0.49530  -0.49289  -0.49177
 Alpha  occ. eigenvalues --   -0.48826  -0.48552  -0.48512  -0.48471  -0.48127
 Alpha  occ. eigenvalues --   -0.48045  -0.47927  -0.47924  -0.47760  -0.47541
 Alpha  occ. eigenvalues --   -0.47172  -0.47136  -0.47118  -0.46970  -0.46947
 Alpha  occ. eigenvalues --   -0.46806  -0.46622  -0.46608  -0.46268  -0.45857
 Alpha  occ. eigenvalues --   -0.45800  -0.45513  -0.45319  -0.45296  -0.45208
 Alpha  occ. eigenvalues --   -0.45093  -0.44915  -0.44857  -0.44781  -0.44634
 Alpha  occ. eigenvalues --   -0.44464  -0.44454  -0.44272  -0.44095  -0.44058
 Alpha  occ. eigenvalues --   -0.43984  -0.43957  -0.43794  -0.43578  -0.43509
 Alpha  occ. eigenvalues --   -0.43341  -0.42857  -0.42656  -0.42342  -0.42121
 Alpha  occ. eigenvalues --   -0.42087  -0.41772  -0.41500  -0.41328  -0.41236
 Alpha  occ. eigenvalues --   -0.40891  -0.40301  -0.40011  -0.39862  -0.39568
 Alpha  occ. eigenvalues --   -0.39281  -0.39173  -0.38605  -0.38387  -0.38323
 Alpha  occ. eigenvalues --   -0.37762  -0.37283  -0.37184  -0.36393  -0.36149
 Alpha  occ. eigenvalues --   -0.35950  -0.35577  -0.35343  -0.34487  -0.34137
 Alpha  occ. eigenvalues --   -0.33674  -0.33074  -0.33026  -0.32510  -0.32027
 Alpha  occ. eigenvalues --   -0.31608  -0.31514  -0.31165  -0.26059  -0.25736
 Alpha  occ. eigenvalues --   -0.23358  -0.22909
 Alpha virt. eigenvalues --   -0.06795  -0.06745   0.00020   0.00143   0.02173
 Alpha virt. eigenvalues --    0.02232   0.04088   0.04710   0.04924   0.06098
 Alpha virt. eigenvalues --    0.07613   0.07993   0.08178   0.08215   0.08499

 Mulliken charges:
               1
     1  Mg   0.965648
     2  C   -0.025811
     3  C   -0.077129
     4  C   -0.088032
     5  C   -0.117633
     6  N   -0.288265
     7  C   -0.035908
     8  C   -0.084195
     9  C   -0.089529
    10  C    0.019571
    11  C    0.040475
    12  C    0.000360
    13  C   -0.089380
    14  H    0.044109
    15  N   -0.478720
    16  C    0.175948
    17  C   -0.189305
    18  C   -0.081146
    19  C    0.188777
    20  C    0.062306
    21  C    0.064861
    22  O   -0.213721
    23  C   -0.007204
    24  N   -0.342069
    25  C    0.014468
    26  C   -0.099303
    27  C   -0.054337
    28  C    0.091237
    29  C    0.035513
    30  C   -0.009997
    31  C   -0.072533
    32  N   -0.486485
    33  C    0.144414
    34  C   -0.184393
    35  C   -0.031028
    36  C    0.180588
    37  C    0.067908
    38  C    0.153352
    39  O   -0.233740
    40  C   -0.147392
    41  C    0.242721
    42  O   -0.185792
    43  O   -0.368619
    44  C    0.110479
    45  H    0.003764
    46  H    0.009642
    47  H   -0.005484
    48  H    0.019571
    49  H    0.022931
    50  H    0.039826
    51  H    0.043875
    52  H    0.040351
    53  H    0.025769
    54  H    0.065917
    55  H    0.042735
    56  H    0.038163
    57  H    0.059063
    58  H    0.057809
    59  H    0.030212
    60  H    0.058155
    61  H    0.020562
    62  H    0.069233
    63  H    0.047968
    64  H    0.031240
    65  H    0.046320
    66  H    0.047904
    67  H    0.054225
    68  H    0.029221
    69  H    0.040704
    70  H    0.032780
    71  H    0.032890
    72  H    0.039558
    73  H    0.062278
    74  H    0.042950
    75  H    0.047408
    76  H    0.085721
    77  H    0.070114
    78  H    0.062605
    79  H    0.062952
    80  Mg   0.966497
    81  C   -0.041494
    82  C   -0.128812
    83  C   -0.109191
    84  C   -0.042211
    85  N   -0.333094
    86  C   -0.011527
    87  C   -0.074695
    88  C   -0.076009
    89  C    0.063572
    90  C    0.034911
    91  C    0.028517
    92  C   -0.107303
    93  H    0.024744
    94  N   -0.465956
    95  C    0.186084
    96  C   -0.152969
    97  C   -0.065500
    98  C    0.142334
    99  C    0.072136
   100  C    0.052387
   101  O   -0.254000
   102  C    0.003613
   103  N   -0.330968
   104  C    0.128711
   105  C   -0.083455
   106  C   -0.090984
   107  C    0.027343
   108  C    0.020523
   109  C    0.009827
   110  C   -0.034463
   111  N   -0.438518
   112  C    0.046349
   113  C   -0.148284
   114  C    0.002784
   115  C    0.157711
   116  C    0.059523
   117  C    0.057936
   118  O   -0.195127
   119  C   -0.117594
   120  C    0.296797
   121  O   -0.238831
   122  O   -0.364122
   123  C    0.141250
   124  H   -0.003561
   125  H   -0.019468
   126  H   -0.016840
   127  H    0.023291
   128  H    0.032766
   129  H    0.024998
   130  H    0.044673
   131  H    0.053883
   132  H    0.020234
   133  H    0.052714
   134  H    0.048361
   135  H    0.048691
   136  H    0.019580
   137  H    0.064677
   138  H    0.059497
   139  H    0.061886
   140  H    0.091289
   141  H    0.055053
   142  H    0.038392
   143  H    0.031578
   144  H    0.030244
   145  H    0.041600
   146  H    0.029151
   147  H    0.042112
   148  H    0.025813
   149  H    0.032461
   150  H    0.043057
   151  H    0.051665
   152  H    0.058580
   153  H    0.038084
   154  H    0.040765
   155  H    0.054831
   156  H    0.058166
   157  H    0.060963
   158  H    0.042373
 Sum of Mulliken charges =  -0.00000

 Dipole moment (field-independent basis, Debye):
    X=              1.8129    Y=              8.0584    Z=             -3.1052  Tot=              8.8242
 Quadrupole moment (field-independent basis, Debye-Ang):
   XX=           -484.5110   YY=           -565.6218   ZZ=           -478.4199
   XY=             30.7580   XZ=            -45.1649   YZ=            -20.8507

 Normal termination of Gaussian 16 at Sun Sep 19 00:01:29 2021.
