 Gaussian 16, Revision A.03,
 Gaussian 16:  ES64L-G16RevA.03 25-Dec-2016

 --------------------------------
 #p wB97XD/Def2SVP td=(nstates=5)
 --------------------------------

 --------------------------------
 TDDFT excited states in gaussian
 --------------------------------
 Symbolic Z-matrix:
 Charge =  0 Multiplicity = 1

                         Standard orientation:
 ---------------------------------------------------------------------
 Center     Atomic      Atomic             Coordinates (Angstroms)
 Number     Number       Type             X           Y           Z
 ---------------------------------------------------------------------
      1         12           0       26.333214   -0.883493    0.055082
      2          6           0       26.965651    2.428158   -0.977953
      3          6           0       25.843324    0.291819    3.247269
      4          6           0       25.795623   -4.017994    1.135093
      5          6           0       27.399806   -2.082656   -3.054191
      6          7           0       26.285957    1.135910    0.892376
      7          6           0       26.540949    2.341666    0.392456
      8          6           0       26.404393    3.533498    1.362744
      9          6           0       26.334945    2.673084    2.715917
     10          6           0       26.187929    1.244326    2.252571
     11          6           0       27.536385    2.852199    3.611905
     12          6           0       25.075528    4.442941    1.124842
     13          6           0       25.245509    5.889962    1.596740
     14          1           0       25.096327    6.945767    0.471178
     15          7           0       25.711104   -1.769868    1.920892
     16          6           0       25.617610   -1.067666    3.147987
     17          6           0       24.982838   -1.961335    4.090404
     18          6           0       24.932379   -3.220669    3.499535
     19          6           0       25.471713   -3.063759    2.112346
     20          6           0       24.681364   -1.595426    5.531468
     21          6           0       24.398887   -4.543264    4.000425
     22          8           0       24.388140   -5.493129    3.273125
     23          6           0       23.806237   -4.695766    5.365727
     24          7           0       26.743681   -2.787256   -0.740082
     25          6           0       26.361823   -3.946705   -0.130505
     26          6           0       26.650491   -5.088512   -1.144262
     27          6           0       26.587994   -4.454793   -2.522456
     28          6           0       26.957071   -3.002704   -2.137760
     29          6           0       28.056734   -5.635357   -0.902843
     30          6           0       25.281982   -4.596087   -3.212657
     31          6           0       24.013857   -4.298636   -2.451428
     32          7           0       27.014332   -0.055737   -1.703790
     33          6           0       27.424467   -0.638165   -2.888293
     34          6           0       27.801592    0.424524   -3.833058
     35          6           0       27.607454    1.621988   -3.122798
     36          6           0       27.144353    1.286446   -1.879847
     37          6           0       28.318379    0.238123   -5.193988
     38          6           0       27.563005    3.056338   -3.220578
     39          8           0       27.795012    3.827694   -4.197385
     40          6           0       27.100322    3.615237   -1.792781
     41          6           0       28.229153    4.476028   -1.287705
     42          8           0       29.371062    4.123090   -1.301102
     43          8           0       27.845095    5.726065   -0.731078
     44          6           0       28.908076    6.425191    0.053215
     45          1           0       25.735073    0.638127    4.276660
     46          1           0       25.729934   -5.054591    1.473224
     47          1           0       27.575279   -2.371947   -4.092702
     48          1           0       27.252511    4.209235    1.245556
     49          1           0       25.437745    3.043931    3.213039
     50          1           0       27.246126    3.587135    4.362545
     51          1           0       28.444939    3.092969    3.059538
     52          1           0       27.586788    1.916204    4.168112
     53          1           0       24.233857    4.018025    1.672655
     54          1           0       24.775436    4.416978    0.077093
     55          1           0       26.236253    5.853268    2.050178
     56          1           0       24.581915    6.131990    2.426680
     57          1           0       24.687465   -0.506112    5.536527
     58          1           0       25.573426   -1.935846    6.056470
     59          1           0       23.711814   -1.968385    5.862208
     60          1           0       22.874880   -4.149415    5.215827
     61          1           0       24.372425   -4.215442    6.163279
     62          1           0       23.642768   -5.749844    5.592608
     63          1           0       25.995473   -5.955625   -1.066999
     64          1           0       27.285997   -4.860070   -3.254264
     65          1           0       28.873120   -5.339464   -1.561758
     66          1           0       27.989019   -6.722952   -0.926198
     67          1           0       28.347006   -5.374193    0.115456
     68          1           0       25.169699   -5.577665   -3.673698
     69          1           0       25.343703   -3.881379   -4.033106
     70          1           0       23.607648   -3.392298   -2.901397
     71          1           0       23.980325   -4.127234   -1.375102
     72          1           0       23.297042   -5.090266   -2.669024
     73          1           0       29.325160   -0.172874   -5.120099
     74          1           0       28.261185    1.235409   -5.630019
     75          1           0       27.734358   -0.499794   -5.745629
     76          1           0       26.158163    4.125632   -1.993469
     77          1           0       29.619278    6.905579   -0.618665
     78          1           0       29.452832    5.761119    0.725843
     79          1           0       28.577439    7.268350    0.659057
     80         12           0      -27.056846   -0.360736   -0.368558
     81          6           0      -25.138948    2.560404   -0.472236
     82          6           0      -28.347626    0.725545    2.641527
     83          6           0      -28.395784   -3.459843    0.135271
     84          6           0      -25.197885   -1.585866   -3.021161
     85          7           0      -26.811069    1.457672    0.823001
     86          6           0      -26.157936    2.573896    0.475469
     87          6           0      -26.481333    3.801789    1.339229
     88          6           0      -27.378419    3.160690    2.466453
     89          6           0      -27.638699    1.648997    1.916758
     90          6           0      -26.817103    3.165621    3.904714
     91          6           0      -27.147501    4.953547    0.586235
     92          6           0      -26.889366    6.329300    1.227132
     93          1           0      -26.052745    6.414472    2.511542
     94          7           0      -28.296801   -1.228978    1.096629
     95          6           0      -28.787463   -0.586263    2.256602
     96          6           0      -29.656980   -1.511092    2.955641
     97          6           0      -29.634121   -2.780659    2.266441
     98          6           0      -28.790063   -2.529548    1.099329
     99          6           0      -30.470234   -1.065544    4.139692
    100          6           0      -30.454227   -4.120841    2.537898
    101          8           0      -30.448251   -5.073564    1.796699
    102          6           0      -31.260322   -4.165609    3.817844
    103          7           0      -26.760815   -2.256136   -1.239242
    104          6           0      -27.447685   -3.385171   -0.900746
    105          6           0      -27.093364   -4.601208   -1.833701
    106          6           0      -26.148095   -3.940918   -2.836025
    107          6           0      -26.029373   -2.516692   -2.327008
    108          6           0      -26.588913   -5.978453   -1.241306
    109          6           0      -26.719658   -4.005697   -4.271794
    110          6           0      -27.760381   -2.951223   -4.709270
    111          7           0      -25.569927    0.337361   -1.668392
    112          6           0      -24.904183   -0.265639   -2.703932
    113          6           0      -23.958552    0.620278   -3.295762
    114          6           0      -23.998448    1.800047   -2.424697
    115          6           0      -24.934226    1.550490   -1.497916
    116          6           0      -23.078903    0.471448   -4.457189
    117          6           0      -23.365416    3.072280   -2.105828
    118          8           0      -22.512161    3.713022   -2.728899
    119          6           0      -24.062647    3.644816   -0.836703
    120          6           0      -23.104543    3.889322    0.236553
    121          8           0      -22.616622    3.041254    0.976118
    122          8           0      -22.653719    5.182651    0.150680
    123          6           0      -21.400930    5.567243    0.829420
    124          1           0      -28.682815    1.138745    3.595354
    125          1           0      -28.958463   -4.394551    0.181188
    126          1           0      -24.678677   -1.932554   -3.917045
    127          1           0      -25.602716    4.155783    1.878034
    128          1           0      -28.398826    3.542126    2.476501
    129          1           0      -27.648688    3.629470    4.434900
    130          1           0      -25.921207    3.782924    3.966678
    131          1           0      -26.584135    2.150869    4.227596
    132          1           0      -28.221168    4.805051    0.477467
    133          1           0      -26.772103    5.000289   -0.436365
    134          1           0      -27.913002    6.661358    1.401592
    135          1           0      -26.510210    7.051183    0.502376
    136          1           0      -30.091045   -0.076222    4.395992
    137          1           0      -30.332700   -1.777994    4.953358
    138          1           0      -31.540395   -1.023856    3.931431
    139          1           0      -30.708915   -4.307821    4.747836
    140          1           0      -32.028550   -4.929472    3.697730
    141          1           0      -31.740839   -3.187328    3.810923
    142          1           0      -28.071544   -4.816075   -2.263328
    143          1           0      -25.205145   -4.482392   -2.769305
    144          1           0      -25.699685   -6.382980   -1.723324
    145          1           0      -27.367629   -6.721913   -1.408524
    146          1           0      -26.472035   -5.850991   -0.164700
    147          1           0      -27.134170   -5.008343   -4.369347
    148          1           0      -25.842844   -3.958405   -4.918266
    149          1           0      -28.496307   -3.517500   -5.279529
    150          1           0      -27.353688   -2.195710   -5.381113
    151          1           0      -28.188855   -2.375291   -3.889775
    152          1           0      -23.099241    1.411212   -5.007927
    153          1           0      -23.325457   -0.346996   -5.133617
    154          1           0      -22.039267    0.429182   -4.131924
    155          1           0      -24.540269    4.558589   -1.189937
    156          1           0      -20.975809    4.745159    1.406273
    157          1           0      -21.637240    6.369412    1.528982
    158          1           0      -20.787087    5.854701   -0.023473
 ---------------------------------------------------------------------

 SCF Done:  E(RwB97XD) =  -4070.61919382     A.U. after   20 cycles

 Excitation energies and oscillator strengths:

 Excited State   1:      Singlet-A      1.6527 eV  750.17 nm  f=0.3536  <S**2>=0.000
     309 -> 315        0.17775
     311 -> 313        0.68527
     309 <- 315        0.11376
 This state for optimization and/or second-order correction.
 Total Energy, E(TD-HF/TD-DFT) =  -4070.55845641
 Copying the excited state density for this state as the 1-particle RhoCI density.

 Excited State   2:      Singlet-A      1.6570 eV  748.25 nm  f=0.4264  <S**2>=0.000
     310 -> 316       -0.18728
     312 -> 314        0.68162
     310 <- 316       -0.11631

 Excited State   3:      Singlet-A      2.0777 eV  596.74 nm  f=0.1512  <S**2>=0.000
     310 -> 314        0.65642
     312 -> 316        0.23989

 Excited State   4:      Singlet-A      2.1346 eV  580.83 nm  f=0.1156  <S**2>=0.000
     309 -> 313        0.64481
     311 -> 315       -0.27141

 Excited State   5:      Singlet-A      3.1037 eV  399.47 nm  f=0.0053  <S**2>=0.000
     306 -> 314       -0.12869
     308 -> 314        0.67535

 The electronic state is 1-A.
 Alpha  occ. eigenvalues --  -46.94942 -46.94603 -19.29701 -19.29126 -19.24970
 Alpha  occ. eigenvalues --  -19.24923 -19.24133 -19.23935 -19.23775 -19.23261
 Alpha  occ. eigenvalues --  -14.48019 -14.46890 -14.46476 -14.45915 -14.44328
 Alpha  occ. eigenvalues --  -14.44067 -14.43612 -14.42786 -10.43224 -10.42519
 Alpha  occ. eigenvalues --  -10.40173 -10.39169 -10.39119 -10.38740 -10.35932
 Alpha  occ. eigenvalues --  -10.35437 -10.35352 -10.35085 -10.35049 -10.34931
 Alpha  occ. eigenvalues --  -10.34921 -10.34900 -10.34740 -10.34723 -10.34669
 Alpha  occ. eigenvalues --  -10.34503 -10.34390 -10.33908 -10.33647 -10.33330
 Alpha  occ. eigenvalues --  -10.32941 -10.32854 -10.32837 -10.32765 -10.32725
 Alpha  occ. eigenvalues --  -10.32505 -10.32308 -10.32305 -10.32304 -10.32298
 Alpha  occ. eigenvalues --  -10.32278 -10.32235 -10.32173 -10.32160 -10.31819
 Alpha  occ. eigenvalues --  -10.31719 -10.31706 -10.31702 -10.31690 -10.31468
 Alpha  occ. eigenvalues --  -10.31167 -10.31161 -10.31135 -10.31127 -10.30942
 Alpha  occ. eigenvalues --  -10.30934 -10.30889 -10.30690 -10.30652 -10.30603
 Alpha  occ. eigenvalues --  -10.30485 -10.30288 -10.30287 -10.30200 -10.29982
 Alpha  occ. eigenvalues --  -10.29845 -10.29707 -10.29672 -10.29651 -10.29303
 Alpha  occ. eigenvalues --  -10.29279 -10.28946 -10.28906 -10.28808 -10.28376
 Alpha  occ. eigenvalues --  -10.28257  -3.20875  -3.20564  -1.94488  -1.94154
 Alpha  occ. eigenvalues --   -1.93975  -1.93863  -1.93683  -1.93542  -1.17719
 Alpha  occ. eigenvalues --   -1.17265  -1.14367  -1.13812  -1.11113  -1.09555
 Alpha  occ. eigenvalues --   -1.08844  -1.08832  -1.07306  -1.06455  -1.05620
 Alpha  occ. eigenvalues --   -1.05336  -1.04907  -1.04486  -1.03747  -1.03068
 Alpha  occ. eigenvalues --   -0.94904  -0.94063  -0.91980  -0.91307  -0.91042
 Alpha  occ. eigenvalues --   -0.90757  -0.90655  -0.90083  -0.89797  -0.89028
 Alpha  occ. eigenvalues --   -0.88836  -0.88401  -0.88095  -0.88038  -0.86600
 Alpha  occ. eigenvalues --   -0.86133  -0.85409  -0.85336  -0.84573  -0.84414
 Alpha  occ. eigenvalues --   -0.84231  -0.83882  -0.83032  -0.82960  -0.82142
 Alpha  occ. eigenvalues --   -0.81855  -0.80916  -0.80102  -0.79243  -0.79053
 Alpha  occ. eigenvalues --   -0.78990  -0.78759  -0.78198  -0.77834  -0.76971
 Alpha  occ. eigenvalues --   -0.76927  -0.74430  -0.74417  -0.73296  -0.73079
 Alpha  occ. eigenvalues --   -0.71739  -0.71594  -0.70834  -0.70423  -0.69807
 Alpha  occ. eigenvalues --   -0.69661  -0.69083  -0.68075  -0.67769  -0.66949
 Alpha  occ. eigenvalues --   -0.66720  -0.66634  -0.66452  -0.66192  -0.65740
 Alpha  occ. eigenvalues --   -0.65322  -0.63742  -0.63403  -0.62406  -0.61896
 Alpha  occ. eigenvalues --   -0.61787  -0.61139  -0.61085  -0.61043  -0.60944
 Alpha  occ. eigenvalues --   -0.60527  -0.60288  -0.59667  -0.59582  -0.59409
 Alpha  occ. eigenvalues --   -0.58409  -0.57826  -0.57745  -0.57390  -0.57125
 Alpha  occ. eigenvalues --   -0.56692  -0.56619  -0.56432  -0.55993  -0.55930
 Alpha  occ. eigenvalues --   -0.55664  -0.55629  -0.55587  -0.55282  -0.54975
 Alpha  occ. eigenvalues --   -0.54798  -0.54624  -0.54345  -0.54256  -0.54064
 Alpha  occ. eigenvalues --   -0.53901  -0.53799  -0.53613  -0.53555  -0.53436
 Alpha  occ. eigenvalues --   -0.52743  -0.52734  -0.52612  -0.52589  -0.52186
 Alpha  occ. eigenvalues --   -0.52183  -0.51900  -0.51629  -0.51614  -0.51531
 Alpha  occ. eigenvalues --   -0.51525  -0.51319  -0.51070  -0.51018  -0.50978
 Alpha  occ. eigenvalues --   -0.50919  -0.50455  -0.50259  -0.50155  -0.50142
 Alpha  occ. eigenvalues --   -0.50038  -0.49671  -0.49575  -0.49559  -0.49077
 Alpha  occ. eigenvalues --   -0.49057  -0.48683  -0.48658  -0.48260  -0.48198
 Alpha  occ. eigenvalues --   -0.48045  -0.47791  -0.47787  -0.47569  -0.47448
 Alpha  occ. eigenvalues --   -0.47320  -0.47201  -0.47100  -0.46946  -0.46904
 Alpha  occ. eigenvalues --   -0.46573  -0.46247  -0.46224  -0.46075  -0.45890
 Alpha  occ. eigenvalues --   -0.45635  -0.45600  -0.45428  -0.45330  -0.45159
 Alpha  occ. eigenvalues --   -0.45121  -0.45026  -0.44991  -0.44764  -0.44748
 Alpha  occ. eigenvalues --   -0.44667  -0.44453  -0.44388  -0.44279  -0.43930
 Alpha  occ. eigenvalues --   -0.43734  -0.43480  -0.43416  -0.43022  -0.42943
 Alpha  occ. eigenvalues --   -0.42884  -0.42804  -0.42523  -0.42274  -0.42162
 Alpha  occ. eigenvalues --   -0.42148  -0.41826  -0.41640  -0.41410  -0.40440
 Alpha  occ. eigenvalues --   -0.40312  -0.40298  -0.39756  -0.39671  -0.39606
 Alpha  occ. eigenvalues --   -0.39273  -0.39077  -0.38783  -0.38369  -0.38214
 Alpha  occ. eigenvalues --   -0.38057  -0.37699  -0.36614  -0.36493  -0.36321
 Alpha  occ. eigenvalues --   -0.35751  -0.35514  -0.35396  -0.33899  -0.33571
 Alpha  occ. eigenvalues --   -0.33363  -0.33109  -0.32804  -0.32325  -0.32136
 Alpha  occ. eigenvalues --   -0.31799  -0.31441  -0.30846  -0.26068  -0.25430
 Alpha  occ. eigenvalues --   -0.23197  -0.23116
 Alpha virt. eigenvalues --   -0.07287  -0.07282   0.00195   0.00611   0.02489
 Alpha virt. eigenvalues --    0.02640   0.04306   0.04586   0.05676   0.06272
 Alpha virt. eigenvalues --    0.07156   0.07437   0.07725   0.07767   0.08102

 Mulliken charges:
               1
     1  Mg   0.953701
     2  C   -0.042729
     3  C   -0.110283
     4  C   -0.074502
     5  C   -0.071309
     6  N   -0.321055
     7  C   -0.004138
     8  C   -0.076405
     9  C   -0.141289
    10  C    0.116642
    11  C    0.056669
    12  C    0.009084
    13  C   -0.101794
    14  H    0.060739
    15  N   -0.444547
    16  C    0.147164
    17  C   -0.177304
    18  C   -0.058176
    19  C    0.148220
    20  C    0.068483
    21  C    0.023149
    22  O   -0.209926
    23  C   -0.009869
    24  N   -0.406308
    25  C    0.080457
    26  C   -0.094079
    27  C   -0.044066
    28  C    0.108038
    29  C    0.034250
    30  C    0.007514
    31  C   -0.069555
    32  N   -0.442596
    33  C    0.083877
    34  C   -0.209060
    35  C    0.006997
    36  C    0.127217
    37  C    0.079112
    38  C    0.099106
    39  O   -0.251490
    40  C   -0.045901
    41  C    0.263295
    42  O   -0.210405
    43  O   -0.401471
    44  C    0.135704
    45  H    0.006495
    46  H    0.021242
    47  H   -0.000386
    48  H    0.038125
    49  H    0.035964
    50  H    0.032107
    51  H    0.057736
    52  H    0.022850
    53  H    0.027429
    54  H    0.042863
    55  H    0.027469
    56  H    0.044608
    57  H    0.032521
    58  H    0.076052
    59  H    0.059576
    60  H    0.059892
    61  H    0.052688
    62  H    0.061967
    63  H    0.025021
    64  H    0.018235
    65  H    0.044990
    66  H    0.032944
    67  H    0.031267
    68  H    0.032126
    69  H    0.016190
    70  H    0.030690
    71  H    0.056749
    72  H    0.029952
    73  H    0.053924
    74  H    0.066197
    75  H    0.035072
    76  H    0.077711
    77  H    0.056918
    78  H    0.049868
    79  H    0.051784
    80  Mg   0.960070
    81  C   -0.000807
    82  C   -0.090295
    83  C   -0.073972
    84  C   -0.087065
    85  N   -0.357289
    86  C   -0.011372
    87  C   -0.047864
    88  C   -0.148898
    89  C    0.067935
    90  C    0.032173
    91  C    0.017128
    92  C   -0.110754
    93  H    0.046831
    94  N   -0.477717
    95  C    0.165637
    96  C   -0.178454
    97  C   -0.089947
    98  C    0.129196
    99  C    0.057106
   100  C    0.082221
   101  O   -0.208416
   102  C   -0.022415
   103  N   -0.338025
   104  C    0.039900
   105  C   -0.081559
   106  C   -0.049267
   107  C    0.051126
   108  C    0.022582
   109  C   -0.042518
   110  C   -0.033357
   111  N   -0.449883
   112  C    0.142116
   113  C   -0.164995
   114  C   -0.034601
   115  C    0.132204
   116  C    0.085461
   117  C    0.094026
   118  O   -0.220687
   119  C   -0.058960
   120  C    0.274370
   121  O   -0.254797
   122  O   -0.379417
   123  C    0.128360
   124  H    0.001334
   125  H    0.020138
   126  H   -0.015906
   127  H    0.038839
   128  H    0.031196
   129  H    0.040102
   130  H    0.043095
   131  H    0.055426
   132  H    0.031072
   133  H    0.031063
   134  H    0.040504
   135  H    0.054366
   136  H    0.029121
   137  H    0.047909
   138  H    0.067781
   139  H    0.082022
   140  H    0.053791
   141  H    0.031762
   142  H    0.039763
   143  H    0.036107
   144  H    0.039819
   145  H    0.035665
   146  H    0.050966
   147  H    0.030134
   148  H    0.031105
   149  H    0.040371
   150  H    0.037223
   151  H    0.046608
   152  H    0.052952
   153  H    0.034618
   154  H    0.057842
   155  H    0.073267
   156  H    0.066887
   157  H    0.054423
   158  H    0.073522
 Sum of Mulliken charges =  -0.00000

 Dipole moment (field-independent basis, Debye):
    X=             -6.3303    Y=             -0.9873    Z=              7.6200  Tot=              9.9555
 Quadrupole moment (field-independent basis, Debye-Ang):
   XX=           -468.9538   YY=           -504.9752   ZZ=           -475.5713
   XY=            -74.0623   XZ=            143.7537   YZ=             55.2495

 Normal termination of Gaussian 16 at Sat Sep 18 12:05:20 2021.
