 Gaussian 16, Revision A.03,
 Gaussian 16:  ES64L-G16RevA.03 25-Dec-2016

 --------------------------------
 #p wB97XD/Def2SVP td=(nstates=5)
 --------------------------------

 --------------------------------
 TDDFT excited states in gaussian
 --------------------------------
 Symbolic Z-matrix:
 Charge =  0 Multiplicity = 1

                         Standard orientation:
 ---------------------------------------------------------------------
 Center     Atomic      Atomic             Coordinates (Angstroms)
 Number     Number       Type             X           Y           Z
 ---------------------------------------------------------------------
      1         12           0       27.138702   -0.557896    0.068356
      2          6           0       25.750913    2.424018    1.331341
      3          6           0       28.128584    1.130792   -2.706381
      4          6           0       28.349556   -3.472501   -1.147728
      5          6           0       25.700154   -2.274854    2.721877
      6          7           0       26.881066    1.477801   -0.648501
      7          6           0       26.382070    2.558798    0.083356
      8          6           0       26.644884    3.830293   -0.666179
      9          6           0       26.935567    3.319448   -2.097372
     10          6           0       27.351119    1.855810   -1.798926
     11          6           0       25.756697    3.331658   -3.121044
     12          6           0       27.794169    4.741785   -0.092348
     13          6           0       27.434772    6.188498    0.028740
     14          1           0       28.484512    7.201753   -0.464563
     15          7           0       28.170588   -1.040956   -1.598563
     16          6           0       28.583873   -0.174263   -2.624030
     17          6           0       29.344794   -0.880722   -3.575801
     18          6           0       29.446224   -2.285845   -3.142594
     19          6           0       28.668982   -2.313054   -1.936484
     20          6           0       29.839596   -0.335580   -4.883591
     21          6           0       30.111598   -3.570500   -3.802767
     22          8           0       30.086502   -4.639979   -3.241265
     23          6           0       30.886540   -3.468080   -5.108732
     24          7           0       26.940139   -2.604536    0.649131
     25          6           0       27.529992   -3.610494   -0.047017
     26          6           0       27.192852   -5.023532    0.631230
     27          6           0       26.594609   -4.604482    2.044954
     28          6           0       26.384041   -3.048376    1.808737
     29          6           0       26.225106   -5.951280   -0.154179
     30          6           0       27.539528   -4.909053    3.261513
     31          6           0       26.845744   -5.689541    4.297465
     32          7           0       25.926753   -0.067626    1.672538
     33          6           0       25.507566   -0.861386    2.739125
     34          6           0       24.793147   -0.058519    3.693938
     35          6           0       24.841397    1.217356    3.170310
     36          6           0       25.534519    1.187936    2.001428
     37          6           0       24.239722   -0.636965    5.022349
     38          6           0       24.417132    2.590704    3.371409
     39          8           0       23.673978    3.024515    4.223937
     40          6           0       24.988381    3.449606    2.136734
     41          6           0       23.857641    4.069362    1.421756
     42          8           0       22.901010    3.430422    0.910179
     43          8           0       24.018500    5.423556    1.454965
     44          6           0       22.791826    6.194463    1.120314
     45          1           0       28.377262    1.728481   -3.585759
     46          1           0       28.691148   -4.456480   -1.475172
     47          1           0       25.195761   -2.838030    3.509194
     48          1           0       25.762919    4.458301   -0.797742
     49          1           0       27.732078    3.866996   -2.601513
     50          1           0       25.061036    4.160671   -2.984640
     51          1           0       25.246623    2.372655   -3.026671
     52          1           0       26.042013    3.308124   -4.172467
     53          1           0       28.642178    4.575168   -0.756320
     54          1           0       28.151172    4.377881    0.871538
     55          1           0       27.245574    6.265539    1.099543
     56          1           0       26.564943    6.401746   -0.592430
     57          1           0       30.911584   -0.145546   -4.941153
     58          1           0       29.409778    0.652515   -5.042974
     59          1           0       29.620932   -0.894181   -5.793279
     60          1           0       31.348305   -4.444318   -5.251331
     61          1           0       31.556709   -2.607955   -5.112454
     62          1           0       30.222292   -3.129878   -5.904566
     63          1           0       28.095293   -5.632558    0.686488
     64          1           0       25.631595   -5.101956    2.169228
     65          1           0       25.790415   -5.540038   -1.065829
     66          1           0       25.369757   -6.276912    0.438327
     67          1           0       26.795082   -6.842200   -0.419128
     68          1           0       27.821777   -3.963337    3.725674
     69          1           0       28.430585   -5.484600    3.011632
     70          1           0       27.129422   -6.736788    4.189786
     71          1           0       25.763868   -5.603062    4.391882
     72          1           0       27.137878   -5.321940    5.281207
     73          1           0       24.723707   -1.593869    5.219230
     74          1           0       23.148828   -0.639996    5.034155
     75          1           0       24.603595    0.053515    5.782316
     76          1           0       25.683016    4.220708    2.470842
     77          1           0       22.953613    7.257596    1.297512
     78          1           0       22.061903    5.899048    1.874314
     79          1           0       22.511402    5.911980    0.105204
     80         12           0      -27.245423   -0.581384   -0.319822
     81          6           0      -25.232579    2.155424   -1.144735
     82          6           0      -28.993035    1.488901    1.817116
     83          6           0      -28.763484   -3.321372    1.036284
     84          6           0      -25.004885   -2.634289   -1.980711
     85          7           0      -27.141413    1.552411    0.152328
     86          6           0      -26.397915    2.483737   -0.458538
     87          6           0      -26.819598    3.932004   -0.170276
     88          6           0      -27.919693    3.719901    0.939323
     89          6           0      -28.136918    2.104990    0.940686
     90          6           0      -27.613756    4.264590    2.351205
     91          6           0      -27.304037    4.710600   -1.393564
     92          6           0      -27.109552    6.232128   -1.262395
     93          1           0      -26.503240    6.803425    0.027141
     94          7           0      -28.749385   -0.891730    1.122361
     95          6           0      -29.407994    0.114883    1.865552
     96          6           0      -30.417843   -0.516501    2.691134
     97          6           0      -30.323519   -1.948660    2.525785
     98          6           0      -29.283056   -2.115640    1.512278
     99          6           0      -31.405388    0.306027    3.472207
    100          6           0      -31.226539   -3.120994    3.119534
    101          8           0      -31.128314   -4.277647    2.788476
    102          6           0      -32.241440   -2.719743    4.167880
    103          7           0      -26.873924   -2.654315   -0.376485
    104          6           0      -27.649554   -3.601834    0.224928
    105          6           0      -27.185116   -5.063374   -0.125631
    106          6           0      -26.058320   -4.786520   -1.119538
    107          6           0      -25.976676   -3.271935   -1.150840
    108          6           0      -26.840575   -6.115036    1.004638
    109          6           0      -26.376964   -5.386308   -2.509155
    110          6           0      -27.287858   -4.594165   -3.473098
    111          7           0      -25.532939   -0.362053   -1.506045
    112          6           0      -24.721866   -1.281314   -2.119469
    113          6           0      -23.656909   -0.644903   -2.819596
    114          6           0      -23.802506    0.769420   -2.458079
    115          6           0      -24.891960    0.847656   -1.681000
    116          6           0      -22.597023   -1.181070   -3.676340
    117          6           0      -23.187461    2.088121   -2.519151
    118          8           0      -22.217058    2.482261   -3.174730
    119          6           0      -24.070737    3.063197   -1.686290
    120          6           0      -23.302756    3.709409   -0.626932
    121          8           0      -22.980377    3.203463    0.442803
    122          8           0      -22.796853    4.895057   -1.097693
    123          6           0      -21.665921    5.536482   -0.399377
    124          1           0      -29.471604    2.211272    2.481964
    125          1           0      -29.359523   -4.190981    1.320733
    126          1           0      -24.352663   -3.268325   -2.584849
    127          1           0      -26.034135    4.483166    0.346308
    128          1           0      -28.912028    4.049138    0.633222
    129          1           0      -28.506454    4.865456    2.523935
    130          1           0      -26.719804    4.887666    2.338576
    131          1           0      -27.476960    3.444343    3.055997
    132          1           0      -28.347809    4.501731   -1.624985
    133          1           0      -26.757245    4.392479   -2.281616
    134          1           0      -28.135091    6.575196   -1.400608
    135          1           0      -26.585468    6.651063   -2.122614
    136          1           0      -31.039862    1.331255    3.412777
    137          1           0      -31.435713   -0.056812    4.499817
    138          1           0      -32.421672    0.238053    3.081180
    139          1           0      -31.863410   -2.497443    5.166296
    140          1           0      -33.005089   -3.496736    4.202661
    141          1           0      -32.677506   -1.825510    3.722713
    142          1           0      -28.082243   -5.448138   -0.610091
    143          1           0      -25.161274   -5.239005   -0.698393
    144          1           0      -25.897224   -6.641471    0.864409
    145          1           0      -27.605717   -6.890497    0.987071
    146          1           0      -26.905623   -5.600860    1.964002
    147          1           0      -26.804997   -6.367135   -2.305685
    148          1           0      -25.401072   -5.552426   -2.966325
    149          1           0      -27.935215   -5.350265   -3.916599
    150          1           0      -26.744515   -4.123858   -4.292343
    151          1           0      -27.829253   -3.771939   -3.006521
    152          1           0      -22.488126   -0.507479   -4.525632
    153          1           0      -22.753610   -2.196433   -4.040639
    154          1           0      -21.630892   -1.071898   -3.183287
    155          1           0      -24.446877    3.771322   -2.424500
    156          1           0      -21.376492    4.993642    0.501103
    157          1           0      -21.989270    6.531170   -0.091567
    158          1           0      -20.904701    5.511138   -1.178327
 ---------------------------------------------------------------------

 SCF Done:  E(RwB97XD) =  -4070.64317254     A.U. after   19 cycles

 Excitation energies and oscillator strengths:

 Excited State   1:      Singlet-A      1.6570 eV  748.25 nm  f=0.4123  <S**2>=0.000
     310 -> 315       -0.18734
     312 -> 314        0.68179
     310 <- 315       -0.11634
 This state for optimization and/or second-order correction.
 Total Energy, E(TD-HF/TD-DFT) =  -4070.58227970
 Copying the excited state density for this state as the 1-particle RhoCI density.

 Excited State   2:      Singlet-A      1.6894 eV  733.89 nm  f=0.3926  <S**2>=0.000
     309 -> 316       -0.18341
     311 -> 313        0.68255
     309 <- 316       -0.11555

 Excited State   3:      Singlet-A      2.0777 eV  596.73 nm  f=0.1512  <S**2>=0.000
     310 -> 314        0.65640
     312 -> 315        0.23992

 Excited State   4:      Singlet-A      2.1431 eV  578.52 nm  f=0.1544  <S**2>=0.000
     309 -> 313        0.65153
     311 -> 316        0.25246

 Excited State   5:      Singlet-A      3.1035 eV  399.50 nm  f=0.0053  <S**2>=0.000
     306 -> 314       -0.12844
     308 -> 314        0.67539

 The electronic state is 1-A.
 Alpha  occ. eigenvalues --  -46.94579 -46.93533 -19.30859 -19.29100 -19.24948
 Alpha  occ. eigenvalues --  -19.24921 -19.24460 -19.24055 -19.23911 -19.23752
 Alpha  occ. eigenvalues --  -14.46868 -14.46658 -14.46455 -14.46079 -14.44049
 Alpha  occ. eigenvalues --  -14.43954 -14.43137 -14.42759 -10.43265 -10.42495
 Alpha  occ. eigenvalues --  -10.40345 -10.40151 -10.39095 -10.39025 -10.35895
 Alpha  occ. eigenvalues --  -10.35057 -10.34909 -10.34899 -10.34874 -10.34721
 Alpha  occ. eigenvalues --  -10.34701 -10.34676 -10.34647 -10.34637 -10.34407
 Alpha  occ. eigenvalues --  -10.34368 -10.33994 -10.33886 -10.33138 -10.33067
 Alpha  occ. eigenvalues --  -10.32831 -10.32815 -10.32703 -10.32601 -10.32282
 Alpha  occ. eigenvalues --  -10.32255 -10.32169 -10.32138 -10.32136 -10.32023
 Alpha  occ. eigenvalues --  -10.31834 -10.31815 -10.31803 -10.31796 -10.31697
 Alpha  occ. eigenvalues --  -10.31685 -10.31684 -10.31679 -10.31659 -10.31464
 Alpha  occ. eigenvalues --  -10.31446 -10.31184 -10.31144 -10.31014 -10.30920
 Alpha  occ. eigenvalues --  -10.30912 -10.30867 -10.30630 -10.30616 -10.30408
 Alpha  occ. eigenvalues --  -10.30337 -10.30266 -10.30178 -10.29960 -10.29959
 Alpha  occ. eigenvalues --  -10.29940 -10.29840 -10.29822 -10.29684 -10.29649
 Alpha  occ. eigenvalues --  -10.29593 -10.29283 -10.29171 -10.28785 -10.28426
 Alpha  occ. eigenvalues --  -10.28326  -3.20541  -3.19667  -1.94131  -1.93661
 Alpha  occ. eigenvalues --   -1.93519  -1.93267  -1.92785  -1.92668  -1.17918
 Alpha  occ. eigenvalues --   -1.17240  -1.13944  -1.13790  -1.12532  -1.11089
 Alpha  occ. eigenvalues --   -1.08819  -1.08500  -1.06937  -1.06432  -1.05335
 Alpha  occ. eigenvalues --   -1.05314  -1.04557  -1.04463  -1.03495  -1.03046
 Alpha  occ. eigenvalues --   -0.94529  -0.94040  -0.91059  -0.91020  -0.90633
 Alpha  occ. eigenvalues --   -0.90540  -0.90061  -0.89924  -0.89005  -0.88949
 Alpha  occ. eigenvalues --   -0.88379  -0.88369  -0.88015  -0.87754  -0.86202
 Alpha  occ. eigenvalues --   -0.86110  -0.85689  -0.85313  -0.84799  -0.84209
 Alpha  occ. eigenvalues --   -0.84039  -0.83860  -0.83129  -0.82937  -0.82620
 Alpha  occ. eigenvalues --   -0.82119  -0.80218  -0.80080  -0.79229  -0.79031
 Alpha  occ. eigenvalues --   -0.78736  -0.78675  -0.77811  -0.77635  -0.76949
 Alpha  occ. eigenvalues --   -0.76815  -0.74852  -0.74407  -0.73056  -0.72902
 Alpha  occ. eigenvalues --   -0.71717  -0.70590  -0.70400  -0.70013  -0.69638
 Alpha  occ. eigenvalues --   -0.69508  -0.68513  -0.68053  -0.67447  -0.67088
 Alpha  occ. eigenvalues --   -0.66698  -0.66612  -0.66572  -0.66429  -0.66038
 Alpha  occ. eigenvalues --   -0.65717  -0.63921  -0.63379  -0.62326  -0.62083
 Alpha  occ. eigenvalues --   -0.61764  -0.61241  -0.61062  -0.61020  -0.60265
 Alpha  occ. eigenvalues --   -0.60138  -0.59679  -0.59645  -0.59578  -0.59386
 Alpha  occ. eigenvalues --   -0.58173  -0.57804  -0.57631  -0.57407  -0.57367
 Alpha  occ. eigenvalues --   -0.57102  -0.56876  -0.56596  -0.55706  -0.55605
 Alpha  occ. eigenvalues --   -0.55523  -0.55375  -0.55259  -0.54775  -0.54601
 Alpha  occ. eigenvalues --   -0.54559  -0.54490  -0.54234  -0.54042  -0.53879
 Alpha  occ. eigenvalues --   -0.53814  -0.53734  -0.53532  -0.53502  -0.52958
 Alpha  occ. eigenvalues --   -0.52798  -0.52720  -0.52566  -0.52433  -0.52161
 Alpha  occ. eigenvalues --   -0.52044  -0.51732  -0.51607  -0.51503  -0.51347
 Alpha  occ. eigenvalues --   -0.51337  -0.51296  -0.51098  -0.50955  -0.50896
 Alpha  occ. eigenvalues --   -0.50635  -0.50432  -0.50132  -0.50015  -0.49879
 Alpha  occ. eigenvalues --   -0.49570  -0.49536  -0.49156  -0.49035  -0.48745
 Alpha  occ. eigenvalues --   -0.48661  -0.48560  -0.48374  -0.48175  -0.48052
 Alpha  occ. eigenvalues --   -0.48023  -0.47769  -0.47766  -0.47665  -0.47546
 Alpha  occ. eigenvalues --   -0.47307  -0.47179  -0.46978  -0.46923  -0.46681
 Alpha  occ. eigenvalues --   -0.46575  -0.46551  -0.46392  -0.46275  -0.46224
 Alpha  occ. eigenvalues --   -0.45868  -0.45578  -0.45341  -0.45308  -0.45247
 Alpha  occ. eigenvalues --   -0.45136  -0.44968  -0.44853  -0.44775  -0.44726
 Alpha  occ. eigenvalues --   -0.44645  -0.44562  -0.44290  -0.44256  -0.43907
 Alpha  occ. eigenvalues --   -0.43863  -0.43777  -0.43394  -0.43126  -0.42998
 Alpha  occ. eigenvalues --   -0.42870  -0.42781  -0.42501  -0.42337  -0.42141
 Alpha  occ. eigenvalues --   -0.41955  -0.41804  -0.41034  -0.40722  -0.40418
 Alpha  occ. eigenvalues --   -0.40291  -0.40264  -0.39888  -0.39746  -0.39734
 Alpha  occ. eigenvalues --   -0.39583  -0.38761  -0.38755  -0.38394  -0.38034
 Alpha  occ. eigenvalues --   -0.37908  -0.37674  -0.36298  -0.36225  -0.36091
 Alpha  occ. eigenvalues --   -0.35727  -0.35491  -0.35366  -0.33733  -0.33549
 Alpha  occ. eigenvalues --   -0.33472  -0.33087  -0.32821  -0.32781  -0.32150
 Alpha  occ. eigenvalues --   -0.31777  -0.31740  -0.30823  -0.25873  -0.25408
 Alpha  occ. eigenvalues --   -0.23330  -0.23094
 Alpha virt. eigenvalues --   -0.07360  -0.07259   0.00633   0.00650   0.02663
 Alpha virt. eigenvalues --    0.02793   0.04608   0.04882   0.05697   0.06484
 Alpha virt. eigenvalues --    0.06707   0.07461   0.07790   0.08057   0.08484

 Mulliken charges:
               1
     1  Mg   0.978595
     2  C   -0.032872
     3  C   -0.099692
     4  C   -0.063494
     5  C   -0.089506
     6  N   -0.322153
     7  C    0.015188
     8  C   -0.082413
     9  C   -0.128369
    10  C    0.030693
    11  C    0.020652
    12  C    0.044902
    13  C   -0.121156
    14  H    0.030793
    15  N   -0.522957
    16  C    0.241882
    17  C   -0.149360
    18  C   -0.081286
    19  C    0.154445
    20  C    0.042061
    21  C    0.076287
    22  O   -0.213765
    23  C   -0.007855
    24  N   -0.359299
    25  C    0.071658
    26  C   -0.108355
    27  C   -0.079657
    28  C    0.063642
    29  C    0.008314
    30  C    0.027460
    31  C   -0.074070
    32  N   -0.443990
    33  C    0.130138
    34  C   -0.214736
    35  C    0.007938
    36  C    0.121589
    37  C    0.094269
    38  C    0.108337
    39  O   -0.190822
    40  C   -0.041864
    41  C    0.275548
    42  O   -0.281914
    43  O   -0.372045
    44  C    0.141500
    45  H   -0.011147
    46  H    0.021684
    47  H   -0.003608
    48  H    0.026695
    49  H    0.025643
    50  H    0.045053
    51  H    0.043257
    52  H    0.033146
    53  H    0.030098
    54  H    0.030082
    55  H    0.065258
    56  H    0.054097
    57  H    0.051072
    58  H    0.023046
    59  H    0.045304
    60  H    0.070860
    61  H    0.046685
    62  H    0.048735
    63  H    0.037835
    64  H    0.037781
    65  H    0.044171
    66  H    0.029749
    67  H    0.037008
    68  H    0.035358
    69  H    0.037532
    70  H    0.038901
    71  H    0.028209
    72  H    0.026664
    73  H    0.030827
    74  H    0.066479
    75  H    0.049385
    76  H    0.057581
    77  H    0.060440
    78  H    0.064192
    79  H    0.067668
    80  Mg   0.960079
    81  C   -0.000810
    82  C   -0.090138
    83  C   -0.073985
    84  C   -0.086956
    85  N   -0.357144
    86  C   -0.011451
    87  C   -0.047771
    88  C   -0.148999
    89  C    0.067764
    90  C    0.032199
    91  C    0.017139
    92  C   -0.110755
    93  H    0.046858
    94  N   -0.477848
    95  C    0.165539
    96  C   -0.178491
    97  C   -0.089911
    98  C    0.129284
    99  C    0.057184
   100  C    0.082219
   101  O   -0.208415
   102  C   -0.022465
   103  N   -0.338062
   104  C    0.039835
   105  C   -0.081616
   106  C   -0.049215
   107  C    0.051094
   108  C    0.022575
   109  C   -0.042505
   110  C   -0.033392
   111  N   -0.449757
   112  C    0.142113
   113  C   -0.165013
   114  C   -0.034698
   115  C    0.132251
   116  C    0.085481
   117  C    0.094065
   118  O   -0.220681
   119  C   -0.058893
   120  C    0.274327
   121  O   -0.254758
   122  O   -0.379423
   123  C    0.128371
   124  H    0.001332
   125  H    0.020110
   126  H   -0.015910
   127  H    0.038855
   128  H    0.031182
   129  H    0.040092
   130  H    0.043108
   131  H    0.055440
   132  H    0.031054
   133  H    0.031043
   134  H    0.040485
   135  H    0.054363
   136  H    0.029119
   137  H    0.047898
   138  H    0.067752
   139  H    0.082034
   140  H    0.053781
   141  H    0.031788
   142  H    0.039750
   143  H    0.036120
   144  H    0.039829
   145  H    0.035660
   146  H    0.050987
   147  H    0.030130
   148  H    0.031101
   149  H    0.040356
   150  H    0.037223
   151  H    0.046614
   152  H    0.052933
   153  H    0.034599
   154  H    0.057867
   155  H    0.073232
   156  H    0.066897
   157  H    0.054420
   158  H    0.073533
 Sum of Mulliken charges =  -0.00000

 Dipole moment (field-independent basis, Debye):
    X=             -0.8081    Y=              1.6068    Z=             -3.0497  Tot=              3.5406
 Quadrupole moment (field-independent basis, Debye-Ang):
   XX=           -165.9879   YY=           -469.1541   ZZ=           -493.5437
   XY=             -7.8935   XZ=            -90.1202   YZ=             -7.1272

 Normal termination of Gaussian 16 at Sat Sep 18 18:16:14 2021.
