 Gaussian 16, Revision A.03,
 Gaussian 16:  ES64L-G16RevA.03 25-Dec-2016

 --------------------------------
 #p wB97XD/Def2SVP td=(nstates=5)
 --------------------------------

 --------------------------------
 TDDFT excited states in gaussian
 --------------------------------
 Symbolic Z-matrix:
 Charge =  0 Multiplicity = 1

                         Standard orientation:
 ---------------------------------------------------------------------
 Center     Atomic      Atomic             Coordinates (Angstroms)
 Number     Number       Type             X           Y           Z
 ---------------------------------------------------------------------
      1         12           0      -27.237166   -0.372037   -0.433587
      2          6           0      -25.179252    2.446038   -0.583372
      3          6           0      -28.278943    0.777019    2.711059
      4          6           0      -28.827144   -3.265246    0.114399
      5          6           0      -25.367702   -1.794911   -2.948311
      6          7           0      -26.863926    1.505823    0.916877
      7          6           0      -25.924142    2.433142    0.592354
      8          6           0      -25.813816    3.529992    1.724413
      9          6           0      -26.652602    2.818115    2.902033
     10          6           0      -27.275228    1.609045    2.183907
     11          6           0      -25.617129    2.275972    3.950306
     12          6           0      -26.552661    4.817059    1.203250
     13          6           0      -26.700753    6.005870    2.191487
     14          1           0      -27.900270    6.865261    2.459741
     15          7           0      -28.526589   -1.019487    1.080879
     16          6           0      -28.886463   -0.412189    2.295528
     17          6           0      -29.754968   -1.282715    2.969920
     18          6           0      -30.074272   -2.364028    2.159579
     19          6           0      -29.136365   -2.245991    1.055328
     20          6           0      -30.349568   -0.883353    4.280628
     21          6           0      -31.044054   -3.568915    2.394004
     22          8           0      -31.254693   -4.466756    1.585640
     23          6           0      -31.996812   -3.624231    3.591305
     24          7           0      -27.011510   -2.274153   -1.229809
     25          6           0      -27.893703   -3.253797   -0.931021
     26          6           0      -27.806930   -4.471679   -1.871555
     27          6           0      -26.603856   -4.059796   -2.764712
     28          6           0      -26.363717   -2.604557   -2.404980
     29          6           0      -27.766501   -5.855362   -1.141893
     30          6           0      -26.733591   -4.311115   -4.292062
     31          6           0      -27.600714   -3.387802   -5.037700
     32          7           0      -25.669196    0.194406   -1.630079
     33          6           0      -25.028724   -0.449448   -2.578151
     34          6           0      -24.041385    0.402142   -3.249411
     35          6           0      -24.105382    1.584671   -2.445161
     36          6           0      -25.063362    1.402881   -1.466965
     37          6           0      -23.487715    0.285351   -4.592126
     38          6           0      -23.543890    2.918419   -2.320811
     39          8           0      -22.772109    3.519561   -3.033162
     40          6           0      -24.191013    3.477079   -1.047723
     41          6           0      -23.140937    3.899202   -0.014734
     42          8           0      -22.548058    3.135281    0.701831
     43          8           0      -22.941038    5.256438   -0.098359
     44          6           0      -21.941361    5.743727    0.879791
     45          1           0      -28.691798    1.207877    3.624654
     46          1           0      -29.479964   -4.140728    0.132630
     47          1           0      -25.038444   -2.410642   -3.787107
     48          1           0      -24.787364    3.685386    2.057577
     49          1           0      -27.384398    3.461655    3.391917
     50          1           0      -25.448769    1.199549    3.956948
     51          1           0      -26.009137    2.335788    4.965913
     52          1           0      -24.637730    2.750233    3.890770
     53          1           0      -27.532895    4.502691    0.845924
     54          1           0      -26.032649    5.135358    0.299311
     55          1           0      -25.842803    6.638927    1.963185
     56          1           0      -26.557569    5.489233    3.139727
     57          1           0      -30.010114    0.071723    4.682395
     58          1           0      -30.267940   -1.735576    4.956667
     59          1           0      -31.405895   -0.744246    4.048941
     60          1           0      -31.491372   -3.738831    4.550272
     61          1           0      -32.809996   -4.343527    3.492815
     62          1           0      -32.545920   -2.682477    3.585590
     63          1           0      -28.770147   -4.334056   -2.362060
     64          1           0      -25.766871   -4.624327   -2.353777
     65          1           0      -28.299788   -5.811823   -0.192833
     66          1           0      -26.729332   -6.122585   -0.937781
     67          1           0      -28.248371   -6.648583   -1.713847
     68          1           0      -27.151822   -5.317087   -4.306776
     69          1           0      -25.741364   -4.394340   -4.735946
     70          1           0      -27.039785   -2.488265   -5.290765
     71          1           0      -28.513417   -3.171747   -4.482709
     72          1           0      -27.887292   -3.793303   -6.008486
     73          1           0      -24.227048   -0.293623   -5.146054
     74          1           0      -22.573188   -0.285311   -4.754406
     75          1           0      -23.352458    1.302116   -4.959381
     76          1           0      -24.796811    4.336965   -1.335457
     77          1           0      -21.387478    6.564096    0.423770
     78          1           0      -21.116465    5.066262    1.101462
     79          1           0      -22.427808    6.142501    1.769393
     80         12           0       26.213439   -0.915102    0.066231
     81          6           0       26.588601    2.490790   -0.807899
     82          6           0       25.610206    0.078431    3.287733
     83          6           0       26.510001   -4.079553    0.996888
     84          6           0       27.319827   -1.759591   -3.145342
     85          7           0       26.273377    1.062722    1.149176
     86          6           0       26.338524    2.315739    0.533996
     87          6           0       25.914753    3.417751    1.536108
     88          6           0       25.623865    2.612600    2.855030
     89          6           0       25.798737    1.125399    2.440133
     90          6           0       26.304943    3.092754    4.124711
     91          6           0       24.743838    4.317719    1.111530
     92          6           0       25.070946    5.835888    1.146852
     93          1           0       24.147523    6.680576    1.996420
     94          7           0       25.987445   -1.857069    1.900854
     95          6           0       25.775551   -1.303855    3.129461
     96          6           0       25.535069   -2.381167    4.059702
     97          6           0       25.946740   -3.629542    3.423515
     98          6           0       26.183622   -3.177917    2.060961
     99          6           0       25.183899   -2.122620    5.615453
    100          6           0       26.346287   -4.927311    3.981533
    101          8           0       26.667858   -5.911985    3.379651
    102          6           0       26.364690   -5.020164    5.504379
    103          7           0       27.042777   -2.652305   -0.916551
    104          6           0       26.984194   -3.857980   -0.318125
    105          6           0       27.267918   -4.975964   -1.324074
    106          6           0       27.163482   -4.251313   -2.675630
    107          6           0       27.134117   -2.798450   -2.256471
    108          6           0       28.711650   -5.618409   -1.090552
    109          6           0       25.765718   -4.660896   -3.368471
    110          6           0       24.490700   -4.048074   -2.727373
    111          7           0       26.735963    0.076602   -1.729186
    112          6           0       27.140525   -0.399325   -2.917893
    113          6           0       27.364368    0.717750   -3.795712
    114          6           0       27.114721    1.843965   -3.034170
    115          6           0       26.790808    1.429207   -1.739471
    116          6           0       27.810860    0.721875   -5.245336
    117          6           0       27.160547    3.305189   -3.134286
    118          8           0       27.497034    4.141008   -3.924949
    119          6           0       26.745408    3.789867   -1.720023
    120          6           0       27.875272    4.622226   -1.237370
    121          8           0       29.001682    4.194478   -1.202943
    122          8           0       27.511895    5.923799   -0.931118
    123          6           0       28.635069    6.898736   -0.726855
    124          1           0       25.216712    0.409228    4.251287
    125          1           0       26.506448   -5.148708    1.220780
    126          1           0       27.460130   -1.927218   -4.215263
    127          1           0       26.784065    4.035806    1.761580
    128          1           0       24.581708    2.782129    3.126419
    129          1           0       27.133456    3.762227    3.898244
    130          1           0       26.656016    2.285043    4.767430
    131          1           0       25.568925    3.709356    4.640021
    132          1           0       23.826799    4.276032    1.699265
    133          1           0       24.411787    4.068274    0.104005
    134          1           0       25.198128    6.240573    0.142836
    135          1           0       26.042262    5.949207    1.626627
    136          1           0       24.330031   -2.749670    5.871759
    137          1           0       24.873038   -1.112201    5.878306
    138          1           0       25.966000   -2.269046    6.360384
    139          1           0       25.324229   -4.842764    5.777546
    140          1           0       27.022770   -4.212071    5.822213
    141          1           0       26.634765   -6.000434    5.898323
    142          1           0       26.507429   -5.757501   -1.333371
    143          1           0       27.968856   -4.329102   -3.406325
    144          1           0       28.653963   -6.653411   -1.428540
    145          1           0       29.106582   -5.660267   -0.074913
    146          1           0       29.362121   -5.050809   -1.755817
    147          1           0       25.627901   -5.739910   -3.435202
    148          1           0       25.705051   -4.208744   -4.358505
    149          1           0       23.545260   -4.456505   -3.082771
    150          1           0       24.487365   -2.983328   -2.961171
    151          1           0       24.576776   -4.169367   -1.647075
    152          1           0       27.114818    0.239924   -5.931510
    153          1           0       28.735542    0.145603   -5.228244
    154          1           0       28.085988    1.715720   -5.598386
    155          1           0       25.884049    4.427025   -1.919699
    156          1           0       28.254283    7.403442    0.161047
    157          1           0       28.732960    7.614780   -1.542610
    158          1           0       29.651690    6.540800   -0.566101
 ---------------------------------------------------------------------

 SCF Done:  E(RwB97XD) =  -4070.63530813     A.U. after   19 cycles

 Excitation energies and oscillator strengths:

 Excited State   1:      Singlet-A      1.6442 eV  754.07 nm  f=0.3992  <S**2>=0.000
     309 -> 315       -0.18145
     311 -> 313        0.68505
     309 <- 315       -0.11694
 This state for optimization and/or second-order correction.
 Total Energy, E(TD-HF/TD-DFT) =  -4070.57488460
 Copying the excited state density for this state as the 1-particle RhoCI density.

 Excited State   2:      Singlet-A      1.6939 eV  731.93 nm  f=0.3907  <S**2>=0.000
     310 -> 316       -0.19054
     312 -> 314        0.68142
     310 <- 316       -0.11527

 Excited State   3:      Singlet-A      2.1358 eV  580.50 nm  f=0.1346  <S**2>=0.000
     309 -> 313        0.65465
     311 -> 315        0.25215

 Excited State   4:      Singlet-A      2.2137 eV  560.07 nm  f=0.1129  <S**2>=0.000
     310 -> 314        0.64263
     312 -> 316        0.27814

 Excited State   5:      Singlet-A      3.3971 eV  364.97 nm  f=0.0013  <S**2>=0.000
     304 -> 313        0.14141
     305 -> 313        0.57600
     307 -> 313       -0.34363

 The electronic state is 1-A.
 Alpha  occ. eigenvalues --  -46.95878 -46.95063 -19.31033 -19.30365 -19.25355
 Alpha  occ. eigenvalues --  -19.24651 -19.24509 -19.24206 -19.23864 -19.23401
 Alpha  occ. eigenvalues --  -14.46872 -14.46717 -14.46514 -14.45630 -14.44357
 Alpha  occ. eigenvalues --  -14.43814 -14.43797 -14.43705 -10.43649 -10.42634
 Alpha  occ. eigenvalues --  -10.40210 -10.39177 -10.38501 -10.38303 -10.35575
 Alpha  occ. eigenvalues --  -10.35574 -10.35559 -10.35141 -10.34790 -10.34765
 Alpha  occ. eigenvalues --  -10.34756 -10.34696 -10.34580 -10.34474 -10.34256
 Alpha  occ. eigenvalues --  -10.33973 -10.33953 -10.33808 -10.33753 -10.33583
 Alpha  occ. eigenvalues --  -10.33363 -10.33188 -10.32818 -10.32768 -10.32686
 Alpha  occ. eigenvalues --  -10.32659 -10.32585 -10.32258 -10.32089 -10.32052
 Alpha  occ. eigenvalues --  -10.32021 -10.32015 -10.31935 -10.31907 -10.31741
 Alpha  occ. eigenvalues --  -10.31701 -10.31664 -10.31580 -10.31538 -10.31537
 Alpha  occ. eigenvalues --  -10.31386 -10.31356 -10.31165 -10.31073 -10.31023
 Alpha  occ. eigenvalues --  -10.30990 -10.30920 -10.30672 -10.30567 -10.30468
 Alpha  occ. eigenvalues --  -10.30350 -10.30265 -10.30109 -10.30071 -10.29989
 Alpha  occ. eigenvalues --  -10.29885 -10.29819 -10.29801 -10.29723 -10.29456
 Alpha  occ. eigenvalues --  -10.29337 -10.29118 -10.29098 -10.28942 -10.28919
 Alpha  occ. eigenvalues --  -10.28318  -3.21742  -3.21069  -1.95309  -1.94875
 Alpha  occ. eigenvalues --   -1.94702  -1.94644  -1.94206  -1.94026  -1.19008
 Alpha  occ. eigenvalues --   -1.17841  -1.13918  -1.13269  -1.12664  -1.12522
 Alpha  occ. eigenvalues --   -1.10982  -1.09820  -1.07202  -1.06976  -1.06328
 Alpha  occ. eigenvalues --   -1.05863  -1.05815  -1.05371  -1.04517  -1.04001
 Alpha  occ. eigenvalues --   -0.95811  -0.94342  -0.91296  -0.90768  -0.90668
 Alpha  occ. eigenvalues --   -0.90527  -0.90148  -0.90108  -0.89669  -0.89474
 Alpha  occ. eigenvalues --   -0.89149  -0.88506  -0.88267  -0.88125  -0.86333
 Alpha  occ. eigenvalues --   -0.85994  -0.85528  -0.85388  -0.84388  -0.84315
 Alpha  occ. eigenvalues --   -0.83481  -0.83143  -0.82871  -0.82815  -0.82382
 Alpha  occ. eigenvalues --   -0.82108  -0.80516  -0.80319  -0.79533  -0.79349
 Alpha  occ. eigenvalues --   -0.78700  -0.78526  -0.78073  -0.78063  -0.77150
 Alpha  occ. eigenvalues --   -0.76820  -0.75096  -0.74465  -0.73774  -0.73742
 Alpha  occ. eigenvalues --   -0.71968  -0.71281  -0.71198  -0.71144  -0.70329
 Alpha  occ. eigenvalues --   -0.70055  -0.69233  -0.69041  -0.67416  -0.67351
 Alpha  occ. eigenvalues --   -0.67282  -0.67137  -0.66794  -0.66448  -0.66424
 Alpha  occ. eigenvalues --   -0.65985  -0.64495  -0.64280  -0.62413  -0.62116
 Alpha  occ. eigenvalues --   -0.61688  -0.61464  -0.61345  -0.61281  -0.60726
 Alpha  occ. eigenvalues --   -0.60577  -0.60257  -0.60095  -0.59534  -0.59357
 Alpha  occ. eigenvalues --   -0.58489  -0.57977  -0.57614  -0.57480  -0.57335
 Alpha  occ. eigenvalues --   -0.57240  -0.57158  -0.56585  -0.56573  -0.56107
 Alpha  occ. eigenvalues --   -0.55949  -0.55356  -0.55238  -0.55083  -0.54923
 Alpha  occ. eigenvalues --   -0.54608  -0.54598  -0.54520  -0.54326  -0.54059
 Alpha  occ. eigenvalues --   -0.54043  -0.53825  -0.53464  -0.53209  -0.53077
 Alpha  occ. eigenvalues --   -0.52930  -0.52676  -0.52516  -0.52284  -0.51993
 Alpha  occ. eigenvalues --   -0.51880  -0.51737  -0.51620  -0.51431  -0.51382
 Alpha  occ. eigenvalues --   -0.51291  -0.51229  -0.51178  -0.50969  -0.50913
 Alpha  occ. eigenvalues --   -0.50753  -0.50469  -0.50335  -0.50188  -0.49866
 Alpha  occ. eigenvalues --   -0.49858  -0.49526  -0.49447  -0.49402  -0.49063
 Alpha  occ. eigenvalues --   -0.48953  -0.48625  -0.48362  -0.48080  -0.48060
 Alpha  occ. eigenvalues --   -0.48039  -0.47915  -0.47815  -0.47652  -0.47485
 Alpha  occ. eigenvalues --   -0.47286  -0.47230  -0.47038  -0.47002  -0.46922
 Alpha  occ. eigenvalues --   -0.46650  -0.46471  -0.46361  -0.46135  -0.45997
 Alpha  occ. eigenvalues --   -0.45989  -0.45775  -0.45629  -0.45591  -0.45352
 Alpha  occ. eigenvalues --   -0.45280  -0.45276  -0.45189  -0.44987  -0.44845
 Alpha  occ. eigenvalues --   -0.44836  -0.44535  -0.44437  -0.44387  -0.44322
 Alpha  occ. eigenvalues --   -0.44292  -0.44022  -0.43936  -0.43820  -0.43632
 Alpha  occ. eigenvalues --   -0.43363  -0.43293  -0.42790  -0.42641  -0.42223
 Alpha  occ. eigenvalues --   -0.42167  -0.41638  -0.41517  -0.40977  -0.40740
 Alpha  occ. eigenvalues --   -0.40407  -0.40222  -0.40008  -0.39830  -0.39801
 Alpha  occ. eigenvalues --   -0.39685  -0.39334  -0.39143  -0.38828  -0.38348
 Alpha  occ. eigenvalues --   -0.38283  -0.38207  -0.36917  -0.36396  -0.36267
 Alpha  occ. eigenvalues --   -0.36033  -0.35641  -0.35419  -0.33823  -0.33631
 Alpha  occ. eigenvalues --   -0.33239  -0.33114  -0.32787  -0.32552  -0.32368
 Alpha  occ. eigenvalues --   -0.32271  -0.32211  -0.31342  -0.26098  -0.25741
 Alpha  occ. eigenvalues --   -0.23388  -0.22902
 Alpha virt. eigenvalues --   -0.07527  -0.06738   0.00489   0.00585   0.02474
 Alpha virt. eigenvalues --    0.02601   0.04340   0.04586   0.04808   0.05380
 Alpha virt. eigenvalues --    0.07339   0.07563   0.07919   0.08056   0.08833

 Mulliken charges:
               1
     1  Mg   0.973072
     2  C   -0.006899
     3  C   -0.074278
     4  C   -0.111333
     5  C   -0.060535
     6  N   -0.282036
     7  C   -0.051561
     8  C   -0.080773
     9  C   -0.121319
    10  C    0.038183
    11  C    0.009290
    12  C   -0.013343
    13  C   -0.096426
    14  H    0.058584
    15  N   -0.474643
    16  C    0.176508
    17  C   -0.164480
    18  C   -0.081350
    19  C    0.151221
    20  C    0.071074
    21  C    0.085518
    22  O   -0.233793
    23  C   -0.021584
    24  N   -0.406337
    25  C    0.075848
    26  C   -0.112180
    27  C   -0.035617
    28  C   -0.010124
    29  C    0.035608
    30  C   -0.020905
    31  C   -0.015371
    32  N   -0.411435
    33  C    0.152418
    34  C   -0.157248
    35  C   -0.070516
    36  C    0.151323
    37  C    0.070544
    38  C    0.116278
    39  O   -0.187664
    40  C   -0.074581
    41  C    0.263635
    42  O   -0.227591
    43  O   -0.360624
    44  C    0.124804
    45  H   -0.012629
    46  H    0.022428
    47  H   -0.019471
    48  H    0.047358
    49  H    0.048725
    50  H    0.042533
    51  H    0.025853
    52  H    0.050543
    53  H    0.035472
    54  H    0.032157
    55  H    0.051110
    56  H    0.036208
    57  H    0.044500
    58  H    0.048715
    59  H    0.050253
    60  H    0.058371
    61  H    0.054790
    62  H    0.041300
    63  H    0.041049
    64  H    0.042835
    65  H    0.049047
    66  H    0.031769
    67  H    0.040096
    68  H    0.022782
    69  H    0.034915
    70  H    0.032037
    71  H    0.032799
    72  H    0.035432
    73  H    0.029565
    74  H    0.041842
    75  H    0.063970
    76  H    0.079191
    77  H    0.049944
    78  H    0.069083
    79  H    0.056069
    80  Mg   0.946075
    81  C   -0.040639
    82  C   -0.093368
    83  C   -0.065181
    84  C   -0.068516
    85  N   -0.372068
    86  C    0.009082
    87  C   -0.037798
    88  C   -0.103058
    89  C    0.075435
    90  C    0.021443
    91  C    0.015488
    92  C   -0.142064
    93  H    0.025745
    94  N   -0.445267
    95  C    0.174588
    96  C   -0.128422
    97  C   -0.081839
    98  C    0.149665
    99  C    0.018185
   100  C    0.023432
   101  O   -0.210405
   102  C   -0.006009
   103  N   -0.331224
   104  C    0.048421
   105  C   -0.089241
   106  C   -0.066717
   107  C    0.055999
   108  C    0.021699
   109  C   -0.041423
   110  C   -0.066556
   111  N   -0.411922
   112  C    0.080534
   113  C   -0.175940
   114  C   -0.085151
   115  C    0.178287
   116  C    0.073472
   117  C    0.147772
   118  O   -0.174253
   119  C   -0.066776
   120  C    0.252330
   121  O   -0.231235
   122  O   -0.382054
   123  C    0.126235
   124  H   -0.009974
   125  H    0.025894
   126  H   -0.003881
   127  H    0.040930
   128  H    0.033971
   129  H    0.030236
   130  H    0.043324
   131  H    0.031389
   132  H    0.042752
   133  H    0.032990
   134  H    0.067828
   135  H    0.036379
   136  H    0.048958
   137  H    0.027008
   138  H    0.053788
   139  H    0.041779
   140  H    0.056514
   141  H    0.049660
   142  H    0.042183
   143  H    0.039939
   144  H    0.039820
   145  H    0.057657
   146  H    0.036726
   147  H    0.045249
   148  H    0.027657
   149  H    0.048359
   150  H    0.041058
   151  H    0.039430
   152  H    0.051890
   153  H    0.041780
   154  H    0.060846
   155  H    0.062994
   156  H    0.053003
   157  H    0.061581
   158  H    0.073525
 Sum of Mulliken charges =  -0.00000

 Dipole moment (field-independent basis, Debye):
    X=             -5.8430    Y=              0.0604    Z=              4.6307  Tot=              7.4557
 Quadrupole moment (field-independent basis, Debye-Ang):
   XX=           -511.5472   YY=           -507.3375   ZZ=           -474.3197
   XY=            -12.2400   XZ=            -32.5573   YZ=             54.3216

 Normal termination of Gaussian 16 at Sat Sep 18 18:30:40 2021.
