 Gaussian 16, Revision A.03,
 Gaussian 16:  ES64L-G16RevA.03 25-Dec-2016

 --------------------------------
 #p wB97XD/Def2SVP td=(nstates=5)
 --------------------------------

 --------------------------------
 TDDFT excited states in gaussian
 --------------------------------
 Symbolic Z-matrix:
 Charge =  0 Multiplicity = 1

                         Standard orientation:
 ---------------------------------------------------------------------
 Center     Atomic      Atomic             Coordinates (Angstroms)
 Number     Number       Type             X           Y           Z
 ---------------------------------------------------------------------
      1         12           0      -13.058004   -0.264418   -0.409430
      2          6           0       -9.732623    0.108940    0.750939
      3          6           0      -13.765326    2.629942    1.418403
      4          6           0      -16.158957   -0.394720   -1.480245
      5          6           0      -12.305800   -3.497313   -1.445049
      6          7           0      -11.847475    1.179396    0.883258
      7          6           0      -10.502300    1.219533    1.093077
      8          6           0       -9.991611    2.374690    1.971264
      9          6           0      -11.411996    3.085379    2.247298
     10          6           0      -12.371446    2.225238    1.479312
     11          6           0      -11.833060    3.129117    3.769453
     12          6           0       -8.978552    3.305951    1.228909
     13          6           0       -7.499760    3.425266    1.576363
     14          1           0       -6.765128    4.754292    1.460149
     15          7           0      -14.740030    0.978859   -0.156260
     16          6           0      -14.856283    2.089053    0.692577
     17          6           0      -16.238706    2.511658    0.662929
     18          6           0      -16.919371    1.757104   -0.289420
     19          6           0      -15.921859    0.762384   -0.729693
     20          6           0      -16.621112    3.742886    1.411132
     21          6           0      -18.377919    1.779639   -0.745288
     22          8           0      -18.861899    1.018586   -1.588631
     23          6           0      -19.222214    2.882046   -0.239000
     24          7           0      -14.149884   -1.758098   -1.243115
     25          6           0      -15.373012   -1.535207   -1.812349
     26          6           0      -15.738211   -2.671529   -2.826652
     27          6           0      -14.566342   -3.635765   -2.696141
     28          6           0      -13.617636   -2.964440   -1.664538
     29          6           0      -17.158358   -3.283803   -2.595362
     30          6           0      -13.921656   -3.854596   -4.073325
     31          6           0      -13.553978   -5.238193   -4.469679
     32          7           0      -11.423100   -1.534552   -0.294010
     33          6           0      -11.242852   -2.805409   -0.778509
     34          6           0       -9.908944   -3.270653   -0.542020
     35          6           0       -9.163641   -2.110248   -0.003844
     36          6           0      -10.174939   -1.076841    0.110738
     37          6           0       -9.377086   -4.679060   -0.858022
     38          6           0       -7.864271   -1.575374    0.475500
     39          8           0       -6.726090   -2.072086    0.428733
     40          6           0       -8.207650   -0.111069    0.972933
     41          6           0       -7.777284   -0.216908    2.402599
     42          8           0       -8.421767   -0.613765    3.365884
     43          8           0       -6.592911    0.304786    2.569820
     44          6           0       -5.903386    0.161496    3.875048
     45          1           0      -13.805152    3.610001    1.897671
     46          1           0      -17.162791   -0.584896   -1.864892
     47          1           0      -12.070309   -4.487037   -1.840923
     48          1           0       -9.599174    1.940425    2.891632
     49          1           0      -11.569783    4.092420    1.859959
     50          1           0      -11.296100    2.471580    4.452588
     51          1           0      -12.883266    2.857438    3.870111
     52          1           0      -11.715007    4.152034    4.127415
     53          1           0       -9.363535    4.320328    1.334700
     54          1           0       -8.943183    3.055019    0.169539
     55          1           0       -7.063883    2.825372    0.777331
     56          1           0       -7.475287    2.994636    2.577443
     57          1           0      -16.988966    4.524338    0.747643
     58          1           0      -15.770921    4.149394    1.959462
     59          1           0      -17.416742    3.576468    2.136707
     60          1           0      -18.705856    3.831045   -0.384044
     61          1           0      -19.324597    2.864032    0.846127
     62          1           0      -20.181308    2.984088   -0.745763
     63          1           0      -15.745159   -2.125243   -3.769709
     64          1           0      -14.903726   -4.626451   -2.391940
     65          1           0      -17.768498   -2.740185   -1.874187
     66          1           0      -17.140869   -4.312439   -2.237129
     67          1           0      -17.660597   -3.418796   -3.553182
     68          1           0      -13.021495   -3.244776   -4.007731
     69          1           0      -14.531088   -3.533374   -4.917660
     70          1           0      -12.494722   -5.177756   -4.718422
     71          1           0      -14.216780   -5.593317   -5.258720
     72          1           0      -13.577412   -5.969380   -3.661358
     73          1           0       -9.520064   -5.315288    0.014625
     74          1           0       -8.326261   -4.592090   -1.133837
     75          1           0       -9.929801   -5.156022   -1.667709
     76          1           0       -7.557274    0.566141    0.419610
     77          1           0       -6.437351    0.612641    4.710662
     78          1           0       -4.881884    0.541200    3.883732
     79          1           0       -5.705722   -0.853797    4.217501
     80         12           0       12.695836   -0.367385    0.353286
     81          6           0       11.482643    2.590974   -1.096733
     82          6           0       10.262929   -0.102612    2.709806
     83          6           0       13.651867   -3.340762    1.323558
     84          6           0       14.538829   -0.773882   -2.713397
     85          7           0       11.138747    1.108155    0.766360
     86          6           0       10.804754    2.219958    0.045821
     87          6           0        9.443782    2.725699    0.547147
     88          6           0        9.435460    2.225254    1.987347
     89          6           0       10.260914    0.941614    1.775610
     90          6           0       10.131046    3.198588    2.966845
     91          6           0        8.260802    2.128668   -0.301372
     92          6           0        7.391391    3.129235   -1.210319
     93          1           0        7.358330    2.917164   -2.733474
     94          7           0       12.012842   -1.585798    1.777288
     95          6           0       11.009365   -1.292492    2.671895
     96          6           0       10.959907   -2.339130    3.644283
     97          6           0       12.010455   -3.278642    3.378860
     98          6           0       12.624290   -2.778677    2.114613
     99          6           0        9.923963   -2.373505    4.819675
    100          6           0       12.368437   -4.508534    4.289795
    101          8           0       11.811244   -4.661848    5.332929
    102          6           0       13.566140   -5.276877    3.972833
    103          7           0       13.679324   -1.990327   -0.716251
    104          6           0       14.225836   -2.912181    0.111696
    105          6           0       15.513722   -3.512377   -0.426858
    106          6           0       15.579266   -2.973775   -1.847855
    107          6           0       14.517193   -1.821929   -1.779348
    108          6           0       16.778383   -3.112256    0.419547
    109          6           0       15.325969   -3.963446   -3.080553
    110          6           0       16.441602   -4.410326   -3.986773
    111          7           0       13.139090    0.734232   -1.414728
    112          6           0       13.892839    0.453838   -2.561681
    113          6           0       13.786116    1.512021   -3.542741
    114          6           0       12.873615    2.375831   -2.988709
    115          6           0       12.464473    1.884759   -1.705256
    116          6           0       14.461684    1.537942   -4.850354
    117          6           0       12.158589    3.622688   -3.214056
    118          8           0       12.264410    4.435727   -4.140613
    119          6           0       11.326903    3.864705   -1.972066
    120          6           0       11.820703    5.162994   -1.343058
    121          8           0       12.993234    5.290354   -0.997901
    122          8           0       10.826703    6.153844   -1.354396
    123          6           0       11.236459    7.418769   -0.805415
    124          1           0        9.576510    0.094760    3.535457
    125          1           0       14.154842   -4.151534    1.852843
    126          1           0       15.186444   -0.852693   -3.589324
    127          1           0        9.419389    3.798769    0.355692
    128          1           0        8.399851    2.054767    2.278890
    129          1           0        9.350309    3.249862    3.724937
    130          1           0       10.255590    4.119894    2.397131
    131          1           0       11.090143    2.882777    3.377502
    132          1           0        7.548832    1.694527    0.400461
    133          1           0        8.657867    1.294180   -0.878817
    134          1           0        7.859058    4.106261   -1.086302
    135          1           0        6.357842    3.253099   -0.889209
    136          1           0        9.360422   -3.292433    4.978228
    137          1           0        9.214977   -1.572702    4.607041
    138          1           0       10.375486   -2.143689    5.784938
    139          1           0       13.568038   -5.716573    2.975217
    140          1           0       13.667004   -6.073808    4.709552
    141          1           0       14.457099   -4.697015    4.209844
    142          1           0       15.516857   -4.602170   -0.387381
    143          1           0       16.534047   -2.476722   -2.019493
    144          1           0       17.082685   -3.880583    1.130098
    145          1           0       16.628609   -2.123254    0.852584
    146          1           0       17.607435   -3.002127   -0.280959
    147          1           0       14.457230   -3.782798   -3.712692
    148          1           0       15.050495   -4.820150   -2.464938
    149          1           0       16.664069   -5.474176   -3.910399
    150          1           0       17.355333   -3.872622   -3.732497
    151          1           0       16.097616   -4.146208   -4.986518
    152          1           0       14.663266    0.506179   -5.139608
    153          1           0       15.419597    2.027578   -4.672683
    154          1           0       13.895449    2.114442   -5.580445
    155          1           0       10.328844    4.008508   -2.383731
    156          1           0       11.277822    7.449081    0.283706
    157          1           0       10.570158    8.223895   -1.113836
    158          1           0       12.215061    7.759329   -1.142644
 ---------------------------------------------------------------------

 SCF Done:  E(RwB97XD) =  -4070.60738913     A.U. after   20 cycles

 Excitation energies and oscillator strengths:

 Excited State   1:      Singlet-A      1.6666 eV  743.92 nm  f=0.3577  <S**2>=0.000
     309 -> 315       -0.19748
     312 -> 314        0.68076
     309 <- 315       -0.12063
 This state for optimization and/or second-order correction.
 Total Energy, E(TD-HF/TD-DFT) =  -4070.54614134
 Copying the excited state density for this state as the 1-particle RhoCI density.

 Excited State   2:      Singlet-A      1.7236 eV  719.32 nm  f=0.3848  <S**2>=0.000
     310 -> 316       -0.18632
     311 -> 313        0.68159
     310 <- 316       -0.11194

 Excited State   3:      Singlet-A      2.1685 eV  571.76 nm  f=0.1027  <S**2>=0.000
     310 -> 313        0.63393
     311 -> 316        0.29508

 Excited State   4:      Singlet-A      2.2261 eV  556.95 nm  f=0.0510  <S**2>=0.000
     309 -> 314        0.60363
     312 -> 315        0.35678

 Excited State   5:      Singlet-A      3.7620 eV  329.57 nm  f=0.0000  <S**2>=0.000
     312 -> 313        0.70695

 The electronic state is 1-A.
 Alpha  occ. eigenvalues --  -46.94962 -46.94875 -19.31238 -19.30477 -19.25503
 Alpha  occ. eigenvalues --  -19.24684 -19.23997 -19.23881 -19.23792 -19.23115
 Alpha  occ. eigenvalues --  -14.47175 -14.46659 -14.46608 -14.46491 -14.44467
 Alpha  occ. eigenvalues --  -14.43921 -14.43910 -14.43552 -10.44099 -10.42461
 Alpha  occ. eigenvalues --  -10.40011 -10.39438 -10.38909 -10.38550 -10.35754
 Alpha  occ. eigenvalues --  -10.35696 -10.35474 -10.35287 -10.35216 -10.35103
 Alpha  occ. eigenvalues --  -10.35073 -10.34897 -10.34872 -10.34803 -10.34627
 Alpha  occ. eigenvalues --  -10.34502 -10.34499 -10.33768 -10.33668 -10.33477
 Alpha  occ. eigenvalues --  -10.33195 -10.33124 -10.32823 -10.32780 -10.32717
 Alpha  occ. eigenvalues --  -10.32658 -10.32558 -10.32428 -10.32383 -10.32222
 Alpha  occ. eigenvalues --  -10.32149 -10.32134 -10.32081 -10.32027 -10.32009
 Alpha  occ. eigenvalues --  -10.31875 -10.31875 -10.31873 -10.31849 -10.31754
 Alpha  occ. eigenvalues --  -10.31590 -10.31534 -10.31130 -10.31065 -10.30997
 Alpha  occ. eigenvalues --  -10.30956 -10.30873 -10.30868 -10.30836 -10.30672
 Alpha  occ. eigenvalues --  -10.30438 -10.30435 -10.30321 -10.30298 -10.30062
 Alpha  occ. eigenvalues --  -10.30026 -10.29903 -10.29792 -10.29731 -10.29705
 Alpha  occ. eigenvalues --  -10.29446 -10.29437 -10.29348 -10.29136 -10.29115
 Alpha  occ. eigenvalues --  -10.28641  -3.21008  -3.20904  -1.94573  -1.94496
 Alpha  occ. eigenvalues --   -1.94147  -1.94028  -1.93975  -1.93881  -1.19961
 Alpha  occ. eigenvalues --   -1.18120  -1.14032  -1.12365  -1.11296  -1.10576
 Alpha  occ. eigenvalues --   -1.10412  -1.08644  -1.07495  -1.06713  -1.06211
 Alpha  occ. eigenvalues --   -1.06118  -1.04844  -1.04781  -1.04043  -1.03334
 Alpha  occ. eigenvalues --   -0.94992  -0.93776  -0.91486  -0.90960  -0.90948
 Alpha  occ. eigenvalues --   -0.90774  -0.90698  -0.90389  -0.89709  -0.89507
 Alpha  occ. eigenvalues --   -0.88984  -0.88681  -0.87045  -0.86865  -0.86436
 Alpha  occ. eigenvalues --   -0.86209  -0.86080  -0.85361  -0.84777  -0.84670
 Alpha  occ. eigenvalues --   -0.84397  -0.84376  -0.82949  -0.82766  -0.82759
 Alpha  occ. eigenvalues --   -0.82499  -0.80794  -0.79885  -0.79412  -0.79113
 Alpha  occ. eigenvalues --   -0.78779  -0.78280  -0.78149  -0.78089  -0.77127
 Alpha  occ. eigenvalues --   -0.76975  -0.74812  -0.74192  -0.74045  -0.73806
 Alpha  occ. eigenvalues --   -0.71229  -0.70889  -0.70531  -0.70112  -0.70028
 Alpha  occ. eigenvalues --   -0.69596  -0.68972  -0.68686  -0.67779  -0.67726
 Alpha  occ. eigenvalues --   -0.67495  -0.67195  -0.66875  -0.66797  -0.66412
 Alpha  occ. eigenvalues --   -0.66196  -0.64668  -0.64371  -0.63016  -0.62142
 Alpha  occ. eigenvalues --   -0.61984  -0.61488  -0.61040  -0.60940  -0.60815
 Alpha  occ. eigenvalues --   -0.60464  -0.60423  -0.59780  -0.59643  -0.59643
 Alpha  occ. eigenvalues --   -0.58746  -0.58150  -0.57998  -0.57547  -0.57193
 Alpha  occ. eigenvalues --   -0.56932  -0.56838  -0.56216  -0.56127  -0.55860
 Alpha  occ. eigenvalues --   -0.55769  -0.55552  -0.55417  -0.55037  -0.54906
 Alpha  occ. eigenvalues --   -0.54871  -0.54651  -0.54589  -0.54553  -0.54495
 Alpha  occ. eigenvalues --   -0.54061  -0.54054  -0.53666  -0.53354  -0.52887
 Alpha  occ. eigenvalues --   -0.52747  -0.52554  -0.52412  -0.52321  -0.52023
 Alpha  occ. eigenvalues --   -0.51973  -0.51863  -0.51673  -0.51669  -0.51523
 Alpha  occ. eigenvalues --   -0.51392  -0.51188  -0.51046  -0.50977  -0.50595
 Alpha  occ. eigenvalues --   -0.50544  -0.50459  -0.50200  -0.50126  -0.50015
 Alpha  occ. eigenvalues --   -0.49954  -0.49729  -0.49372  -0.49336  -0.48970
 Alpha  occ. eigenvalues --   -0.48570  -0.48454  -0.48263  -0.48246  -0.48145
 Alpha  occ. eigenvalues --   -0.48007  -0.47970  -0.47824  -0.47766  -0.47529
 Alpha  occ. eigenvalues --   -0.47397  -0.47304  -0.47222  -0.47067  -0.46970
 Alpha  occ. eigenvalues --   -0.46551  -0.46325  -0.46304  -0.46204  -0.46180
 Alpha  occ. eigenvalues --   -0.46032  -0.45931  -0.45733  -0.45462  -0.45195
 Alpha  occ. eigenvalues --   -0.45173  -0.45007  -0.44965  -0.44752  -0.44479
 Alpha  occ. eigenvalues --   -0.44315  -0.44281  -0.44028  -0.43971  -0.43820
 Alpha  occ. eigenvalues --   -0.43629  -0.43585  -0.43460  -0.43301  -0.43157
 Alpha  occ. eigenvalues --   -0.42931  -0.42699  -0.42690  -0.42534  -0.42317
 Alpha  occ. eigenvalues --   -0.42223  -0.41982  -0.41883  -0.41728  -0.41412
 Alpha  occ. eigenvalues --   -0.40831  -0.40354  -0.39874  -0.39873  -0.39395
 Alpha  occ. eigenvalues --   -0.39280  -0.39117  -0.38705  -0.38555  -0.38514
 Alpha  occ. eigenvalues --   -0.38375  -0.37781  -0.36777  -0.36650  -0.36418
 Alpha  occ. eigenvalues --   -0.35672  -0.35526  -0.35152  -0.34130  -0.33823
 Alpha  occ. eigenvalues --   -0.33485  -0.33128  -0.32886  -0.32609  -0.32490
 Alpha  occ. eigenvalues --   -0.32260  -0.31750  -0.30826  -0.26254  -0.25863
 Alpha  occ. eigenvalues --   -0.23012  -0.22734
 Alpha virt. eigenvalues --   -0.06862  -0.06589  -0.00264   0.00056   0.01853
 Alpha virt. eigenvalues --    0.02656   0.04166   0.04668   0.05254   0.05778
 Alpha virt. eigenvalues --    0.06418   0.07548   0.07688   0.08332   0.08532

 Mulliken charges:
               1
     1  Mg   0.972948
     2  C    0.039501
     3  C   -0.094939
     4  C   -0.084697
     5  C   -0.089018
     6  N   -0.280108
     7  C   -0.033581
     8  C   -0.039461
     9  C   -0.125420
    10  C    0.009568
    11  C    0.001849
    12  C   -0.006364
    13  C   -0.125590
    14  H    0.045652
    15  N   -0.445370
    16  C    0.189253
    17  C   -0.135237
    18  C   -0.078090
    19  C    0.173982
    20  C    0.050376
    21  C    0.084144
    22  O   -0.232467
    23  C   -0.006613
    24  N   -0.424874
    25  C    0.030704
    26  C   -0.065424
    27  C   -0.064756
    28  C    0.113660
    29  C    0.012628
    30  C   -0.040738
    31  C   -0.047856
    32  N   -0.454876
    33  C    0.145762
    34  C   -0.198969
    35  C   -0.045482
    36  C    0.123300
    37  C    0.077696
    38  C    0.112922
    39  O   -0.226506
    40  C   -0.113041
    41  C    0.233147
    42  O   -0.268657
    43  O   -0.310199
    44  C    0.148289
    45  H    0.001857
    46  H    0.016051
    47  H   -0.006063
    48  H    0.060590
    49  H    0.045611
    50  H    0.052668
    51  H    0.037826
    52  H    0.037441
    53  H    0.038485
    54  H    0.032782
    55  H    0.062073
    56  H    0.051782
    57  H    0.054679
    58  H    0.035474
    59  H    0.048430
    60  H    0.039577
    61  H    0.049764
    62  H    0.061279
    63  H    0.053999
    64  H    0.031684
    65  H    0.057294
    66  H    0.025280
    67  H    0.035181
    68  H    0.036552
    69  H    0.031266
    70  H    0.037301
    71  H    0.043623
    72  H    0.025480
    73  H    0.056389
    74  H    0.061460
    75  H    0.025379
    76  H    0.075592
    77  H    0.050748
    78  H    0.052215
    79  H    0.053202
    80  Mg   0.956996
    81  C   -0.054763
    82  C   -0.097925
    83  C   -0.052909
    84  C   -0.094258
    85  N   -0.331922
    86  C   -0.023767
    87  C   -0.115232
    88  C   -0.115503
    89  C    0.039269
    90  C    0.060799
    91  C    0.025396
    92  C   -0.134579
    93  H    0.045011
    94  N   -0.518583
    95  C    0.210488
    96  C   -0.172774
    97  C   -0.106148
    98  C    0.151579
    99  C    0.083257
   100  C    0.062147
   101  O   -0.196823
   102  C   -0.021490
   103  N   -0.326669
   104  C    0.062354
   105  C   -0.102036
   106  C   -0.070058
   107  C    0.069740
   108  C    0.021113
   109  C   -0.022406
   110  C   -0.034765
   111  N   -0.429011
   112  C    0.127700
   113  C   -0.206729
   114  C   -0.016912
   115  C    0.192862
   116  C    0.097506
   117  C    0.099154
   118  O   -0.221012
   119  C   -0.022109
   120  C    0.288758
   121  O   -0.244461
   122  O   -0.362496
   123  C    0.139932
   124  H    0.001619
   125  H   -0.029313
   126  H   -0.001645
   127  H    0.017137
   128  H    0.023818
   129  H    0.042844
   130  H    0.038659
   131  H    0.055040
   132  H    0.032989
   133  H    0.055805
   134  H    0.047627
   135  H    0.058985
   136  H    0.056317
   137  H    0.011972
   138  H    0.051423
   139  H    0.070999
   140  H    0.041999
   141  H    0.069438
   142  H    0.033448
   143  H    0.024215
   144  H    0.046085
   145  H    0.041517
   146  H    0.029565
   147  H    0.044077
   148  H    0.016392
   149  H    0.044017
   150  H    0.026228
   151  H    0.041565
   152  H    0.036677
   153  H    0.058155
   154  H    0.066001
   155  H    0.061132
   156  H    0.042243
   157  H    0.050317
   158  H    0.053934
 Sum of Mulliken charges =  -0.00000

 Dipole moment (field-independent basis, Debye):
    X=             -1.4291    Y=              2.9425    Z=              1.2046  Tot=              3.4859
 Quadrupole moment (field-independent basis, Debye-Ang):
   XX=           -396.2574   YY=           -482.6378   ZZ=           -520.8570
   XY=            -93.3543   XZ=              2.2688   YZ=             55.2309

 Normal termination of Gaussian 16 at Mon Sep 20 14:51:29 2021.
