 Gaussian 16, Revision A.03,
 Gaussian 16:  ES64L-G16RevA.03 25-Dec-2016

 --------------------------------
 #p wB97XD/Def2SVP td=(nstates=5)
 --------------------------------

 --------------------------------
 TDDFT excited states in gaussian
 --------------------------------
 Symbolic Z-matrix:
 Charge =  0 Multiplicity = 1

                         Standard orientation:
 ---------------------------------------------------------------------
 Center     Atomic      Atomic             Coordinates (Angstroms)
 Number     Number       Type             X           Y           Z
 ---------------------------------------------------------------------
      1         12           0      -10.338814   -0.012714    0.736388
      2          6           0       -9.590808   -1.196871   -2.409171
      3          6           0       -7.585934   -1.644692    1.929110
      4          6           0      -10.378410    2.087309    3.286104
      5          6           0      -13.103807    1.634044   -0.667353
      6          7           0       -8.539346   -0.886614   -0.294763
      7          6           0       -8.580482   -1.470786   -1.519941
      8          6           0       -7.402773   -2.363720   -1.777018
      9          6           0       -7.072553   -2.798396   -0.312416
     10          6           0       -7.832921   -1.766418    0.507314
     11          6           0       -7.437946   -4.281907   -0.019684
     12          6           0       -6.172172   -1.571006   -2.448710
     13          6           0       -5.307009   -2.410276   -3.499240
     14          1           0       -3.888326   -2.470267   -2.989555
     15          7           0       -9.254126    0.049557    2.472135
     16          6           0       -8.117114   -0.608920    2.787046
     17          6           0       -7.624500   -0.190511    4.093360
     18          6           0       -8.449684    0.873065    4.513007
     19          6           0       -9.416961    1.043489    3.392646
     20          6           0       -6.369419   -0.842160    4.722963
     21          6           0       -8.146353    1.713416    5.722009
     22          8           0       -7.207715    1.430895    6.420138
     23          6           0       -8.930197    2.975188    6.130807
     24          7           0      -11.650288    1.584175    1.348562
     25          6           0      -11.437594    2.263648    2.386295
     26          6           0      -12.339299    3.434500    2.521713
     27          6           0      -13.258311    3.304814    1.244001
     28          6           0      -12.665266    2.131112    0.594028
     29          6           0      -13.057018    3.456061    3.913558
     30          6           0      -13.198761    4.612057    0.325718
     31          6           0      -14.361828    4.824877   -0.707386
     32          7           0      -11.262950    0.150795   -1.101714
     33          6           0      -12.437139    0.771561   -1.487510
     34          6           0      -12.771723    0.424171   -2.840778
     35          6           0      -11.676111   -0.415651   -3.246570
     36          6           0      -10.765644   -0.452655   -2.208164
     37          6           0      -13.974220    0.841257   -3.624607
     38          6           0      -11.184042   -1.206054   -4.321647
     39          8           0      -11.573877   -1.466539   -5.467173
     40          6           0       -9.726346   -1.586125   -3.898932
     41          6           0       -9.549859   -3.030757   -4.229194
     42          8           0       -9.062356   -3.461012   -5.283913
     43          8           0      -10.058295   -3.801365   -3.220251
     44          6           0       -9.916823   -5.237736   -3.589968
     45          1           0       -6.817765   -2.228915    2.440784
     46          1           0      -10.329357    2.801424    4.110103
     47          1           0      -13.879151    2.247871   -1.132143
     48          1           0       -7.822947   -3.193709   -2.343654
     49          1           0       -5.994428   -2.743498   -0.160739
     50          1           0       -6.528151   -4.839451    0.200964
     51          1           0       -7.831275   -4.702656   -0.945662
     52          1           0       -8.190253   -4.283810    0.768448
     53          1           0       -5.493186   -1.064158   -1.763176
     54          1           0       -6.538074   -0.709459   -3.006311
     55          1           0       -5.309379   -1.791571   -4.396749
     56          1           0       -5.658704   -3.386385   -3.833536
     57          1           0       -5.555323   -0.151981    4.944017
     58          1           0       -5.966938   -1.677651    4.149119
     59          1           0       -6.696316   -1.324566    5.643515
     60          1           0       -9.966542    2.770583    6.397559
     61          1           0       -8.897434    3.771844    5.387168
     62          1           0       -8.335945    3.416262    6.931648
     63          1           0      -11.663777    4.282125    2.407144
     64          1           0      -14.301751    3.022355    1.381752
     65          1           0      -12.783598    4.395342    4.393779
     66          1           0      -12.775081    2.602619    4.530465
     67          1           0      -14.135879    3.599952    3.856877
     68          1           0      -12.269029    4.626185   -0.243444
     69          1           0      -13.171608    5.448041    1.023109
     70          1           0      -14.999578    5.707314   -0.663465
     71          1           0      -15.091650    4.020012   -0.631327
     72          1           0      -13.969240    4.808305   -1.724110
     73          1           0      -14.763273    1.353435   -3.074346
     74          1           0      -14.281478   -0.133673   -4.000880
     75          1           0      -13.488062    1.395188   -4.427775
     76          1           0       -8.949933   -0.989095   -4.378495
     77          1           0      -10.598122   -5.468110   -4.408409
     78          1           0      -10.295635   -5.910337   -2.820386
     79          1           0       -8.864155   -5.418737   -3.808293
     80         12           0       10.210130    0.713626   -0.089374
     81          6           0        9.090610   -2.301672    1.245611
     82          6           0        6.945523    1.732922   -0.461166
     83          6           0       11.447637    3.460373   -1.614598
     84          6           0       13.526345   -0.615996   -0.022074
     85          7           0        8.288300   -0.247295    0.249295
     86          6           0        8.048419   -1.458018    0.822038
     87          6           0        6.548409   -1.680109    1.055122
     88          6           0        5.923458   -0.399387    0.344121
     89          6           0        7.171870    0.432339    0.031737
     90          6           0        5.158763   -0.763051   -0.922905
     91          6           0        6.075896   -1.661093    2.552458
     92          6           0        4.846697   -2.459723    2.900570
     93          1           0        3.961513   -2.926651    1.833257
     94          7           0        9.332833    2.372164   -0.823486
     95          6           0        7.943671    2.599232   -0.891642
     96          6           0        7.780055    3.961829   -1.325925
     97          6           0        9.048672    4.521688   -1.621645
     98          6           0       10.027014    3.437617   -1.359106
     99          6           0        6.432165    4.573851   -1.642180
    100          6           0        9.436837    5.872541   -2.056396
    101          8           0       10.546040    6.148984   -2.460888
    102          6           0        8.359733    7.011453   -2.171448
    103          7           0       12.260243    1.461023   -0.604314
    104          6           0       12.459497    2.581844   -1.231022
    105          6           0       13.969576    2.794861   -1.551686
    106          6           0       14.653832    1.559989   -0.994143
    107          6           0       13.436804    0.676791   -0.538919
    108          6           0       14.171837    3.108128   -3.108661
    109          6           0       15.676824    1.882526    0.115516
    110          6           0       17.186755    2.009289   -0.312190
    111          7           0       11.171856   -0.892238    0.683995
    112          6           0       12.523277   -1.316303    0.641367
    113          6           0       12.692300   -2.555815    1.298904
    114          6           0       11.313991   -3.003057    1.473303
    115          6           0       10.478296   -1.910951    1.102683
    116          6           0       13.976720   -3.361549    1.367360
    117          6           0       10.585922   -4.142507    1.894927
    118          8           0       10.940147   -5.228723    2.335756
    119          6           0        8.992643   -3.653814    1.834945
    120          6           0        8.292994   -4.701821    1.020244
    121          8           0        8.586866   -4.995066   -0.143413
    122          8           0        7.327903   -5.431938    1.775485
    123          6           0        6.595959   -6.504464    1.031706
    124          1           0        5.887285    1.989478   -0.551766
    125          1           0       11.742081    4.279872   -2.272973
    126          1           0       14.524177   -1.049145    0.069899
    127          1           0        6.294265   -2.602129    0.531780
    128          1           0        5.217557    0.136386    0.978614
    129          1           0        4.956157   -1.832750   -0.968331
    130          1           0        5.642264   -0.394629   -1.828076
    131          1           0        4.129573   -0.404168   -0.934093
    132          1           0        5.930568   -0.619122    2.835409
    133          1           0        6.937641   -1.957204    3.151033
    134          1           0        4.200207   -1.804494    3.483959
    135          1           0        5.144201   -3.337317    3.474578
    136          1           0        6.297879    4.792567   -2.701480
    137          1           0        6.316918    5.468358   -1.028641
    138          1           0        5.561484    3.954829   -1.426382
    139          1           0        7.865663    6.854846   -3.130688
    140          1           0        8.848299    7.978540   -2.291159
    141          1           0        7.618520    6.928085   -1.377551
    142          1           0       14.211675    3.696058   -0.988053
    143          1           0       15.096300    0.952077   -1.781797
    144          1           0       14.861475    2.393207   -3.557212
    145          1           0       14.662718    4.062353   -3.300968
    146          1           0       13.175590    2.996739   -3.538643
    147          1           0       15.596104    1.072565    0.841319
    148          1           0       15.330880    2.795633    0.600161
    149          1           0       17.615681    1.006626   -0.306038
    150          1           0       17.830216    2.708513    0.222141
    151          1           0       17.069761    2.275618   -1.362115
    152          1           0       14.490736   -2.933035    2.227348
    153          1           0       14.584473   -3.218801    0.474633
    154          1           0       13.872938   -4.446189    1.316973
    155          1           0        8.613738   -3.569952    2.854275
    156          1           0        7.270782   -7.289285    0.691890
    157          1           0        5.997972   -6.219870    0.165548
    158          1           0        5.993055   -6.895462    1.851293
 ---------------------------------------------------------------------

 SCF Done:  E(RwB97XD) =  -4070.62800614     A.U. after   19 cycles

 Excitation energies and oscillator strengths:

 Excited State   1:      Singlet-A      1.6563 eV  748.54 nm  f=0.3629  <S**2>=0.000
     309 -> 315        0.16773
     312 -> 314        0.68562
     309 <- 315        0.10891
 This state for optimization and/or second-order correction.
 Total Energy, E(TD-HF/TD-DFT) =  -4070.56713679
 Copying the excited state density for this state as the 1-particle RhoCI density.

 Excited State   2:      Singlet-A      1.6922 eV  732.68 nm  f=0.3687  <S**2>=0.000
     310 -> 316        0.17796
     311 -> 313        0.68409
     310 <- 316        0.11252

 Excited State   3:      Singlet-A      2.1681 eV  571.84 nm  f=0.1123  <S**2>=0.000
     309 -> 314        0.62607
     310 -> 313        0.12588
     312 -> 315       -0.27679

 Excited State   4:      Singlet-A      2.1737 eV  570.39 nm  f=0.1366  <S**2>=0.000
     309 -> 314       -0.12328
     310 -> 313        0.63476
     311 -> 316       -0.25845

 Excited State   5:      Singlet-A      3.5802 eV  346.30 nm  f=0.0000  <S**2>=0.000
     312 -> 313        0.70694

 The electronic state is 1-A.
 Alpha  occ. eigenvalues --  -46.95723 -46.94326 -19.30872 -19.29359 -19.24761
 Alpha  occ. eigenvalues --  -19.24361 -19.24358 -19.24119 -19.23199 -19.23030
 Alpha  occ. eigenvalues --  -14.47276 -14.46839 -14.46657 -14.46238 -14.45120
 Alpha  occ. eigenvalues --  -14.44843 -14.43899 -14.43286 -10.42904 -10.42633
 Alpha  occ. eigenvalues --  -10.39951 -10.39502 -10.38296 -10.38164 -10.36607
 Alpha  occ. eigenvalues --  -10.36029 -10.35871 -10.35699 -10.35564 -10.35330
 Alpha  occ. eigenvalues --  -10.35312 -10.34924 -10.34860 -10.34839 -10.34829
 Alpha  occ. eigenvalues --  -10.34660 -10.34319 -10.34088 -10.33960 -10.33805
 Alpha  occ. eigenvalues --  -10.32946 -10.32801 -10.32777 -10.32581 -10.32418
 Alpha  occ. eigenvalues --  -10.32417 -10.32407 -10.32314 -10.32266 -10.32196
 Alpha  occ. eigenvalues --  -10.32053 -10.32045 -10.32024 -10.32008 -10.31998
 Alpha  occ. eigenvalues --  -10.31912 -10.31859 -10.31845 -10.31835 -10.31767
 Alpha  occ. eigenvalues --  -10.31655 -10.31647 -10.31590 -10.31509 -10.31494
 Alpha  occ. eigenvalues --  -10.31455 -10.31398 -10.31021 -10.30826 -10.30812
 Alpha  occ. eigenvalues --  -10.30807 -10.30772 -10.30771 -10.30746 -10.30452
 Alpha  occ. eigenvalues --  -10.30270 -10.30270 -10.30245 -10.30234 -10.30148
 Alpha  occ. eigenvalues --  -10.29870 -10.29731 -10.29671 -10.29596 -10.28529
 Alpha  occ. eigenvalues --  -10.28486  -3.21735  -3.20434  -1.95311  -1.94872
 Alpha  occ. eigenvalues --   -1.94698  -1.94044  -1.93557  -1.93424  -1.18218
 Alpha  occ. eigenvalues --   -1.15566  -1.14404  -1.13406  -1.10795  -1.10407
 Alpha  occ. eigenvalues --   -1.09207  -1.08738  -1.08000  -1.07196  -1.06842
 Alpha  occ. eigenvalues --   -1.06133  -1.05937  -1.05386  -1.04964  -1.04532
 Alpha  occ. eigenvalues --   -0.94574  -0.94025  -0.91753  -0.91210  -0.90837
 Alpha  occ. eigenvalues --   -0.90758  -0.90344  -0.90304  -0.89778  -0.89399
 Alpha  occ. eigenvalues --   -0.89395  -0.89095  -0.88672  -0.88180  -0.86372
 Alpha  occ. eigenvalues --   -0.86237  -0.85819  -0.84873  -0.84328  -0.84138
 Alpha  occ. eigenvalues --   -0.83913  -0.83438  -0.82985  -0.82429  -0.82325
 Alpha  occ. eigenvalues --   -0.81977  -0.80787  -0.80493  -0.79975  -0.79171
 Alpha  occ. eigenvalues --   -0.78883  -0.78764  -0.78012  -0.77792  -0.77599
 Alpha  occ. eigenvalues --   -0.76989  -0.75105  -0.74795  -0.74370  -0.73599
 Alpha  occ. eigenvalues --   -0.72522  -0.71557  -0.71487  -0.70898  -0.70291
 Alpha  occ. eigenvalues --   -0.69947  -0.69867  -0.69307  -0.68894  -0.67719
 Alpha  occ. eigenvalues --   -0.67469  -0.67174  -0.67016  -0.66955  -0.66612
 Alpha  occ. eigenvalues --   -0.66607  -0.64524  -0.63380  -0.62731  -0.62418
 Alpha  occ. eigenvalues --   -0.61723  -0.61595  -0.61343  -0.61322  -0.60922
 Alpha  occ. eigenvalues --   -0.60532  -0.60145  -0.59734  -0.59306  -0.59120
 Alpha  occ. eigenvalues --   -0.58727  -0.58273  -0.58251  -0.57800  -0.57073
 Alpha  occ. eigenvalues --   -0.56993  -0.56559  -0.56217  -0.55948  -0.55703
 Alpha  occ. eigenvalues --   -0.55371  -0.55146  -0.55080  -0.54879  -0.54816
 Alpha  occ. eigenvalues --   -0.54484  -0.54431  -0.54281  -0.54219  -0.54095
 Alpha  occ. eigenvalues --   -0.53943  -0.53755  -0.53484  -0.53261  -0.53253
 Alpha  occ. eigenvalues --   -0.52893  -0.52682  -0.52572  -0.52501  -0.52339
 Alpha  occ. eigenvalues --   -0.52128  -0.52018  -0.51815  -0.51762  -0.51632
 Alpha  occ. eigenvalues --   -0.51480  -0.51208  -0.51201  -0.51000  -0.50981
 Alpha  occ. eigenvalues --   -0.50754  -0.50570  -0.50381  -0.50299  -0.50049
 Alpha  occ. eigenvalues --   -0.49862  -0.49720  -0.49592  -0.49511  -0.49414
 Alpha  occ. eigenvalues --   -0.49191  -0.49065  -0.49043  -0.48887  -0.48837
 Alpha  occ. eigenvalues --   -0.48607  -0.48369  -0.48314  -0.47960  -0.47834
 Alpha  occ. eigenvalues --   -0.47740  -0.47487  -0.47242  -0.47030  -0.46934
 Alpha  occ. eigenvalues --   -0.46730  -0.46650  -0.46503  -0.46492  -0.46392
 Alpha  occ. eigenvalues --   -0.46282  -0.46218  -0.46102  -0.46072  -0.45809
 Alpha  occ. eigenvalues --   -0.45438  -0.45278  -0.45262  -0.45029  -0.44940
 Alpha  occ. eigenvalues --   -0.44817  -0.44670  -0.44557  -0.44497  -0.44220
 Alpha  occ. eigenvalues --   -0.43979  -0.43964  -0.43927  -0.43759  -0.43498
 Alpha  occ. eigenvalues --   -0.43449  -0.43261  -0.43178  -0.42802  -0.42679
 Alpha  occ. eigenvalues --   -0.42171  -0.42139  -0.41784  -0.41648  -0.41316
 Alpha  occ. eigenvalues --   -0.40757  -0.40540  -0.40379  -0.39799  -0.39789
 Alpha  occ. eigenvalues --   -0.39239  -0.39043  -0.38969  -0.38902  -0.38591
 Alpha  occ. eigenvalues --   -0.38101  -0.37774  -0.37130  -0.36447  -0.35957
 Alpha  occ. eigenvalues --   -0.35904  -0.35546  -0.35470  -0.34130  -0.33840
 Alpha  occ. eigenvalues --   -0.33744  -0.33150  -0.32944  -0.32741  -0.32153
 Alpha  occ. eigenvalues --   -0.31742  -0.31586  -0.31176  -0.26298  -0.26134
 Alpha  occ. eigenvalues --   -0.23379  -0.23134
 Alpha virt. eigenvalues --   -0.07407  -0.07269  -0.00014   0.00262   0.02143
 Alpha virt. eigenvalues --    0.02250   0.03999   0.04498   0.05002   0.06814
 Alpha virt. eigenvalues --    0.06850   0.06899   0.07896   0.07974   0.08600

 Mulliken charges:
               1
     1  Mg   0.966690
     2  C    0.016066
     3  C   -0.089707
     4  C   -0.073285
     5  C   -0.081457
     6  N   -0.340914
     7  C   -0.050186
     8  C   -0.024306
     9  C   -0.146492
    10  C    0.110991
    11  C    0.045277
    12  C    0.023039
    13  C   -0.129414
    14  H    0.027511
    15  N   -0.460283
    16  C    0.119302
    17  C   -0.139463
    18  C   -0.060459
    19  C    0.167923
    20  C    0.086721
    21  C    0.018497
    22  O   -0.211210
    23  C   -0.019596
    24  N   -0.295305
    25  C    0.031395
    26  C   -0.088011
    27  C   -0.051393
    28  C    0.005449
    29  C    0.018759
    30  C   -0.018563
    31  C   -0.065379
    32  N   -0.451025
    33  C    0.151188
    34  C   -0.200619
    35  C   -0.007511
    36  C    0.105982
    37  C    0.098611
    38  C    0.086019
    39  O   -0.225886
    40  C   -0.061262
    41  C    0.241292
    42  O   -0.257952
    43  O   -0.370149
    44  C    0.138358
    45  H    0.002680
    46  H   -0.045419
    47  H   -0.027003
    48  H    0.026313
    49  H    0.041805
    50  H    0.041513
    51  H    0.030067
    52  H    0.041104
    53  H    0.039883
    54  H    0.032267
    55  H    0.057565
    56  H    0.063480
    57  H    0.069115
    58  H    0.019036
    59  H    0.053199
    60  H    0.067526
    61  H    0.060506
    62  H    0.051502
    63  H    0.046544
    64  H    0.042211
    65  H    0.030621
    66  H    0.057308
    67  H    0.038971
    68  H    0.040853
    69  H    0.036649
    70  H    0.040314
    71  H    0.033181
    72  H    0.044157
    73  H    0.043459
    74  H    0.065244
    75  H    0.064786
    76  H    0.078233
    77  H    0.065146
    78  H    0.047517
    79  H    0.060422
    80  Mg   0.981213
    81  C   -0.071283
    82  C   -0.108072
    83  C   -0.077237
    84  C   -0.077003
    85  N   -0.334111
    86  C    0.003521
    87  C   -0.040095
    88  C   -0.140324
    89  C    0.073042
    90  C    0.018728
    91  C    0.018168
    92  C   -0.105630
    93  H    0.036087
    94  N   -0.531680
    95  C    0.234392
    96  C   -0.151230
    97  C   -0.045531
    98  C    0.152400
    99  C    0.052289
   100  C    0.017284
   101  O   -0.224838
   102  C   -0.005484
   103  N   -0.321161
   104  C    0.055793
   105  C   -0.094077
   106  C   -0.043809
   107  C    0.027672
   108  C    0.014768
   109  C   -0.005362
   110  C   -0.042820
   111  N   -0.449225
   112  C    0.125090
   113  C   -0.138881
   114  C   -0.084734
   115  C    0.187887
   116  C    0.059601
   117  C    0.113563
   118  O   -0.211668
   119  C   -0.083814
   120  C    0.288680
   121  O   -0.260354
   122  O   -0.404855
   123  C    0.141067
   124  H    0.004123
   125  H    0.032170
   126  H    0.000454
   127  H    0.043789
   128  H    0.038738
   129  H    0.033272
   130  H    0.049527
   131  H    0.022970
   132  H    0.024455
   133  H    0.025424
   134  H    0.048779
   135  H    0.067341
   136  H    0.063598
   137  H    0.049829
   138  H    0.030821
   139  H    0.053500
   140  H    0.056010
   141  H    0.038185
   142  H    0.048267
   143  H    0.027418
   144  H    0.030086
   145  H    0.045668
   146  H    0.051265
   147  H    0.026127
   148  H    0.026641
   149  H    0.037036
   150  H    0.054549
   151  H    0.027443
   152  H    0.054104
   153  H    0.037516
   154  H    0.064140
   155  H    0.072164
   156  H    0.058663
   157  H    0.054435
   158  H    0.053521
 Sum of Mulliken charges =  -0.00000

 Dipole moment (field-independent basis, Debye):
    X=             -5.6612    Y=              6.5462    Z=              4.8698  Tot=              9.9306
 Quadrupole moment (field-independent basis, Debye-Ang):
   XX=           -487.8000   YY=           -505.4587   ZZ=           -571.0382
   XY=              7.9314   XZ=            -79.6710   YZ=              0.0244

 Normal termination of Gaussian 16 at Mon Sep 20 07:37:01 2021.
