 Gaussian 16, Revision A.03,
 Gaussian 16:  ES64L-G16RevA.03 25-Dec-2016

 --------------------------------
 #p wB97XD/Def2SVP td=(nstates=5)
 --------------------------------

 --------------------------------
 TDDFT excited states in gaussian
 --------------------------------
 Symbolic Z-matrix:
 Charge =  0 Multiplicity = 1

                         Standard orientation:
 ---------------------------------------------------------------------
 Center     Atomic      Atomic             Coordinates (Angstroms)
 Number     Number       Type             X           Y           Z
 ---------------------------------------------------------------------
      1         12           0      -23.723682    0.483061    0.514434
      2          6           0      -23.187597   -2.450416   -1.207080
      3          6           0      -20.351064    1.021304    0.508145
      4          6           0      -24.381185    3.688437    0.968269
      5          6           0      -27.163707   -0.208687    0.391162
      6          7           0      -22.055115   -0.418074   -0.697548
      7          6           0      -22.033515   -1.712307   -1.108041
      8          6           0      -20.656763   -2.182065   -1.474508
      9          6           0      -19.803852   -1.263099   -0.541186
     10          6           0      -20.805076   -0.186350   -0.149710
     11          6           0      -19.155686   -2.032690    0.645247
     12          6           0      -20.317697   -1.922782   -3.027489
     13          6           0      -19.401142   -3.032320   -3.724157
     14          1           0      -18.142583   -2.356811   -4.209704
     15          7           0      -22.509480    2.084728    0.906381
     16          6           0      -21.167150    2.182016    0.787037
     17          6           0      -20.721762    3.540159    1.072109
     18          6           0      -21.885453    4.318430    1.240468
     19          6           0      -22.999818    3.351956    1.030719
     20          6           0      -19.217873    3.907027    1.072113
     21          6           0      -21.855951    5.817380    1.350769
     22          8           0      -20.797372    6.389058    1.379714
     23          6           0      -23.105444    6.718142    1.382226
     24          7           0      -25.531522    1.621352    0.798649
     25          6           0      -25.518939    2.871414    0.943567
     26          6           0      -26.871183    3.482499    0.925789
     27          6           0      -27.809983    2.224483    0.752584
     28          6           0      -26.816741    1.151101    0.638282
     29          6           0      -27.116806    4.384325    2.182451
     30          6           0      -28.739913    2.342348   -0.542411
     31          6           0      -30.010970    1.422823   -0.607286
     32          7           0      -24.968360   -1.021102   -0.154630
     33          6           0      -26.334249   -1.203668   -0.036617
     34          6           0      -26.708973   -2.517581   -0.480661
     35          6           0      -25.461859   -3.086334   -0.918338
     36          6           0      -24.488606   -2.113387   -0.796852
     37          6           0      -28.071384   -3.132548   -0.479840
     38          6           0      -24.869945   -4.270393   -1.438245
     39          8           0      -25.289694   -5.386596   -1.769836
     40          6           0      -23.414923   -3.847480   -1.828217
     41          6           0      -22.513338   -4.940307   -1.359115
     42          8           0      -22.129994   -5.889773   -2.056806
     43          8           0      -22.224209   -4.764637   -0.034029
     44          6           0      -21.363924   -5.890336    0.427031
     45          1           0      -19.293075    1.228121    0.684485
     46          1           0      -24.566172    4.760229    1.059831
     47          1           0      -28.233556   -0.363558    0.231758
     48          1           0      -20.632966   -3.215236   -1.130273
     49          1           0      -18.961079   -0.866710   -1.107739
     50          1           0      -18.071078   -1.997310    0.547057
     51          1           0      -19.433439   -3.081485    0.535446
     52          1           0      -19.555815   -1.610224    1.566409
     53          1           0      -19.923982   -0.937666   -3.277305
     54          1           0      -21.234824   -1.902258   -3.615301
     55          1           0      -19.973354   -3.334009   -4.601586
     56          1           0      -19.184567   -3.963192   -3.199940
     57          1           0      -18.934439    4.683681    0.361876
     58          1           0      -18.552165    3.054261    0.934427
     59          1           0      -18.975977    4.233770    2.082913
     60          1           0      -23.730595    6.556599    2.259793
     61          1           0      -23.717960    6.649841    0.482842
     62          1           0      -22.712400    7.730843    1.287461
     63          1           0      -26.865855    4.069466    0.007439
     64          1           0      -28.425489    1.916037    1.597296
     65          1           0      -27.338722    5.385149    1.812684
     66          1           0      -26.255888    4.394343    2.851138
     67          1           0      -28.053717    4.181245    2.700925
     68          1           0      -28.157559    2.133946   -1.440174
     69          1           0      -29.042555    3.387773   -0.580553
     70          1           0      -31.011150    1.848988   -0.680586
     71          1           0      -30.092485    0.820360    0.296387
     72          1           0      -29.933585    0.733256   -1.447903
     73          1           0      -28.855211   -2.584261    0.042379
     74          1           0      -27.830725   -4.084258   -0.007812
     75          1           0      -28.203501   -3.290053   -1.550356
     76          1           0      -23.270485   -3.666874   -2.893938
     77          1           0      -21.951575   -6.807542    0.449066
     78          1           0      -21.086977   -5.806133    1.477916
     79          1           0      -20.490129   -5.924173   -0.224025
     80         12           0       23.859924    0.548432   -0.429217
     81          6           0       23.007868   -2.130874    1.830238
     82          6           0       21.928987    2.642977    1.615701
     83          6           0       24.719950    3.025617   -2.405022
     84          6           0       25.472369   -1.766411   -2.493835
     85          7           0       22.581247    0.214238    1.527872
     86          6           0       22.567949   -0.869285    2.348270
     87          6           0       21.970904   -0.546376    3.708312
     88          6           0       21.298909    0.923785    3.502937
     89          6           0       21.942246    1.283956    2.132633
     90          6           0       19.751426    0.951498    3.571646
     91          6           0       23.030657   -0.592349    4.860436
     92          6           0       22.670710   -1.569774    6.009241
     93          1           0       22.418549   -0.831360    7.447176
     94          7           0       23.407991    2.496203   -0.394718
     95          6           0       22.564158    3.242722    0.495681
     96          6           0       22.495064    4.686725    0.169179
     97          6           0       23.363898    4.765569   -0.968111
     98          6           0       23.861598    3.417148   -1.288175
     99          6           0       21.653952    5.718551    0.923392
    100          6           0       23.676032    5.945035   -1.808149
    101          8           0       24.593007    6.022236   -2.618676
    102          6           0       22.877329    7.239345   -1.558058
    103          7           0       25.065531    0.622017   -2.066635
    104          6           0       25.254312    1.774560   -2.748937
    105          6           0       25.913734    1.565455   -4.083765
    106          6           0       26.214309    0.047051   -4.129744
    107          6           0       25.603969   -0.424402   -2.790604
    108          6           0       25.144036    2.118401   -5.264845
    109          6           0       27.832226   -0.221354   -4.166708
    110          6           0       28.362789   -1.160128   -5.381400
    111          7           0       23.968165   -1.573262   -0.517949
    112          6           0       24.751795   -2.348575   -1.406239
    113          6           0       24.692518   -3.742484   -0.951656
    114          6           0       24.146357   -3.637667    0.354638
    115          6           0       23.624536   -2.352620    0.510619
    116          6           0       25.163005   -5.018982   -1.642330
    117          6           0       23.658446   -4.494745    1.471836
    118          8           0       23.645867   -5.733173    1.715934
    119          6           0       23.019307   -3.488803    2.505504
    120          6           0       21.639644   -3.970206    2.845538
    121          8           0       20.845085   -4.367108    2.040842
    122          8           0       21.486176   -3.995024    4.203947
    123          6           0       20.292587   -4.770214    4.627006
    124          1           0       21.211843    3.218833    2.204035
    125          1           0       25.038399    3.804460   -3.101469
    126          1           0       26.001837   -2.501614   -3.103029
    127          1           0       21.164411   -1.264004    3.859122
    128          1           0       21.683520    1.660900    4.208316
    129          1           0       19.324584    1.224072    2.606001
    130          1           0       19.416509    1.653248    4.336611
    131          1           0       19.273581    0.032076    3.910004
    132          1           0       23.165372    0.385229    5.324080
    133          1           0       24.006564   -0.914404    4.496160
    134          1           0       23.499979   -2.216853    6.296261
    135          1           0       21.862904   -2.267238    5.789907
    136          1           0       21.310620    5.444822    1.921538
    137          1           0       20.789965    6.105188    0.382985
    138          1           0       22.317388    6.573847    1.055454
    139          1           0       21.817147    7.073991   -1.749627
    140          1           0       23.256825    8.080024   -2.139851
    141          1           0       23.001903    7.509033   -0.509333
    142          1           0       26.825174    2.164455   -4.103967
    143          1           0       25.693367   -0.434582   -4.956716
    144          1           0       25.593324    3.013345   -5.696204
    145          1           0       24.134619    2.462066   -5.039147
    146          1           0       25.060244    1.326227   -6.009136
    147          1           0       28.226673   -0.675148   -3.258126
    148          1           0       28.405399    0.700000   -4.266636
    149          1           0       27.584699   -1.114257   -6.143607
    150          1           0       28.537651   -2.186204   -5.055226
    151          1           0       29.227380   -0.718422   -5.876174
    152          1           0       25.499952   -5.772103   -0.930293
    153          1           0       26.073692   -4.773411   -2.189871
    154          1           0       24.351232   -5.244748   -2.333968
    155          1           0       23.602256   -3.600067    3.419423
    156          1           0       19.434583   -4.359739    4.094960
    157          1           0       20.171735   -4.494077    5.674386
    158          1           0       20.266068   -5.845659    4.451677
 ---------------------------------------------------------------------

 SCF Done:  E(RwB97XD) =  -4070.58973577     A.U. after   19 cycles

 Excitation energies and oscillator strengths:

 Excited State   1:      Singlet-A      1.6155 eV  767.45 nm  f=0.3659  <S**2>=0.000
     310 -> 315        0.19318
     311 -> 313        0.68202
     310 <- 315        0.12122
 This state for optimization and/or second-order correction.
 Total Energy, E(TD-HF/TD-DFT) =  -4070.53036623
 Copying the excited state density for this state as the 1-particle RhoCI density.

 Excited State   2:      Singlet-A      1.6575 eV  748.03 nm  f=0.3633  <S**2>=0.000
     309 -> 316       -0.16764
     312 -> 314        0.68562
     309 <- 316       -0.10881

 Excited State   3:      Singlet-A      2.1191 eV  585.08 nm  f=0.1303  <S**2>=0.000
     310 -> 313        0.64519
     311 -> 315       -0.27991

 Excited State   4:      Singlet-A      2.1684 eV  571.78 nm  f=0.1043  <S**2>=0.000
     309 -> 314        0.63812
     312 -> 316        0.28224

 Excited State   5:      Singlet-A      3.3518 eV  369.91 nm  f=0.0005  <S**2>=0.000
     304 -> 320       -0.10243
     305 -> 313        0.13853
     307 -> 313        0.64948
     307 -> 317        0.12988

 The electronic state is 1-A.
 Alpha  occ. eigenvalues --  -46.95579 -46.94865 -19.30870 -19.30744 -19.24666
 Alpha  occ. eigenvalues --  -19.24615 -19.24017 -19.23988 -19.23747 -19.22893
 Alpha  occ. eigenvalues --  -14.47250 -14.46692 -14.46510 -14.46505 -14.45371
 Alpha  occ. eigenvalues --  -14.44976 -14.43831 -14.43146 -10.42656 -10.42501
 Alpha  occ. eigenvalues --  -10.39804 -10.39184 -10.39124 -10.38027 -10.36460
 Alpha  occ. eigenvalues --  -10.35915 -10.35888 -10.35689 -10.35677 -10.35628
 Alpha  occ. eigenvalues --  -10.35449 -10.35300 -10.35170 -10.34917 -10.34907
 Alpha  occ. eigenvalues --  -10.34776 -10.34701 -10.34177 -10.33978 -10.33937
 Alpha  occ. eigenvalues --  -10.33659 -10.33295 -10.33126 -10.32959 -10.32920
 Alpha  occ. eigenvalues --  -10.32739 -10.32714 -10.32532 -10.32508 -10.32451
 Alpha  occ. eigenvalues --  -10.32375 -10.32275 -10.32262 -10.32232 -10.32184
 Alpha  occ. eigenvalues --  -10.32122 -10.32031 -10.31869 -10.31865 -10.31859
 Alpha  occ. eigenvalues --  -10.31752 -10.31697 -10.31519 -10.31396 -10.31310
 Alpha  occ. eigenvalues --  -10.31285 -10.31256 -10.31191 -10.31162 -10.30900
 Alpha  occ. eigenvalues --  -10.30719 -10.30678 -10.30667 -10.30609 -10.30604
 Alpha  occ. eigenvalues --  -10.30464 -10.30191 -10.30114 -10.30100 -10.30022
 Alpha  occ. eigenvalues --  -10.29954 -10.29939 -10.29728 -10.29350 -10.29211
 Alpha  occ. eigenvalues --  -10.28388  -3.21591  -3.20941  -1.95167  -1.94729
 Alpha  occ. eigenvalues --   -1.94552  -1.94530  -1.94066  -1.93931  -1.19122
 Alpha  occ. eigenvalues --   -1.18089  -1.14256  -1.12215  -1.10876  -1.10271
 Alpha  occ. eigenvalues --   -1.09291  -1.09067  -1.08607  -1.06698  -1.05985
 Alpha  occ. eigenvalues --   -1.05983  -1.05275  -1.04820  -1.04632  -1.04068
 Alpha  occ. eigenvalues --   -0.94431  -0.93543  -0.91617  -0.90622  -0.90613
 Alpha  occ. eigenvalues --   -0.90363  -0.90143  -0.90004  -0.89360  -0.89253
 Alpha  occ. eigenvalues --   -0.88947  -0.88947  -0.88533  -0.87550  -0.86222
 Alpha  occ. eigenvalues --   -0.85945  -0.85685  -0.85060  -0.84187  -0.83756
 Alpha  occ. eigenvalues --   -0.83700  -0.83339  -0.82838  -0.82619  -0.82291
 Alpha  occ. eigenvalues --   -0.81713  -0.81087  -0.80358  -0.79831  -0.79016
 Alpha  occ. eigenvalues --   -0.78726  -0.78706  -0.77965  -0.77880  -0.77455
 Alpha  occ. eigenvalues --   -0.77170  -0.74654  -0.74551  -0.74228  -0.73403
 Alpha  occ. eigenvalues --   -0.72393  -0.71339  -0.71160  -0.70660  -0.70147
 Alpha  occ. eigenvalues --   -0.69687  -0.69534  -0.69105  -0.68758  -0.67829
 Alpha  occ. eigenvalues --   -0.67605  -0.67314  -0.66872  -0.66471  -0.66411
 Alpha  occ. eigenvalues --   -0.66018  -0.64392  -0.64344  -0.62842  -0.62587
 Alpha  occ. eigenvalues --   -0.61578  -0.61221  -0.61196  -0.60780  -0.60738
 Alpha  occ. eigenvalues --   -0.60330  -0.60002  -0.59925  -0.59132  -0.58979
 Alpha  occ. eigenvalues --   -0.58593  -0.58152  -0.58117  -0.57657  -0.57258
 Alpha  occ. eigenvalues --   -0.56948  -0.56939  -0.56463  -0.56080  -0.55721
 Alpha  occ. eigenvalues --   -0.55556  -0.55349  -0.54940  -0.54672  -0.54629
 Alpha  occ. eigenvalues --   -0.54521  -0.54342  -0.54141  -0.53950  -0.53621
 Alpha  occ. eigenvalues --   -0.53614  -0.53336  -0.53287  -0.53127  -0.53120
 Alpha  occ. eigenvalues --   -0.52775  -0.52541  -0.52425  -0.52412  -0.52180
 Alpha  occ. eigenvalues --   -0.51977  -0.51893  -0.51857  -0.51709  -0.51670
 Alpha  occ. eigenvalues --   -0.51408  -0.51162  -0.51070  -0.50850  -0.50730
 Alpha  occ. eigenvalues --   -0.50612  -0.50250  -0.50211  -0.50050  -0.49943
 Alpha  occ. eigenvalues --   -0.49714  -0.49578  -0.49538  -0.49417  -0.49366
 Alpha  occ. eigenvalues --   -0.48978  -0.48896  -0.48773  -0.48750  -0.48486
 Alpha  occ. eigenvalues --   -0.48215  -0.48172  -0.48130  -0.47873  -0.47820
 Alpha  occ. eigenvalues --   -0.47689  -0.47488  -0.47338  -0.47093  -0.46905
 Alpha  occ. eigenvalues --   -0.46743  -0.46678  -0.46573  -0.46359  -0.46339
 Alpha  occ. eigenvalues --   -0.46258  -0.46142  -0.46031  -0.45947  -0.45786
 Alpha  occ. eigenvalues --   -0.45721  -0.45295  -0.45273  -0.45119  -0.44886
 Alpha  occ. eigenvalues --   -0.44768  -0.44542  -0.44529  -0.44188  -0.44088
 Alpha  occ. eigenvalues --   -0.44012  -0.43841  -0.43823  -0.43507  -0.43352
 Alpha  occ. eigenvalues --   -0.43260  -0.43118  -0.42707  -0.42672  -0.42603
 Alpha  occ. eigenvalues --   -0.42382  -0.42067  -0.41985  -0.41518  -0.41304
 Alpha  occ. eigenvalues --   -0.40586  -0.40515  -0.40234  -0.40170  -0.39624
 Alpha  occ. eigenvalues --   -0.39445  -0.39334  -0.38896  -0.38772  -0.38522
 Alpha  occ. eigenvalues --   -0.38416  -0.37509  -0.36982  -0.36640  -0.36393
 Alpha  occ. eigenvalues --   -0.35814  -0.35338  -0.35252  -0.33983  -0.33860
 Alpha  occ. eigenvalues --   -0.33597  -0.32966  -0.32800  -0.32597  -0.32479
 Alpha  occ. eigenvalues --   -0.32016  -0.31502  -0.31037  -0.26153  -0.25819
 Alpha  occ. eigenvalues --   -0.23112  -0.22992
 Alpha virt. eigenvalues --   -0.07346  -0.07123   0.00070   0.00129   0.02172
 Alpha virt. eigenvalues --    0.02287   0.04142   0.04150   0.05132   0.06565
 Alpha virt. eigenvalues --    0.06790   0.06960   0.07721   0.07902   0.08120

 Mulliken charges:
               1
     1  Mg   0.966807
     2  C    0.015933
     3  C   -0.089497
     4  C   -0.073421
     5  C   -0.081626
     6  N   -0.340869
     7  C   -0.050080
     8  C   -0.024397
     9  C   -0.146520
    10  C    0.111192
    11  C    0.045236
    12  C    0.022908
    13  C   -0.129955
    14  H    0.028877
    15  N   -0.460519
    16  C    0.119240
    17  C   -0.139240
    18  C   -0.060632
    19  C    0.168471
    20  C    0.086711
    21  C    0.018649
    22  O   -0.211094
    23  C   -0.019639
    24  N   -0.295315
    25  C    0.031440
    26  C   -0.087915
    27  C   -0.051454
    28  C    0.005416
    29  C    0.018799
    30  C   -0.018485
    31  C   -0.065374
    32  N   -0.451149
    33  C    0.151312
    34  C   -0.200793
    35  C   -0.007543
    36  C    0.105941
    37  C    0.098569
    38  C    0.085864
    39  O   -0.226189
    40  C   -0.061215
    41  C    0.241338
    42  O   -0.258061
    43  O   -0.370127
    44  C    0.138505
    45  H    0.002861
    46  H   -0.045500
    47  H   -0.027221
    48  H    0.025990
    49  H    0.042451
    50  H    0.041607
    51  H    0.029865
    52  H    0.040803
    53  H    0.040678
    54  H    0.032343
    55  H    0.057564
    56  H    0.062932
    57  H    0.069791
    58  H    0.019226
    59  H    0.052821
    60  H    0.067220
    61  H    0.060697
    62  H    0.051510
    63  H    0.046681
    64  H    0.041960
    65  H    0.030578
    66  H    0.057201
    67  H    0.038728
    68  H    0.041066
    69  H    0.036553
    70  H    0.040115
    71  H    0.033041
    72  H    0.044205
    73  H    0.043263
    74  H    0.065022
    75  H    0.064745
    76  H    0.078461
    77  H    0.064891
    78  H    0.047289
    79  H    0.060463
    80  Mg   0.990424
    81  C   -0.017280
    82  C   -0.078479
    83  C   -0.086341
    84  C   -0.079796
    85  N   -0.298095
    86  C   -0.020024
    87  C   -0.052913
    88  C   -0.107215
    89  C    0.010900
    90  C    0.015719
    91  C    0.042948
    92  C   -0.139025
    93  H   -0.009658
    94  N   -0.512283
    95  C    0.177266
    96  C   -0.130229
    97  C   -0.070966
    98  C    0.182114
    99  C    0.070237
   100  C    0.029654
   101  O   -0.236664
   102  C   -0.016489
   103  N   -0.420686
   104  C    0.093747
   105  C   -0.078874
   106  C   -0.074190
   107  C    0.102096
   108  C    0.012659
   109  C   -0.031822
   110  C   -0.079637
   111  N   -0.424355
   112  C    0.112318
   113  C   -0.186438
   114  C   -0.110807
   115  C    0.145448
   116  C    0.092643
   117  C    0.193653
   118  O   -0.247695
   119  C   -0.086780
   120  C    0.237152
   121  O   -0.214983
   122  O   -0.372153
   123  C    0.133770
   124  H   -0.004496
   125  H    0.020935
   126  H   -0.003295
   127  H    0.041529
   128  H    0.042918
   129  H    0.048265
   130  H    0.034619
   131  H    0.041311
   132  H    0.049073
   133  H    0.046167
   134  H    0.054716
   135  H    0.060340
   136  H    0.047039
   137  H    0.062946
   138  H    0.044835
   139  H    0.052808
   140  H    0.053687
   141  H    0.038468
   142  H    0.046251
   143  H    0.048438
   144  H    0.040259
   145  H    0.042087
   146  H    0.029154
   147  H    0.043050
   148  H    0.034665
   149  H    0.027525
   150  H    0.051971
   151  H    0.040932
   152  H    0.063936
   153  H    0.026456
   154  H    0.068710
   155  H    0.067096
   156  H    0.050140
   157  H    0.052101
   158  H    0.076492
 Sum of Mulliken charges =  -0.00000

 Dipole moment (field-independent basis, Debye):
    X=             -2.4682    Y=              9.4759    Z=              4.5504  Tot=             10.7977
 Quadrupole moment (field-independent basis, Debye-Ang):
   XX=           -459.1974   YY=           -569.7933   ZZ=           -495.4591
   XY=            -59.4285   XZ=            -75.9195   YZ=             -8.5464

 Normal termination of Gaussian 16 at Mon Sep 20 07:41:37 2021.
