 Gaussian 16, Revision A.03,
 Gaussian 16:  ES64L-G16RevA.03 25-Dec-2016

 --------------------------------
 #p wB97XD/Def2SVP td=(nstates=5)
 --------------------------------

 --------------------------------
 TDDFT excited states in gaussian
 --------------------------------
 Symbolic Z-matrix:
 Charge =  0 Multiplicity = 1

                         Standard orientation:
 ---------------------------------------------------------------------
 Center     Atomic      Atomic             Coordinates (Angstroms)
 Number     Number       Type             X           Y           Z
 ---------------------------------------------------------------------
      1         12           0       26.907813   -0.725460    0.181510
      2          6           0       27.803811    2.239052   -1.528696
      3          6           0       24.303022    0.989842    1.659507
      4          6           0       26.250997   -3.491563    2.025118
      5          6           0       29.691599   -2.364750   -1.179619
      6          7           0       26.288493    1.398226    0.089778
      7          6           0       26.648207    2.379681   -0.830762
      8          6           0       25.733409    3.664823   -0.693037
      9          6           0       24.837743    3.288763    0.517284
     10          6           0       25.176864    1.815324    0.835679
     11          6           0       24.934382    4.174194    1.815670
     12          6           0       25.021330    4.175408   -2.012108
     13          6           0       25.371753    5.572322   -2.427078
     14          1           0       24.199418    6.423895   -3.057114
     15          7           0       25.498955   -1.124499    1.604493
     16          6           0       24.457528   -0.336191    2.050302
     17          6           0       23.707898   -1.055491    3.068320
     18          6           0       24.233491   -2.370700    3.212450
     19          6           0       25.381582   -2.395684    2.233177
     20          6           0       22.430508   -0.515394    3.742292
     21          6           0       23.764003   -3.526770    4.089710
     22          8           0       24.248638   -4.639211    4.058425
     23          6           0       22.521932   -3.454064    5.069484
     24          7           0       27.914412   -2.644422    0.460570
     25          6           0       27.443574   -3.591502    1.261341
     26          6           0       28.319773   -4.893807    1.212456
     27          6           0       29.316696   -4.586847    0.025800
     28          6           0       28.951611   -3.104629   -0.288886
     29          6           0       28.928383   -5.239740    2.602194
     30          6           0       29.163610   -5.569049   -1.118654
     31          6           0       30.487561   -6.031727   -1.724302
     32          7           0       28.559147   -0.228425   -0.986979
     33          6           0       29.556378   -1.005749   -1.544162
     34          6           0       30.417758   -0.130899   -2.278444
     35          6           0       29.779541    1.131891   -2.354382
     36          6           0       28.620051    1.050533   -1.533811
     37          6           0       31.695505   -0.508311   -2.926753
     38          6           0       29.833754    2.464019   -2.981433
     39          8           0       30.686846    3.034288   -3.655173
     40          6           0       28.409604    3.244370   -2.431429
     41          6           0       28.754780    4.460095   -1.763028
     42          8           0       28.738026    4.615293   -0.561195
     43          8           0       28.979087    5.470424   -2.670713
     44          6           0       29.396525    6.739075   -2.023434
     45          1           0       23.397230    1.455233    2.054204
     46          1           0       26.115597   -4.391394    2.627931
     47          1           0       30.480902   -2.974496   -1.625676
     48          1           0       26.396901    4.416311   -0.266441
     49          1           0       23.784712    3.306100    0.236191
     50          1           0       23.916265    4.289192    2.188886
     51          1           0       25.385728    5.129300    1.548166
     52          1           0       25.537121    3.738974    2.613030
     53          1           0       23.952088    4.057136   -1.835965
     54          1           0       25.350021    3.519538   -2.818450
     55          1           0       26.159550    5.544647   -3.181026
     56          1           0       25.748974    6.020988   -1.508542
     57          1           0       21.629248   -1.159012    3.380934
     58          1           0       22.197103    0.464187    3.324432
     59          1           0       22.420662   -0.540111    4.832676
     60          1           0       21.648943   -3.167568    4.482053
     61          1           0       22.743918   -2.922411    5.995250
     62          1           0       22.465936   -4.450285    5.507221
     63          1           0       27.765910   -5.778670    0.899484
     64          1           0       30.312816   -4.587331    0.468786
     65          1           0       29.999334   -5.401096    2.475947
     66          1           0       28.429175   -6.072443    3.098316
     67          1           0       28.799000   -4.395578    3.277523
     68          1           0       28.536225   -5.175099   -1.917540
     69          1           0       28.605955   -6.471310   -0.862804
     70          1           0       31.325081   -5.444009   -1.348330
     71          1           0       30.408061   -5.856251   -2.797511
     72          1           0       30.637324   -7.107134   -1.627244
     73          1           0       32.024585   -1.542170   -2.822609
     74          1           0       32.401422    0.287805   -2.687094
     75          1           0       31.421952   -0.556077   -3.981059
     76          1           0       27.773549    3.464435   -3.289286
     77          1           0       30.317673    6.581909   -1.461852
     78          1           0       28.541989    7.070067   -1.433310
     79          1           0       29.635257    7.523188   -2.740897
     80         12           0      -27.929309    0.335556   -0.525756
     81          6           0      -24.622901    0.356202    0.813248
     82          6           0      -26.889898   -2.112369   -2.510517
     83          6           0      -31.157078   -0.462571   -1.130737
     84          6           0      -28.832167    2.222513    2.359455
     85          7           0      -26.023295   -0.628883   -0.884383
     86          6           0      -24.757248   -0.422448   -0.294873
     87          6           0      -23.644754   -1.339743   -0.893435
     88          6           0      -24.433557   -2.081265   -2.009651
     89          6           0      -25.864484   -1.520061   -1.870146
     90          6           0      -23.707681   -1.818548   -3.339614
     91          6           0      -22.908825   -2.346192    0.092623
     92          6           0      -21.426367   -2.097471    0.345562
     93          1           0      -20.451697   -3.256219    0.051975
     94          7           0      -28.898998   -0.986424   -1.699753
     95          6           0      -28.255495   -1.956039   -2.468526
     96          6           0      -29.181312   -2.636561   -3.280561
     97          6           0      -30.434253   -2.102820   -3.041679
     98          6           0      -30.248356   -1.172454   -1.946585
     99          6           0      -28.919112   -3.778120   -4.331740
    100          6           0      -31.669065   -2.528092   -3.801070
    101          8           0      -31.659115   -3.264890   -4.741912
    102          6           0      -33.035407   -1.807509   -3.356597
    103          7           0      -29.744009    0.743409    0.502175
    104          6           0      -30.948516    0.322246    0.008366
    105          6           0      -32.049639    0.726524    1.072035
    106          6           0      -31.381627    1.663534    2.092130
    107          6           0      -29.874201    1.535971    1.649421
    108          6           0      -33.347565    1.207116    0.487735
    109          6           0      -31.545711    1.088482    3.493502
    110          6           0      -31.447077    2.047837    4.649743
    111          7           0      -26.916536    1.354203    1.117060
    112          6           0      -27.417803    2.085699    2.167231
    113          6           0      -26.358604    2.593438    2.961211
    114          6           0      -25.166680    2.018328    2.460429
    115          6           0      -25.611294    1.175083    1.403246
    116          6           0      -26.463548    3.416045    4.182300
    117          6           0      -23.711059    1.848638    2.564267
    118          8           0      -22.920670    2.414556    3.331432
    119          6           0      -23.273555    0.782531    1.487858
    120          6           0      -22.503685    1.435649    0.462966
    121          8           0      -23.054971    2.159774   -0.399415
    122          8           0      -21.207587    1.142450    0.686580
    123          6           0      -20.202137    1.530221   -0.340416
    124          1           0      -26.574111   -2.894086   -3.205029
    125          1           0      -32.189804   -0.694567   -1.399702
    126          1           0      -29.037020    2.903768    3.187541
    127          1           0      -22.869601   -0.725527   -1.351564
    128          1           0      -24.505718   -3.156767   -1.850692
    129          1           0      -24.353302   -2.200107   -4.130089
    130          1           0      -22.729320   -2.286240   -3.449139
    131          1           0      -23.542447   -0.755670   -3.519477
    132          1           0      -22.914676   -3.291220   -0.450547
    133          1           0      -23.468401   -2.434135    1.023944
    134          1           0      -21.323769   -1.789382    1.386633
    135          1           0      -21.086998   -1.281681   -0.293704
    136          1           0      -29.588811   -4.591820   -4.052611
    137          1           0      -27.888602   -4.131691   -4.301774
    138          1           0      -29.012122   -3.491074   -5.379112
    139          1           0      -33.786525   -2.138245   -4.073287
    140          1           0      -32.781384   -0.748836   -3.414478
    141          1           0      -33.161546   -2.176925   -2.338938
    142          1           0      -32.280320   -0.221393    1.559461
    143          1           0      -31.724965    2.697860    2.109257
    144          1           0      -33.797359    1.910698    1.187745
    145          1           0      -33.961513    0.316158    0.354471
    146          1           0      -33.266301    1.610628   -0.520885
    147          1           0      -30.858030    0.268628    3.702965
    148          1           0      -32.491863    0.560684    3.613020
    149          1           0      -31.461241    3.091946    4.337645
    150          1           0      -30.507751    1.849138    5.166173
    151          1           0      -32.181926    1.804221    5.416980
    152          1           0      -27.362888    4.032701    4.176976
    153          1           0      -25.571654    4.043094    4.187355
    154          1           0      -26.530849    2.703734    5.004924
    155          1           0      -22.799687   -0.110425    1.895535
    156          1           0      -19.349129    1.747926    0.303951
    157          1           0      -20.509688    2.364583   -0.970088
    158          1           0      -19.842895    0.662945   -0.895409
 ---------------------------------------------------------------------

 SCF Done:  E(RwB97XD) =  -4070.61120335     A.U. after   19 cycles

 Excitation energies and oscillator strengths:

 Excited State   1:      Singlet-A      1.6724 eV  741.38 nm  f=0.3869  <S**2>=0.000
     309 -> 316       -0.17579
     312 -> 313        0.68537
     309 <- 316       -0.11223
 This state for optimization and/or second-order correction.
 Total Energy, E(TD-HF/TD-DFT) =  -4070.54974550
 Copying the excited state density for this state as the 1-particle RhoCI density.

 Excited State   2:      Singlet-A      1.7609 eV  704.10 nm  f=0.3726  <S**2>=0.000
     310 -> 315       -0.17863
     311 -> 314        0.68335
     310 <- 315       -0.10773

 Excited State   3:      Singlet-A      2.2043 eV  562.47 nm  f=0.1144  <S**2>=0.000
     309 -> 313        0.63532
     312 -> 316        0.29120

 Excited State   4:      Singlet-A      2.2095 eV  561.14 nm  f=0.1118  <S**2>=0.000
     310 -> 314        0.63739
     311 -> 315        0.28429

 Excited State   5:      Singlet-A      3.2886 eV  377.01 nm  f=0.0022  <S**2>=0.000
     302 -> 313        0.11943
     307 -> 313        0.66480

 The electronic state is 1-A.
 Alpha  occ. eigenvalues --  -46.94894 -46.94583 -19.31730 -19.29487 -19.24967
 Alpha  occ. eigenvalues --  -19.24723 -19.24614 -19.24360 -19.24081 -19.23796
 Alpha  occ. eigenvalues --  -14.47204 -14.46900 -14.46803 -14.46344 -14.45017
 Alpha  occ. eigenvalues --  -14.44195 -14.43279 -14.43069 -10.43356 -10.42073
 Alpha  occ. eigenvalues --  -10.40459 -10.39970 -10.39504 -10.39429 -10.36670
 Alpha  occ. eigenvalues --  -10.36608 -10.36175 -10.35733 -10.35535 -10.35364
 Alpha  occ. eigenvalues --  -10.35288 -10.35126 -10.34962 -10.34631 -10.34543
 Alpha  occ. eigenvalues --  -10.34464 -10.34150 -10.33750 -10.33724 -10.33083
 Alpha  occ. eigenvalues --  -10.33035 -10.32668 -10.32661 -10.32591 -10.32440
 Alpha  occ. eigenvalues --  -10.32438 -10.32390 -10.32225 -10.32092 -10.32017
 Alpha  occ. eigenvalues --  -10.31997 -10.31994 -10.31912 -10.31858 -10.31826
 Alpha  occ. eigenvalues --  -10.31670 -10.31668 -10.31642 -10.31400 -10.31360
 Alpha  occ. eigenvalues --  -10.31307 -10.31170 -10.31159 -10.31088 -10.31013
 Alpha  occ. eigenvalues --  -10.30989 -10.30887 -10.30696 -10.30660 -10.30597
 Alpha  occ. eigenvalues --  -10.30352 -10.30305 -10.30296 -10.30268 -10.30132
 Alpha  occ. eigenvalues --  -10.30080 -10.29881 -10.29716 -10.29688 -10.29678
 Alpha  occ. eigenvalues --  -10.29288 -10.29086 -10.28994 -10.28920 -10.28879
 Alpha  occ. eigenvalues --  -10.28846  -3.20933  -3.20548  -1.94499  -1.94146
 Alpha  occ. eigenvalues --   -1.94038  -1.93925  -1.93664  -1.93526  -1.18832
 Alpha  occ. eigenvalues --   -1.17957  -1.14252  -1.13799  -1.11438  -1.10900
 Alpha  occ. eigenvalues --   -1.09581  -1.09558  -1.06176  -1.06086  -1.05264
 Alpha  occ. eigenvalues --   -1.04870  -1.04544  -1.03966  -1.03783  -1.02943
 Alpha  occ. eigenvalues --   -0.94186  -0.93757  -0.91537  -0.91237  -0.90989
 Alpha  occ. eigenvalues --   -0.90705  -0.90296  -0.90014  -0.89310  -0.89263
 Alpha  occ. eigenvalues --   -0.88826  -0.88655  -0.88444  -0.87475  -0.86742
 Alpha  occ. eigenvalues --   -0.86281  -0.86150  -0.85504  -0.85210  -0.84417
 Alpha  occ. eigenvalues --   -0.83858  -0.83128  -0.83000  -0.82663  -0.82284
 Alpha  occ. eigenvalues --   -0.82057  -0.80454  -0.79672  -0.79357  -0.78832
 Alpha  occ. eigenvalues --   -0.78636  -0.78356  -0.78190  -0.77658  -0.77122
 Alpha  occ. eigenvalues --   -0.76682  -0.74751  -0.74215  -0.73732  -0.73292
 Alpha  occ. eigenvalues --   -0.71268  -0.71097  -0.70743  -0.70539  -0.69739
 Alpha  occ. eigenvalues --   -0.69432  -0.69261  -0.69148  -0.67678  -0.67532
 Alpha  occ. eigenvalues --   -0.67518  -0.67028  -0.66745  -0.66606  -0.66586
 Alpha  occ. eigenvalues --   -0.66350  -0.64239  -0.63126  -0.62208  -0.62092
 Alpha  occ. eigenvalues --   -0.61634  -0.61411  -0.61158  -0.60772  -0.60483
 Alpha  occ. eigenvalues --   -0.60217  -0.59944  -0.59751  -0.59167  -0.59010
 Alpha  occ. eigenvalues --   -0.58401  -0.58015  -0.57948  -0.57666  -0.56988
 Alpha  occ. eigenvalues --   -0.56717  -0.56647  -0.56223  -0.56132  -0.55793
 Alpha  occ. eigenvalues --   -0.55619  -0.55238  -0.55170  -0.55123  -0.54952
 Alpha  occ. eigenvalues --   -0.54845  -0.54499  -0.54451  -0.54380  -0.54050
 Alpha  occ. eigenvalues --   -0.53651  -0.53614  -0.53417  -0.53318  -0.53167
 Alpha  occ. eigenvalues --   -0.53044  -0.52778  -0.52504  -0.52473  -0.52293
 Alpha  occ. eigenvalues --   -0.52101  -0.52048  -0.51954  -0.51775  -0.51522
 Alpha  occ. eigenvalues --   -0.51454  -0.51356  -0.51192  -0.50907  -0.50634
 Alpha  occ. eigenvalues --   -0.50565  -0.50406  -0.50184  -0.49994  -0.49963
 Alpha  occ. eigenvalues --   -0.49915  -0.49677  -0.49481  -0.49475  -0.49435
 Alpha  occ. eigenvalues --   -0.48914  -0.48694  -0.48388  -0.48333  -0.48261
 Alpha  occ. eigenvalues --   -0.48125  -0.48052  -0.47917  -0.47598  -0.47467
 Alpha  occ. eigenvalues --   -0.47265  -0.47100  -0.47076  -0.46905  -0.46753
 Alpha  occ. eigenvalues --   -0.46705  -0.46659  -0.46414  -0.46265  -0.46090
 Alpha  occ. eigenvalues --   -0.45962  -0.45876  -0.45764  -0.45478  -0.45461
 Alpha  occ. eigenvalues --   -0.45272  -0.45193  -0.45157  -0.45011  -0.44983
 Alpha  occ. eigenvalues --   -0.44737  -0.44537  -0.44301  -0.44248  -0.44193
 Alpha  occ. eigenvalues --   -0.43893  -0.43854  -0.43602  -0.43574  -0.43405
 Alpha  occ. eigenvalues --   -0.43134  -0.42530  -0.42463  -0.42204  -0.42127
 Alpha  occ. eigenvalues --   -0.42020  -0.41937  -0.41566  -0.41311  -0.41112
 Alpha  occ. eigenvalues --   -0.40602  -0.40413  -0.40144  -0.39651  -0.39599
 Alpha  occ. eigenvalues --   -0.39272  -0.39207  -0.38896  -0.38795  -0.38225
 Alpha  occ. eigenvalues --   -0.37957  -0.37839  -0.36258  -0.36165  -0.36165
 Alpha  occ. eigenvalues --   -0.35782  -0.35332  -0.35218  -0.34043  -0.33916
 Alpha  occ. eigenvalues --   -0.33496  -0.33005  -0.32883  -0.32756  -0.32684
 Alpha  occ. eigenvalues --   -0.32181  -0.31085  -0.30752  -0.26232  -0.26019
 Alpha  occ. eigenvalues --   -0.23155  -0.23087
 Alpha virt. eigenvalues --   -0.07115  -0.06838   0.00151   0.00205   0.02092
 Alpha virt. eigenvalues --    0.02633   0.04212   0.04767   0.05426   0.06016
 Alpha virt. eigenvalues --    0.06734   0.06923   0.07202   0.07912   0.08076

 Mulliken charges:
               1
     1  Mg   0.955398
     2  C    0.013532
     3  C   -0.100375
     4  C   -0.065530
     5  C   -0.066946
     6  N   -0.380731
     7  C   -0.011730
     8  C   -0.052083
     9  C   -0.156840
    10  C    0.113119
    11  C    0.022928
    12  C    0.049744
    13  C   -0.135348
    14  H    0.029610
    15  N   -0.509803
    16  C    0.184522
    17  C   -0.168101
    18  C   -0.051409
    19  C    0.184534
    20  C    0.065869
    21  C    0.037422
    22  O   -0.218194
    23  C   -0.019024
    24  N   -0.317941
    25  C    0.037583
    26  C   -0.121175
    27  C   -0.060601
    28  C    0.021327
    29  C    0.018078
    30  C    0.000718
    31  C   -0.057011
    32  N   -0.464053
    33  C    0.166256
    34  C   -0.208556
    35  C   -0.042245
    36  C    0.161643
    37  C    0.091186
    38  C    0.152354
    39  O   -0.199076
    40  C   -0.162819
    41  C    0.269597
    42  O   -0.250531
    43  O   -0.372357
    44  C    0.150462
    45  H   -0.008622
    46  H    0.020412
    47  H   -0.018293
    48  H    0.051699
    49  H    0.032777
    50  H    0.036893
    51  H    0.043472
    52  H    0.050796
    53  H    0.038833
    54  H    0.034435
    55  H    0.066026
    56  H    0.050597
    57  H    0.052538
    58  H    0.034067
    59  H    0.066421
    60  H    0.061581
    61  H    0.055642
    62  H    0.047370
    63  H    0.040336
    64  H    0.034398
    65  H    0.035218
    66  H    0.050593
    67  H    0.041490
    68  H    0.030947
    69  H    0.027950
    70  H    0.041064
    71  H    0.031087
    72  H    0.041226
    73  H    0.019058
    74  H    0.070177
    75  H    0.044826
    76  H    0.079935
    77  H    0.060092
    78  H    0.049460
    79  H    0.052096
    80  Mg   0.984613
    81  C   -0.043716
    82  C   -0.132138
    83  C   -0.102564
    84  C   -0.063477
    85  N   -0.377766
    86  C    0.011693
    87  C   -0.047471
    88  C   -0.123591
    89  C    0.121283
    90  C    0.014122
    91  C    0.012308
    92  C   -0.135718
    93  H    0.033895
    94  N   -0.504935
    95  C    0.212754
    96  C   -0.172135
    97  C   -0.054833
    98  C    0.150116
    99  C    0.105717
   100  C    0.008159
   101  O   -0.195235
   102  C   -0.027804
   103  N   -0.393413
   104  C    0.110632
   105  C   -0.081182
   106  C   -0.082584
   107  C    0.108002
   108  C    0.029370
   109  C   -0.045300
   110  C   -0.025580
   111  N   -0.385852
   112  C    0.093644
   113  C   -0.223156
   114  C    0.000592
   115  C    0.116455
   116  C    0.079656
   117  C    0.128995
   118  O   -0.222415
   119  C   -0.072020
   120  C    0.292221
   121  O   -0.279920
   122  O   -0.349466
   123  C    0.124674
   124  H   -0.016764
   125  H   -0.040268
   126  H   -0.012805
   127  H    0.028338
   128  H    0.045434
   129  H    0.027686
   130  H    0.042782
   131  H    0.043023
   132  H    0.041045
   133  H    0.048470
   134  H    0.069466
   135  H    0.033010
   136  H    0.061846
   137  H    0.011506
   138  H    0.062703
   139  H    0.058170
   140  H    0.066199
   141  H    0.068501
   142  H    0.046811
   143  H    0.038429
   144  H    0.041340
   145  H    0.031661
   146  H    0.038553
   147  H    0.030393
   148  H    0.021533
   149  H    0.036072
   150  H    0.030054
   151  H    0.032975
   152  H    0.030620
   153  H    0.066792
   154  H    0.060799
   155  H    0.055696
   156  H    0.061730
   157  H    0.085140
   158  H    0.056432
 Sum of Mulliken charges =  -0.00000

 Dipole moment (field-independent basis, Debye):
    X=             -5.4806    Y=             -2.7619    Z=              1.4731  Tot=              6.3115
 Quadrupole moment (field-independent basis, Debye-Ang):
   XX=           -662.3486   YY=           -506.2782   ZZ=           -526.9042
   XY=            -42.9872   XZ=             37.3499   YZ=              4.9908

 Normal termination of Gaussian 16 at Mon Sep 20 14:07:07 2021.
