 Gaussian 16, Revision A.03,
 Gaussian 16:  ES64L-G16RevA.03 25-Dec-2016

 --------------------------------
 #p wB97XD/Def2SVP td=(nstates=5)
 --------------------------------

 --------------------------------
 TDDFT excited states in gaussian
 --------------------------------
 Symbolic Z-matrix:
 Charge =  0 Multiplicity = 1

                         Standard orientation:
 ---------------------------------------------------------------------
 Center     Atomic      Atomic             Coordinates (Angstroms)
 Number     Number       Type             X           Y           Z
 ---------------------------------------------------------------------
      1         12           0      -17.722136   -0.749787    0.475229
      2          6           0      -17.470939    2.335014   -1.238044
      3          6           0      -16.578143    0.794800    3.135815
      4          6           0      -17.006395   -3.769841    1.614973
      5          6           0      -18.253348   -2.200725   -2.724922
      6          7           0      -17.272922    1.437008    0.859431
      7          6           0      -17.309025    2.482496    0.116502
      8          6           0      -17.168193    3.764225    0.963159
      9          6           0      -16.403289    3.242690    2.283936
     10          6           0      -16.690518    1.697771    2.074402
     11          6           0      -14.862737    3.577614    2.387430
     12          6           0      -18.621372    4.342040    1.374603
     13          6           0      -18.846736    5.880522    1.534017
     14          1           0      -17.594147    6.724206    1.974553
     15          7           0      -17.097151   -1.414344    2.230419
     16          6           0      -16.716063   -0.562982    3.256627
     17          6           0      -16.320986   -1.401837    4.442581
     18          6           0      -16.491167   -2.773095    3.979378
     19          6           0      -16.872648   -2.782832    2.564521
     20          6           0      -15.825347   -0.764562    5.726963
     21          6           0      -16.312936   -4.036457    4.792335
     22          8           0      -16.427474   -5.185104    4.342565
     23          6           0      -16.017471   -3.915781    6.232342
     24          7           0      -17.742601   -2.789749   -0.435969
     25          6           0      -17.351128   -3.825487    0.284019
     26          6           0      -17.745080   -5.182412   -0.452194
     27          6           0      -18.135774   -4.603760   -1.918347
     28          6           0      -18.077001   -3.098689   -1.671412
     29          6           0      -16.618022   -6.267182   -0.427703
     30          6           0      -19.506872   -5.033178   -2.536197
     31          6           0      -19.461350   -5.937091   -3.741312
     32          7           0      -18.063907   -0.099790   -1.582011
     33          6           0      -18.259635   -0.842844   -2.729160
     34          6           0      -18.272958   -0.000714   -3.851574
     35          6           0      -17.925069    1.251785   -3.311196
     36          6           0      -17.768602    1.176272   -1.947406
     37          6           0      -18.494646   -0.354553   -5.235357
     38          6           0      -17.773108    2.598305   -3.706120
     39          8           0      -17.930542    3.251719   -4.773100
     40          6           0      -17.198549    3.315128   -2.402635
     41          6           0      -17.824236    4.650551   -2.230860
     42          8           0      -19.008890    4.909127   -2.028727
     43          8           0      -16.765632    5.612802   -2.226895
     44          6           0      -17.144236    7.023814   -2.078286
     45          1           0      -16.330499    1.375234    4.027485
     46          1           0      -16.824632   -4.764276    2.026344
     47          1           0      -18.495334   -2.647578   -3.692160
     48          1           0      -16.416356    4.385116    0.476679
     49          1           0      -16.823159    3.760209    3.145800
     50          1           0      -14.458373    3.932261    1.439616
     51          1           0      -14.273866    2.691244    2.622748
     52          1           0      -14.780317    4.353415    3.148559
     53          1           0      -18.989968    3.857596    2.278924
     54          1           0      -19.343892    3.981989    0.641921
     55          1           0      -19.625746    6.137832    2.252395
     56          1           0      -18.992505    6.277750    0.528727
     57          1           0      -16.277297   -1.215998    6.610898
     58          1           0      -15.996692    0.311191    5.766279
     59          1           0      -14.735642   -0.767468    5.732102
     60          1           0      -15.102020   -3.347654    6.399909
     61          1           0      -15.918867   -4.907716    6.673399
     62          1           0      -16.794635   -3.446438    6.835533
     63          1           0      -18.658379   -5.625758   -0.055585
     64          1           0      -17.323671   -4.724092   -2.636875
     65          1           0      -15.707499   -5.858558    0.010929
     66          1           0      -16.603513   -6.564706   -1.476407
     67          1           0      -17.026559   -7.130477    0.095980
     68          1           0      -20.019932   -4.122790   -2.846926
     69          1           0      -20.122995   -5.494731   -1.764275
     70          1           0      -18.410909   -6.218804   -3.800926
     71          1           0      -19.699350   -5.332891   -4.617522
     72          1           0      -20.052537   -6.844625   -3.625343
     73          1           0      -19.419691   -0.929624   -5.266579
     74          1           0      -17.823226   -1.106529   -5.649981
     75          1           0      -18.603985    0.551207   -5.832088
     76          1           0      -16.119828    3.420325   -2.522693
     77          1           0      -16.271759    7.670057   -2.177984
     78          1           0      -17.440488    7.193840   -1.043022
     79          1           0      -17.843989    7.291376   -2.869326
     80         12           0       17.879433   -0.603152    0.037599
     81          6           0       15.584968    2.056552    0.471120
     82          6           0       20.379196    1.660811    0.159744
     83          6           0       19.945338   -3.084670   -0.503155
     84          6           0       15.070240   -2.671842   -0.797146
     85          7           0       17.995168    1.670135    0.188150
     86          6           0       16.932145    2.452159    0.607905
     87          6           0       17.501838    3.761406    1.035847
     88          6           0       18.896375    3.803003    0.410263
     89          6           0       19.166403    2.286503    0.244696
     90          6           0       18.862563    4.516819   -0.992958
     91          6           0       17.554432    4.048661    2.631875
     92          6           0       17.166590    5.449642    3.196399
     93          1           0       17.829168    6.685045    2.520953
     94          7           0       19.918192   -0.658871   -0.155814
     95          6           0       20.729937    0.352223   -0.056643
     96          6           0       22.101692   -0.133038   -0.287078
     97          6           0       22.053426   -1.559998   -0.272931
     98          6           0       20.590200   -1.836592   -0.337091
     99          6           0       23.421911    0.701221   -0.467181
    100          6           0       23.158790   -2.614688   -0.232145
    101          8           0       22.963330   -3.839987   -0.344376
    102          6           0       24.542370   -2.166641   -0.269813
    103          7           0       17.511820   -2.602763   -0.751104
    104          6           0       18.584719   -3.490099   -0.768396
    105          6           0       18.035198   -4.950641   -0.998815
    106          6           0       16.498337   -4.765444   -0.941057
    107          6           0       16.329112   -3.253151   -0.779085
    108          6           0       18.615512   -5.617645   -2.246178
    109          6           0       15.742135   -5.640558    0.090036
    110          6           0       14.377366   -6.233485   -0.331388
    111          7           0       15.767218   -0.405968   -0.157325
    112          6           0       14.771763   -1.296918   -0.545877
    113          6           0       13.490820   -0.668368   -0.345702
    114          6           0       13.766595    0.656818   -0.005444
    115          6           0       15.176138    0.798927    0.119520
    116          6           0       12.226896   -1.269821   -0.450696
    117          6           0       13.182648    1.952421    0.371935
    118          8           0       12.031452    2.334101    0.511402
    119          6           0       14.366497    2.911712    0.723566
    120          6           0       14.235681    4.134595   -0.166762
    121          8           0       14.579536    4.378739   -1.301118
    122          8           0       13.682177    5.042866    0.688713
    123          6           0       13.709217    6.470629    0.290911
    124          1           0       21.202206    2.368025    0.285137
    125          1           0       20.662097   -3.907845   -0.472101
    126          1           0       14.202745   -3.333753   -0.826482
    127          1           0       16.972791    4.649430    0.689086
    128          1           0       19.659339    4.152606    1.105367
    129          1           0       19.775042    5.061221   -1.233728
    130          1           0       18.119697    5.312585   -1.053033
    131          1           0       18.754609    3.707785   -1.714582
    132          1           0       18.519318    3.727778    3.023085
    133          1           0       16.896352    3.349238    3.148808
    134          1           0       17.585983    5.413511    4.202491
    135          1           0       16.079834    5.423953    3.116030
    136          1           0       24.139723    0.621516    0.348896
    137          1           0       23.123276    1.743672   -0.581209
    138          1           0       24.059404    0.389259   -1.294498
    139          1           0       24.742503   -1.452059    0.529009
    140          1           0       24.776316   -1.712318   -1.232684
    141          1           0       25.156689   -3.020940    0.012906
    142          1           0       18.277367   -5.506172   -0.092689
    143          1           0       16.059901   -4.893598   -1.930540
    144          1           0       17.981877   -5.383634   -3.102293
    145          1           0       18.618744   -6.706814   -2.218143
    146          1           0       19.539276   -5.109860   -2.521544
    147          1           0       15.627316   -5.174671    1.068621
    148          1           0       16.347358   -6.496355    0.392069
    149          1           0       13.647394   -5.545043    0.094642
    150          1           0       14.307477   -7.177012    0.210837
    151          1           0       14.314253   -6.297817   -1.417310
    152          1           0       11.345336   -0.657731   -0.639878
    153          1           0       12.093860   -1.874015    0.447270
    154          1           0       12.290328   -1.917619   -1.324267
    155          1           0       14.325047    3.184490    1.777907
    156          1           0       14.000531    7.001353    1.196861
    157          1           0       12.763645    6.895339   -0.045201
    158          1           0       14.474691    6.630838   -0.467900
 ---------------------------------------------------------------------

 SCF Done:  E(RwB97XD) =  -4070.56977947     A.U. after   20 cycles

 Excitation energies and oscillator strengths:

 Excited State   1:      Singlet-A      1.6743 eV  740.52 nm  f=0.3833  <S**2>=0.000
     310 -> 316        0.19700
     312 -> 314        0.67925
     310 <- 316        0.11759
 This state for optimization and/or second-order correction.
 Total Energy, E(TD-HF/TD-DFT) =  -4070.50825023
 Copying the excited state density for this state as the 1-particle RhoCI density.

 Excited State   2:      Singlet-A      1.7434 eV  711.17 nm  f=0.3622  <S**2>=0.000
     309 -> 315        0.21776
     311 -> 313        0.67305
     309 <- 315        0.11924

 Excited State   3:      Singlet-A      2.1694 eV  571.51 nm  f=0.0778  <S**2>=0.000
     309 -> 313        0.62753
     311 -> 315       -0.30968

 Excited State   4:      Singlet-A      2.2066 eV  561.87 nm  f=0.0674  <S**2>=0.000
     310 -> 314        0.62034
     312 -> 316       -0.32391

 Excited State   5:      Singlet-A      3.3075 eV  374.86 nm  f=0.0358  <S**2>=0.000
     306 -> 313        0.13281
     307 -> 313        0.60455
     311 -> 315        0.28171

 The electronic state is 1-A.
 Alpha  occ. eigenvalues --  -46.95718 -46.95702 -19.29616 -19.29152 -19.25122
 Alpha  occ. eigenvalues --  -19.24983 -19.24313 -19.24005 -19.23739 -19.23503
 Alpha  occ. eigenvalues --  -14.46689 -14.46375 -14.46264 -14.46011 -14.44584
 Alpha  occ. eigenvalues --  -14.44441 -14.43568 -14.43153 -10.43132 -10.43097
 Alpha  occ. eigenvalues --  -10.39504 -10.39062 -10.38843 -10.38497 -10.35786
 Alpha  occ. eigenvalues --  -10.35553 -10.35212 -10.34999 -10.34841 -10.34831
 Alpha  occ. eigenvalues --  -10.34802 -10.34776 -10.34672 -10.34607 -10.34412
 Alpha  occ. eigenvalues --  -10.34336 -10.34256 -10.34054 -10.34001 -10.33847
 Alpha  occ. eigenvalues --  -10.33661 -10.33572 -10.33287 -10.32726 -10.32692
 Alpha  occ. eigenvalues --  -10.32531 -10.32485 -10.32356 -10.32337 -10.32210
 Alpha  occ. eigenvalues --  -10.31974 -10.31939 -10.31938 -10.31854 -10.31842
 Alpha  occ. eigenvalues --  -10.31648 -10.31630 -10.31629 -10.31627 -10.31593
 Alpha  occ. eigenvalues --  -10.31591 -10.31550 -10.31437 -10.31358 -10.31311
 Alpha  occ. eigenvalues --  -10.31262 -10.30980 -10.30776 -10.30579 -10.30378
 Alpha  occ. eigenvalues --  -10.30313 -10.30238 -10.30205 -10.30144 -10.30040
 Alpha  occ. eigenvalues --  -10.29929 -10.29769 -10.29664 -10.29643 -10.29641
 Alpha  occ. eigenvalues --  -10.29570 -10.29478 -10.29195 -10.29103 -10.28848
 Alpha  occ. eigenvalues --  -10.28644  -3.21614  -3.21563  -1.95204  -1.95146
 Alpha  occ. eigenvalues --   -1.94745  -1.94685  -1.94561  -1.94521  -1.18299
 Alpha  occ. eigenvalues --   -1.16082  -1.11837  -1.11607  -1.11591  -1.09976
 Alpha  occ. eigenvalues --   -1.09481  -1.08905  -1.07766  -1.07197  -1.07189
 Alpha  occ. eigenvalues --   -1.05955  -1.05526  -1.05058  -1.04101  -1.03485
 Alpha  occ. eigenvalues --   -0.94927  -0.94755  -0.91399  -0.90774  -0.90493
 Alpha  occ. eigenvalues --   -0.90375  -0.89887  -0.89774  -0.89497  -0.89458
 Alpha  occ. eigenvalues --   -0.89240  -0.89082  -0.88830  -0.88816  -0.86190
 Alpha  occ. eigenvalues --   -0.86147  -0.85845  -0.85492  -0.84622  -0.84621
 Alpha  occ. eigenvalues --   -0.84414  -0.83927  -0.83455  -0.83422  -0.82605
 Alpha  occ. eigenvalues --   -0.82576  -0.80914  -0.80355  -0.79626  -0.79380
 Alpha  occ. eigenvalues --   -0.78960  -0.78864  -0.77800  -0.77795  -0.77145
 Alpha  occ. eigenvalues --   -0.77057  -0.75197  -0.74504  -0.74221  -0.73798
 Alpha  occ. eigenvalues --   -0.70915  -0.70870  -0.70677  -0.70483  -0.69866
 Alpha  occ. eigenvalues --   -0.69704  -0.69335  -0.69181  -0.67863  -0.67556
 Alpha  occ. eigenvalues --   -0.67527  -0.67437  -0.67294  -0.66977  -0.66570
 Alpha  occ. eigenvalues --   -0.66335  -0.63947  -0.63231  -0.62520  -0.62495
 Alpha  occ. eigenvalues --   -0.62097  -0.61567  -0.61272  -0.61239  -0.60325
 Alpha  occ. eigenvalues --   -0.60299  -0.59905  -0.59698  -0.59505  -0.59269
 Alpha  occ. eigenvalues --   -0.58939  -0.58168  -0.57867  -0.57731  -0.57383
 Alpha  occ. eigenvalues --   -0.57144  -0.56413  -0.56282  -0.55714  -0.55648
 Alpha  occ. eigenvalues --   -0.55517  -0.55444  -0.55192  -0.55145  -0.55090
 Alpha  occ. eigenvalues --   -0.54885  -0.54861  -0.54530  -0.54375  -0.54343
 Alpha  occ. eigenvalues --   -0.54160  -0.54044  -0.53613  -0.53513  -0.53431
 Alpha  occ. eigenvalues --   -0.53161  -0.53057  -0.52819  -0.52727  -0.52482
 Alpha  occ. eigenvalues --   -0.52356  -0.52240  -0.51906  -0.51809  -0.51602
 Alpha  occ. eigenvalues --   -0.51469  -0.51338  -0.51082  -0.50941  -0.50741
 Alpha  occ. eigenvalues --   -0.50713  -0.50592  -0.50285  -0.50109  -0.49928
 Alpha  occ. eigenvalues --   -0.49703  -0.49579  -0.49537  -0.49321  -0.49218
 Alpha  occ. eigenvalues --   -0.49037  -0.48979  -0.48863  -0.48701  -0.48582
 Alpha  occ. eigenvalues --   -0.48220  -0.48200  -0.48028  -0.47867  -0.47497
 Alpha  occ. eigenvalues --   -0.47473  -0.47267  -0.46977  -0.46845  -0.46825
 Alpha  occ. eigenvalues --   -0.46615  -0.46312  -0.46162  -0.46010  -0.45874
 Alpha  occ. eigenvalues --   -0.45826  -0.45775  -0.45626  -0.45471  -0.45215
 Alpha  occ. eigenvalues --   -0.44955  -0.44900  -0.44893  -0.44696  -0.44526
 Alpha  occ. eigenvalues --   -0.44237  -0.44097  -0.43929  -0.43861  -0.43593
 Alpha  occ. eigenvalues --   -0.43547  -0.43511  -0.43211  -0.43086  -0.42924
 Alpha  occ. eigenvalues --   -0.42808  -0.42635  -0.42508  -0.42447  -0.42211
 Alpha  occ. eigenvalues --   -0.42133  -0.41950  -0.41773  -0.41491  -0.40925
 Alpha  occ. eigenvalues --   -0.40679  -0.40397  -0.39883  -0.39700  -0.39382
 Alpha  occ. eigenvalues --   -0.39338  -0.38584  -0.38482  -0.38369  -0.38069
 Alpha  occ. eigenvalues --   -0.37845  -0.37584  -0.36658  -0.36556  -0.35923
 Alpha  occ. eigenvalues --   -0.35868  -0.35611  -0.35321  -0.33989  -0.33693
 Alpha  occ. eigenvalues --   -0.33372  -0.33202  -0.32739  -0.32592  -0.32445
 Alpha  occ. eigenvalues --   -0.32283  -0.31440  -0.31431  -0.26064  -0.25899
 Alpha  occ. eigenvalues --   -0.23466  -0.22784
 Alpha virt. eigenvalues --   -0.06939  -0.06630  -0.00708  -0.00154   0.01843
 Alpha virt. eigenvalues --    0.01918   0.04276   0.04383   0.05010   0.05457
 Alpha virt. eigenvalues --    0.06769   0.07843   0.07888   0.08034   0.08153

 Mulliken charges:
               1
     1  Mg   0.950762
     2  C   -0.001530
     3  C   -0.092527
     4  C   -0.057253
     5  C   -0.097676
     6  N   -0.289380
     7  C   -0.079873
     8  C   -0.022094
     9  C   -0.152178
    10  C    0.044838
    11  C    0.020219
    12  C    0.019386
    13  C   -0.121995
    14  H   -0.003129
    15  N   -0.573482
    16  C    0.230441
    17  C   -0.157414
    18  C   -0.064140
    19  C    0.176617
    20  C    0.067667
    21  C    0.057131
    22  O   -0.243304
    23  C   -0.029518
    24  N   -0.281838
    25  C    0.040518
    26  C   -0.118721
    27  C   -0.082460
    28  C    0.022901
    29  C    0.039344
    30  C   -0.018036
    31  C   -0.035012
    32  N   -0.420991
    33  C    0.154740
    34  C   -0.152088
    35  C   -0.029598
    36  C    0.146202
    37  C    0.092537
    38  C    0.133339
    39  O   -0.250646
    40  C   -0.095265
    41  C    0.288671
    42  O   -0.246539
    43  O   -0.409202
    44  C    0.146552
    45  H   -0.006517
    46  H    0.019219
    47  H   -0.015432
    48  H    0.025074
    49  H    0.044081
    50  H    0.037014
    51  H    0.039656
    52  H    0.044109
    53  H    0.028232
    54  H    0.057632
    55  H    0.065717
    56  H    0.078855
    57  H    0.055740
    58  H    0.031543
    59  H    0.060724
    60  H    0.053930
    61  H    0.050826
    62  H    0.060024
    63  H    0.047666
    64  H    0.033956
    65  H    0.061795
    66  H    0.028989
    67  H    0.039218
    68  H    0.034175
    69  H    0.025023
    70  H    0.022709
    71  H    0.040431
    72  H    0.046521
    73  H    0.029838
    74  H    0.045585
    75  H    0.071953
    76  H    0.082553
    77  H    0.044189
    78  H    0.042318
    79  H    0.066677
    80  Mg   0.942213
    81  C   -0.051921
    82  C   -0.101267
    83  C   -0.067640
    84  C   -0.090819
    85  N   -0.320412
    86  C    0.052322
    87  C   -0.094550
    88  C   -0.080785
    89  C   -0.005958
    90  C    0.041940
    91  C   -0.020857
    92  C   -0.113942
    93  H    0.029631
    94  N   -0.428120
    95  C    0.195178
    96  C   -0.167309
    97  C   -0.071108
    98  C    0.113803
    99  C    0.058813
   100  C    0.067089
   101  O   -0.250752
   102  C   -0.004413
   103  N   -0.356223
   104  C    0.033242
   105  C   -0.062142
   106  C   -0.056354
   107  C    0.068478
   108  C    0.048389
   109  C   -0.039078
   110  C   -0.040873
   111  N   -0.439532
   112  C    0.135323
   113  C   -0.196845
   114  C   -0.015727
   115  C    0.167497
   116  C    0.061238
   117  C    0.109501
   118  O   -0.199716
   119  C   -0.077086
   120  C    0.279479
   121  O   -0.226422
   122  O   -0.373863
   123  C    0.131567
   124  H   -0.012432
   125  H    0.026196
   126  H   -0.012839
   127  H    0.024517
   128  H    0.020075
   129  H    0.029371
   130  H    0.045933
   131  H    0.057447
   132  H    0.021569
   133  H    0.024495
   134  H    0.065186
   135  H    0.071813
   136  H    0.043674
   137  H    0.040996
   138  H    0.041506
   139  H    0.037747
   140  H    0.075258
   141  H    0.054622
   142  H    0.039192
   143  H    0.033369
   144  H    0.015988
   145  H    0.046708
   146  H    0.047951
   147  H    0.025278
   148  H    0.022965
   149  H    0.043214
   150  H    0.039840
   151  H    0.045463
   152  H    0.059998
   153  H    0.054130
   154  H    0.037970
   155  H    0.081340
   156  H    0.047519
   157  H    0.063810
   158  H    0.058142
 Sum of Mulliken charges =  -0.00000

 Dipole moment (field-independent basis, Debye):
    X=              4.8262    Y=             -0.8574    Z=              7.0102  Tot=              8.5540
 Quadrupole moment (field-independent basis, Debye-Ang):
   XX=           -430.4525   YY=           -489.7999   ZZ=           -504.6368
   XY=             66.9194   XZ=            -30.3119   YZ=             44.4950

 Normal termination of Gaussian 16 at Sun Sep 19 00:05:47 2021.
