 Gaussian 16, Revision A.03,
 Gaussian 16:  ES64L-G16RevA.03 25-Dec-2016

 --------------------------------
 #p wB97XD/Def2SVP td=(nstates=5)
 --------------------------------

 --------------------------------
 TDDFT excited states in gaussian
 --------------------------------
 Symbolic Z-matrix:
 Charge =  0 Multiplicity = 1

                         Standard orientation:
 ---------------------------------------------------------------------
 Center     Atomic      Atomic             Coordinates (Angstroms)
 Number     Number       Type             X           Y           Z
 ---------------------------------------------------------------------
      1         12           0        0.808820    0.089546   -0.256435
      2          6           0       -2.775053    0.104502   -0.163720
      3          6           0        0.671344   -3.354488   -0.362549
      4          6           0        4.030076    0.095157    0.290088
      5          6           0        0.668340    3.536638    0.072588
      6          7           0       -0.915926   -1.502164    0.021054
      7          6           0       -2.243944   -1.189438   -0.087062
      8          6           0       -3.060446   -2.482962   -0.350725
      9          6           0       -1.958239   -3.623320   -0.356489
     10          6           0       -0.612462   -2.825051   -0.202809
     11          6           0       -2.054226   -4.753345    0.753025
     12          6           0       -3.888677   -2.485171   -1.663295
     13          6           0       -5.286956   -2.988091   -1.600497
     14          1           0       -5.833330   -3.897276   -0.434286
     15          7           0        2.229561   -1.443845   -0.042640
     16          6           0        2.028125   -2.808245   -0.249602
     17          6           0        3.302142   -3.516989   -0.022313
     18          6           0        4.311094   -2.481640    0.055690
     19          6           0        3.548460   -1.212980    0.113696
     20          6           0        3.489006   -5.003335    0.023221
     21          6           0        5.854232   -2.569919    0.117109
     22          8           0        6.635574   -1.625338   -0.122822
     23          6           0        6.451717   -3.905867    0.307713
     24          7           0        2.083482    1.565606    0.172103
     25          6           0        3.405074    1.271241    0.426066
     26          6           0        4.266033    2.563335    0.486723
     27          6           0        3.196186    3.654718    0.038165
     28          6           0        1.889272    2.881770    0.076348
     29          6           0        4.995165    2.913490    1.847615
     30          6           0        3.403348    4.309643   -1.318302
     31          6           0        3.715221    5.820593   -1.289423
     32          7           0       -0.700597    1.569511   -0.271254
     33          6           0       -0.598961    2.929564   -0.097864
     34          6           0       -1.938131    3.530892   -0.049890
     35          6           0       -2.794559    2.447372   -0.132881
     36          6           0       -2.008287    1.280900   -0.263334
     37          6           0       -2.322674    4.962206    0.131149
     38          6           0       -4.177160    2.132621   -0.178169
     39          8           0       -5.210637    2.857868   -0.237032
     40          6           0       -4.232519    0.663786   -0.193260
     41          6           0       -5.130211    0.167036    0.907554
     42          8           0       -4.882889    0.206531    2.064233
     43          8           0       -6.221944   -0.391632    0.385560
     44          6           0       -7.343817   -0.650544    1.222740
     45          1           0        0.719782   -4.445318   -0.385390
     46          1           0        5.101302    0.254829    0.435677
     47          1           0        0.634862    4.612080    0.254607
     48          1           0       -3.738843   -2.583181    0.497336
     49          1           0       -1.944191   -4.120260   -1.326051
     50          1           0       -2.966439   -4.746034    1.348955
     51          1           0       -1.253761   -4.557581    1.467978
     52          1           0       -1.889948   -5.736374    0.310658
     53          1           0       -3.439935   -3.097603   -2.446253
     54          1           0       -4.007058   -1.488965   -2.088538
     55          1           0       -5.483970   -3.632821   -2.457543
     56          1           0       -5.943864   -2.120855   -1.661377
     57          1           0        3.980671   -5.277326    0.956399
     58          1           0        4.149227   -5.252908   -0.807399
     59          1           0        2.567530   -5.531521   -0.223908
     60          1           0        6.133148   -4.270427    1.284344
     61          1           0        7.526194   -3.734012    0.366699
     62          1           0        6.284699   -4.556246   -0.550468
     63          1           0        5.001949    2.456635   -0.310876
     64          1           0        3.216650    4.440727    0.792998
     65          1           0        4.786147    2.146720    2.592729
     66          1           0        4.789132    3.926295    2.195966
     67          1           0        6.064641    2.942879    1.638538
     68          1           0        2.650083    4.106157   -2.079541
     69          1           0        4.296038    3.856812   -1.748465
     70          1           0        3.197071    6.446311   -2.015852
     71          1           0        4.733676    5.933389   -1.662048
     72          1           0        3.568154    6.311620   -0.328412
     73          1           0       -1.499915    5.647012   -0.076291
     74          1           0       -2.514487    5.166467    1.184418
     75          1           0       -3.253929    5.102268   -0.417572
     76          1           0       -4.651538    0.393185   -1.162078
     77          1           0       -7.804804    0.318319    1.419937
     78          1           0       -7.025482   -1.007058    2.202476
     79          1           0       -8.082861   -1.268148    0.711677
 ---------------------------------------------------------------------

 SCF Done:  E(RwB97XD) =  -2035.30015692     A.U. after   19 cycles

 Excitation energies and oscillator strengths:

 Excited State   1:      Singlet-A      1.6708 eV  742.07 nm  f=0.4198  <S**2>=0.000
     155 ->158         0.18128
     156 ->157         0.68455
     155 <-158         0.11416
 This state for optimization and/or second-order correction.
 Total Energy, E(TD-HF/TD-DFT) =  -2035.23875692
 Copying the excited state density for this state as the 1-particle RhoCI density.

 Excited State   2:      Singlet-A      2.1575 eV  574.65 nm  f=0.1258  <S**2>=0.000
     155 ->157         0.64763
     156 ->158        -0.26948

 Excited State   3:      Singlet-A      3.3918 eV  365.54 nm  f=0.0152  <S**2>=0.000
     150 ->157         0.20081
     150 ->159        -0.15947
     151 ->157         0.44308
     151 ->159        -0.28884
     151 ->160         0.13095
     152 ->157        -0.24645
     154 ->157         0.14417
     156 ->158        -0.13792

 Excited State   4:      Singlet-A      3.4624 eV  358.09 nm  f=0.0099  <S**2>=0.000
     150 ->157        -0.14863
     151 ->157        -0.20302
     151 ->159         0.14157
     152 ->157        -0.38366
     154 ->157         0.47625

 Excited State   5:      Singlet-A      3.5396 eV  350.27 nm  f=0.2131  <S**2>=0.000
     151 ->157         0.10785
     152 ->157         0.23815
     154 ->157         0.37046
     155 ->157         0.15995
     156 ->158         0.49272

 The electronic state is 1-A.
 Alpha  occ. eigenvalues --  -46.95253 -19.30249 -19.24618 -19.24194 -19.23520
 Alpha  occ. eigenvalues --  -14.46661 -14.46226 -14.44336 -14.44108 -10.42917
 Alpha  occ. eigenvalues --  -10.38871 -10.38799 -10.35783 -10.35258 -10.35082
 Alpha  occ. eigenvalues --  -10.34942 -10.34681 -10.34124 -10.33664 -10.33478
 Alpha  occ. eigenvalues --  -10.33387 -10.32998 -10.32810 -10.32554 -10.32366
 Alpha  occ. eigenvalues --  -10.32312 -10.32304 -10.32173 -10.31611 -10.31568
 Alpha  occ. eigenvalues --  -10.31255 -10.31082 -10.30867 -10.30795 -10.30725
 Alpha  occ. eigenvalues --  -10.30426 -10.30155 -10.29761 -10.29740 -10.29397
 Alpha  occ. eigenvalues --  -10.29320 -10.29283 -10.29163  -3.21274  -1.94846
 Alpha  occ. eigenvalues --   -1.94409  -1.94242  -1.20838  -1.11938  -1.10458
 Alpha  occ. eigenvalues --   -1.10385  -1.06918  -1.05812  -1.04517  -1.03777
 Alpha  occ. eigenvalues --   -0.95647  -0.91040  -0.90415  -0.90250  -0.89746
 Alpha  occ. eigenvalues --   -0.88774  -0.88215  -0.86529  -0.85406  -0.84524
 Alpha  occ. eigenvalues --   -0.83969  -0.83661  -0.82483  -0.80254  -0.79673
 Alpha  occ. eigenvalues --   -0.79098  -0.78282  -0.77125  -0.75199  -0.73479
 Alpha  occ. eigenvalues --   -0.71391  -0.70942  -0.69443  -0.68215  -0.67856
 Alpha  occ. eigenvalues --   -0.66876  -0.66832  -0.66474  -0.65040  -0.62319
 Alpha  occ. eigenvalues --   -0.61890  -0.61312  -0.61146  -0.60199  -0.59743
 Alpha  occ. eigenvalues --   -0.58439  -0.58093  -0.57139  -0.56903  -0.55709
 Alpha  occ. eigenvalues --   -0.55341  -0.55234  -0.54927  -0.54676  -0.54360
 Alpha  occ. eigenvalues --   -0.53651  -0.53506  -0.53423  -0.53042  -0.52034
 Alpha  occ. eigenvalues --   -0.51954  -0.51797  -0.51269  -0.51014  -0.50702
 Alpha  occ. eigenvalues --   -0.50545  -0.50217  -0.50152  -0.49623  -0.49343
 Alpha  occ. eigenvalues --   -0.48867  -0.48710  -0.48173  -0.48078  -0.47990
 Alpha  occ. eigenvalues --   -0.47759  -0.47191  -0.46755  -0.46508  -0.46427
 Alpha  occ. eigenvalues --   -0.45631  -0.45367  -0.44906  -0.44593  -0.44524
 Alpha  occ. eigenvalues --   -0.44140  -0.43839  -0.43555  -0.43410  -0.43139
 Alpha  occ. eigenvalues --   -0.42897  -0.42186  -0.42000  -0.41576  -0.41034
 Alpha  occ. eigenvalues --   -0.40087  -0.39849  -0.39101  -0.38576  -0.38259
 Alpha  occ. eigenvalues --   -0.37768  -0.36673  -0.36124  -0.35164  -0.33724
 Alpha  occ. eigenvalues --   -0.33573  -0.32869  -0.32608  -0.31597  -0.26050
 Alpha  occ. eigenvalues --   -0.23118
 Alpha virt. eigenvalues --   -0.07289   0.00445   0.01844   0.04117   0.05397
 Alpha virt. eigenvalues --    0.07810   0.08346   0.08476   0.09807   0.10125
 Alpha virt. eigenvalues --    0.11451   0.12621   0.12926   0.12997   0.13841

 Mulliken charges:
               1
     1  Mg   0.968448
     2  C   -0.020982
     3  C   -0.037328
     4  C   -0.069015
     5  C   -0.100391
     6  N   -0.318908
     7  C   -0.004661
     8  C   -0.025471
     9  C   -0.108495
    10  C    0.038749
    11  C    0.011094
    12  C    0.006953
    13  C   -0.131887
    14  H    0.014342
    15  N   -0.444892
    16  C    0.109678
    17  C   -0.188587
    18  C   -0.082147
    19  C    0.150526
    20  C    0.091095
    21  C    0.056823
    22  O   -0.260073
    23  C   -0.010251
    24  N   -0.429022
    25  C    0.096540
    26  C   -0.123034
    27  C   -0.081927
    28  C    0.106452
    29  C    0.027992
    30  C    0.012440
    31  C   -0.064924
    32  N   -0.411653
    33  C    0.113964
    34  C   -0.170889
    35  C   -0.051449
    36  C    0.143952
    37  C    0.088533
    38  C    0.114929
    39  O   -0.251353
    40  C   -0.028903
    41  C    0.225669
    42  O   -0.205801
    43  O   -0.332390
    44  C    0.138713
    45  H   -0.013833
    46  H    0.020123
    47  H   -0.001517
    48  H    0.046111
    49  H    0.041922
    50  H    0.041060
    51  H    0.040361
    52  H    0.039983
    53  H    0.033347
    54  H    0.031251
    55  H    0.045767
    56  H    0.057646
    57  H    0.058207
    58  H    0.041332
    59  H    0.035349
    60  H    0.054149
    61  H    0.046932
    62  H    0.066254
    63  H    0.046344
    64  H    0.023303
    65  H    0.051622
    66  H    0.034837
    67  H    0.038261
    68  H    0.040936
    69  H    0.022555
    70  H    0.029648
    71  H    0.032290
    72  H    0.037086
    73  H    0.030954
    74  H    0.058227
    75  H    0.072583
    76  H    0.069269
    77  H    0.047665
    78  H    0.056354
    79  H    0.061165
 Sum of Mulliken charges =  -0.00000

 Dipole moment (field-independent basis, Debye):
    X=              0.4590    Y=             -2.0113    Z=             -1.8265  Tot=              2.7553
 Quadrupole moment (field-independent basis, Debye-Ang):
   XX=           -270.5147   YY=           -224.0604   ZZ=           -256.3825
   XY=             19.5227   XZ=              5.8023   YZ=              1.8635

 Normal termination of Gaussian 16 at Mon Sep 20 11:18:07 2021.
