 Gaussian 16, Revision A.03,
 Gaussian 16:  ES64L-G16RevA.03 25-Dec-2016

 --------------------------------
 #p wB97XD/Def2SVP td=(nstates=5)
 --------------------------------

 --------------------------------
 TDDFT excited states in gaussian
 --------------------------------
 Symbolic Z-matrix:
 Charge =  0 Multiplicity = 1

                         Standard orientation:
 ---------------------------------------------------------------------
 Center     Atomic      Atomic             Coordinates (Angstroms)
 Number     Number       Type             X           Y           Z
 ---------------------------------------------------------------------
      1         12           0      -17.866746   -0.781189    0.084411
      2          6           0      -17.256326    2.710704   -0.451343
      3          6           0      -17.449394   -0.212717    3.459939
      4          6           0      -17.801812   -4.025166    0.468602
      5          6           0      -18.025935   -1.114376   -3.361467
      6          7           0      -17.112426    1.054541    1.367526
      7          6           0      -17.070354    2.334645    0.885155
      8          6           0      -17.021240    3.333649    2.072159
      9          6           0      -17.021435    2.393359    3.349330
     10          6           0      -17.183177    0.954051    2.737611
     11          6           0      -15.757267    2.442400    4.306758
     12          6           0      -18.184770    4.359647    2.120478
     13          6           0      -17.846522    5.779208    2.407689
     14          1           0      -16.493425    6.233224    3.077158
     15          7           0      -17.641274   -2.021751    1.765384
     16          6           0      -17.615924   -1.625652    3.102344
     17          6           0      -17.475884   -2.824497    3.951023
     18          6           0      -17.697135   -3.950314    3.068072
     19          6           0      -17.713936   -3.366558    1.706667
     20          6           0      -17.242243   -2.835152    5.431399
     21          6           0      -17.848891   -5.460537    3.366463
     22          8           0      -18.334914   -6.300491    2.579982
     23          6           0      -17.554966   -5.915152    4.739419
     24          7           0      -17.847795   -2.277826   -1.237285
     25          6           0      -17.748880   -3.577730   -0.792068
     26          6           0      -18.002917   -4.586859   -1.945999
     27          6           0      -18.444898   -3.597970   -3.113751
     28          6           0      -18.104747   -2.231178   -2.545327
     29          6           0      -16.828302   -5.565821   -2.356101
     30          6           0      -19.897781   -3.657984   -3.558020
     31          6           0      -20.134807   -4.150784   -5.000946
     32          7           0      -17.876818    0.520087   -1.581552
     33          6           0      -17.919856    0.227720   -2.924238
     34          6           0      -17.765410    1.458292   -3.711075
     35          6           0      -17.564240    2.441418   -2.758516
     36          6           0      -17.636648    1.834020   -1.485048
     37          6           0      -17.740538    1.632061   -5.193807
     38          6           0      -17.361428    3.840564   -2.640350
     39          8           0      -17.374077    4.774341   -3.492068
     40          6           0      -17.154389    4.074869   -1.204033
     41          6           0      -15.874149    4.833677   -0.981328
     42          8           0      -14.784007    4.397437   -1.129377
     43          8           0      -16.144692    6.055563   -0.522776
     44          6           0      -15.124404    7.048247   -0.532564
     45          1           0      -17.320062   -0.124483    4.540803
     46          1           0      -17.838565   -5.117115    0.445925
     47          1           0      -17.999438   -1.241449   -4.444969
     48          1           0      -16.077975    3.871165    1.968232
     49          1           0      -17.899961    2.598393    3.960354
     50          1           0      -15.042333    3.237102    4.095486
     51          1           0      -15.202677    1.517992    4.139054
     52          1           0      -16.071031    2.472846    5.350620
     53          1           0      -18.927181    4.122509    2.883406
     54          1           0      -18.728634    4.424675    1.178535
     55          1           0      -18.562701    6.190345    3.119779
     56          1           0      -17.936642    6.327455    1.470332
     57          1           0      -16.360776   -3.436129    5.653816
     58          1           0      -18.114893   -3.315426    5.874038
     59          1           0      -17.273036   -1.828635    5.849902
     60          1           0      -16.499814   -5.719010    4.930158
     61          1           0      -17.678712   -6.997582    4.716054
     62          1           0      -18.275801   -5.532514    5.461462
     63          1           0      -18.875066   -5.163926   -1.637015
     64          1           0      -17.823593   -3.836608   -3.976904
     65          1           0      -15.957131   -5.390403   -1.725934
     66          1           0      -16.604794   -5.543599   -3.423397
     67          1           0      -17.192910   -6.582251   -2.206813
     68          1           0      -20.503417   -2.771279   -3.370244
     69          1           0      -20.382824   -4.406825   -2.932749
     70          1           0      -20.861280   -3.600252   -5.598317
     71          1           0      -20.664168   -5.100580   -4.920390
     72          1           0      -19.244419   -4.223470   -5.624006
     73          1           0      -18.162994    0.777654   -5.723375
     74          1           0      -16.711622    1.622766   -5.553162
     75          1           0      -18.162282    2.616701   -5.395212
     76          1           0      -18.002063    4.676413   -0.876918
     77          1           0      -15.005293    7.350142   -1.574083
     78          1           0      -14.160128    6.619333   -0.259569
     79          1           0      -15.427030    7.930164    0.032633
     80         12           0       17.746207   -0.740444    0.312131
     81          6           0       15.672706    2.065277    0.477988
     82          6           0       20.455130    1.485563    0.279640
     83          6           0       19.828804   -3.260494   -0.402798
     84          6           0       15.031090   -2.612561   -0.671037
     85          7           0       18.066825    1.574297    0.481245
     86          6           0       17.014544    2.435149    0.473036
     87          6           0       17.522348    3.931299    0.494935
     88          6           0       19.085707    3.712737    0.170501
     89          6           0       19.235209    2.184957    0.264078
     90          6           0       19.314302    4.129131   -1.325948
     91          6           0       17.319423    4.473515    1.957422
     92          6           0       17.866406    5.891557    2.276451
     93          1           0       18.635027    6.357663    3.477001
     94          7           0       19.830445   -0.869899    0.191258
     95          6           0       20.812132    0.133959    0.238709
     96          6           0       22.062102   -0.479812    0.072036
     97          6           0       21.920409   -1.861002    0.062916
     98          6           0       20.483185   -2.051490   -0.042325
     99          6           0       23.312189    0.335759    0.127892
    100          6           0       22.989415   -3.000065   -0.020421
    101          8           0       22.737544   -4.200188   -0.006094
    102          6           0       24.489985   -2.715835    0.088398
    103          7           0       17.453453   -2.608898   -0.539990
    104          6           0       18.461942   -3.507625   -0.589788
    105          6           0       17.995864   -4.942955   -0.902787
    106          6           0       16.476139   -4.708995   -1.127426
    107          6           0       16.252811   -3.283343   -0.655793
    108          6           0       18.821266   -5.666094   -2.018315
    109          6           0       15.497628   -5.735633   -0.493927
    110          6           0       15.295671   -5.639584    0.958785
    111          7           0       15.734995   -0.428424    0.050127
    112          6           0       14.777183   -1.239857   -0.334276
    113          6           0       13.457685   -0.603836   -0.263315
    114          6           0       13.817395    0.739870    0.074840
    115          6           0       15.189705    0.808279    0.215291
    116          6           0       12.145709   -1.221391   -0.120411
    117          6           0       13.243450    2.043817    0.357559
    118          8           0       12.089300    2.392647    0.461074
    119          6           0       14.463177    2.952066    0.554974
    120          6           0       14.450544    4.139043   -0.413964
    121          8           0       14.770475    4.073277   -1.572354
    122          8           0       13.950561    5.245796    0.229586
    123          6           0       13.915132    6.441671   -0.643461
    124          1           0       21.290550    2.176928    0.401423
    125          1           0       20.460881   -4.150768   -0.432192
    126          1           0       14.346360   -3.439057   -0.868931
    127          1           0       17.073098    4.537003   -0.292495
    128          1           0       19.766379    4.260653    0.823287
    129          1           0       19.457608    3.319250   -2.040532
    130          1           0       20.296023    4.581419   -1.468648
    131          1           0       18.534483    4.774577   -1.729648
    132          1           0       17.757729    3.741705    2.635442
    133          1           0       16.250962    4.420803    2.168246
    134          1           0       17.004417    6.541021    2.121106
    135          1           0       18.587699    6.007860    1.468500
    136          1           0       23.170475    1.411495    0.235256
    137          1           0       23.950274    0.024075   -0.700165
    138          1           0       23.787548    0.009655    1.053390
    139          1           0       24.894977   -2.162037   -0.758661
    140          1           0       25.103564   -3.589148    0.310210
    141          1           0       24.622183   -2.128408    0.997191
    142          1           0       18.222241   -5.375323    0.071448
    143          1           0       16.370050   -4.698323   -2.212201
    144          1           0       19.848491   -5.303715   -2.040605
    145          1           0       18.367298   -5.462795   -2.988559
    146          1           0       18.892504   -6.742410   -1.860206
    147          1           0       15.985087   -6.676856   -0.746110
    148          1           0       14.555535   -5.731561   -1.042488
    149          1           0       14.544903   -4.878528    1.170894
    150          1           0       16.237814   -5.455885    1.474867
    151          1           0       14.860780   -6.550956    1.370193
    152          1           0       12.346125   -2.194099    0.329404
    153          1           0       11.571306   -1.487156   -1.007981
    154          1           0       11.557238   -0.553356    0.507612
    155          1           0       14.443791    3.311590    1.584320
    156          1           0       13.038281    7.032638   -0.379575
    157          1           0       13.703952    6.260672   -1.697592
    158          1           0       14.787477    7.072742   -0.476708
 ---------------------------------------------------------------------

 SCF Done:  E(RwB97XD) =  -4070.62026030     A.U. after   19 cycles

 Excitation energies and oscillator strengths:

 Excited State   1:      Singlet-A      1.6709 eV  742.04 nm  f=0.4187  <S**2>=0.000
     309 -> 315        0.18119
     311 -> 313        0.68456
     309 <- 315        0.11413
 This state for optimization and/or second-order correction.
 Total Energy, E(TD-HF/TD-DFT) =  -4070.55885723
 Copying the excited state density for this state as the 1-particle RhoCI density.

 Excited State   2:      Singlet-A      1.6938 eV  731.98 nm  f=0.3904  <S**2>=0.000
     310 -> 316       -0.19056
     312 -> 314        0.68142
     310 <- 316       -0.11528

 Excited State   3:      Singlet-A      2.1576 eV  574.64 nm  f=0.1245  <S**2>=0.000
     309 -> 313        0.64763
     311 -> 315       -0.26947

 Excited State   4:      Singlet-A      2.2137 eV  560.08 nm  f=0.1132  <S**2>=0.000
     310 -> 314        0.64263
     312 -> 316        0.27815

 Excited State   5:      Singlet-A      3.3915 eV  365.57 nm  f=0.0151  <S**2>=0.000
     299 -> 313       -0.19932
     299 -> 317        0.15878
     301 -> 313        0.44439
     301 -> 317       -0.28942
     301 -> 319        0.13150
     303 -> 313       -0.24567
     307 -> 313        0.14395
     311 -> 315       -0.13779

 The electronic state is 1-A.
 Alpha  occ. eigenvalues --  -46.95214 -46.95037 -19.31001 -19.30203 -19.25324
 Alpha  occ. eigenvalues --  -19.24571 -19.24482 -19.24152 -19.23834 -19.23481
 Alpha  occ. eigenvalues --  -14.46842 -14.46617 -14.46186 -14.45601 -14.44295
 Alpha  occ. eigenvalues --  -14.44065 -14.43769 -14.43677 -10.43618 -10.42871
 Alpha  occ. eigenvalues --  -10.40184 -10.38832 -10.38756 -10.38471 -10.35740
 Alpha  occ. eigenvalues --  -10.35543 -10.35210 -10.35112 -10.35042 -10.34899
 Alpha  occ. eigenvalues --  -10.34667 -10.34640 -10.34552 -10.34445 -10.34083
 Alpha  occ. eigenvalues --  -10.33926 -10.33724 -10.33623 -10.33555 -10.33436
 Alpha  occ. eigenvalues --  -10.33345 -10.32957 -10.32770 -10.32740 -10.32660
 Alpha  occ. eigenvalues --  -10.32632 -10.32558 -10.32512 -10.32324 -10.32269
 Alpha  occ. eigenvalues --  -10.32261 -10.32131 -10.31985 -10.31712 -10.31673
 Alpha  occ. eigenvalues --  -10.31636 -10.31570 -10.31553 -10.31528 -10.31510
 Alpha  occ. eigenvalues --  -10.31359 -10.31216 -10.31137 -10.31041 -10.30997
 Alpha  occ. eigenvalues --  -10.30893 -10.30828 -10.30753 -10.30683 -10.30384
 Alpha  occ. eigenvalues --  -10.30241 -10.30118 -10.30081 -10.29961 -10.29857
 Alpha  occ. eigenvalues --  -10.29716 -10.29700 -10.29694 -10.29358 -10.29310
 Alpha  occ. eigenvalues --  -10.29279 -10.29247 -10.29122 -10.29087 -10.28915
 Alpha  occ. eigenvalues --  -10.28289  -3.21234  -3.21043  -1.94805  -1.94617
 Alpha  occ. eigenvalues --   -1.94369  -1.94205  -1.94179  -1.93999  -1.20791
 Alpha  occ. eigenvalues --   -1.18976  -1.12638  -1.12492  -1.11892  -1.10951
 Alpha  occ. eigenvalues --   -1.10419  -1.10342  -1.06947  -1.06877  -1.05786
 Alpha  occ. eigenvalues --   -1.05772  -1.05343  -1.04489  -1.04474  -1.03735
 Alpha  occ. eigenvalues --   -0.95782  -0.95604  -0.91268  -0.91000  -0.90499
 Alpha  occ. eigenvalues --   -0.90373  -0.90211  -0.90080  -0.89704  -0.89446
 Alpha  occ. eigenvalues --   -0.89122  -0.88734  -0.88173  -0.88096  -0.86486
 Alpha  occ. eigenvalues --   -0.85967  -0.85500  -0.85365  -0.84483  -0.84287
 Alpha  occ. eigenvalues --   -0.83928  -0.83619  -0.83454  -0.82844  -0.82441
 Alpha  occ. eigenvalues --   -0.82354  -0.80489  -0.80213  -0.79631  -0.79504
 Alpha  occ. eigenvalues --   -0.79056  -0.78497  -0.78241  -0.78035  -0.77084
 Alpha  occ. eigenvalues --   -0.76793  -0.75158  -0.74437  -0.73746  -0.73437
 Alpha  occ. eigenvalues --   -0.71940  -0.71350  -0.71116  -0.70902  -0.70302
 Alpha  occ. eigenvalues --   -0.69401  -0.69014  -0.68175  -0.67816  -0.67323
 Alpha  occ. eigenvalues --   -0.66833  -0.66789  -0.66766  -0.66431  -0.66395
 Alpha  occ. eigenvalues --   -0.65957  -0.64996  -0.64465  -0.62277  -0.62088
 Alpha  occ. eigenvalues --   -0.61849  -0.61436  -0.61316  -0.61271  -0.61103
 Alpha  occ. eigenvalues --   -0.60547  -0.60228  -0.60158  -0.59701  -0.59329
 Alpha  occ. eigenvalues --   -0.58461  -0.58395  -0.58052  -0.57584  -0.57452
 Alpha  occ. eigenvalues --   -0.57213  -0.57093  -0.56862  -0.56542  -0.55922
 Alpha  occ. eigenvalues --   -0.55669  -0.55298  -0.55211  -0.55191  -0.55054
 Alpha  occ. eigenvalues --   -0.54886  -0.54636  -0.54580  -0.54495  -0.54318
 Alpha  occ. eigenvalues --   -0.54014  -0.53608  -0.53465  -0.53383  -0.53047
 Alpha  occ. eigenvalues --   -0.53001  -0.52903  -0.52487  -0.52258  -0.51992
 Alpha  occ. eigenvalues --   -0.51914  -0.51851  -0.51757  -0.51593  -0.51354
 Alpha  occ. eigenvalues --   -0.51226  -0.51150  -0.50972  -0.50886  -0.50723
 Alpha  occ. eigenvalues --   -0.50659  -0.50503  -0.50443  -0.50177  -0.50111
 Alpha  occ. eigenvalues --   -0.49830  -0.49582  -0.49418  -0.49303  -0.49035
 Alpha  occ. eigenvalues --   -0.48825  -0.48669  -0.48596  -0.48131  -0.48052
 Alpha  occ. eigenvalues --   -0.48035  -0.47949  -0.47886  -0.47715  -0.47622
 Alpha  occ. eigenvalues --   -0.47258  -0.47150  -0.46975  -0.46893  -0.46714
 Alpha  occ. eigenvalues --   -0.46622  -0.46467  -0.46386  -0.46334  -0.46107
 Alpha  occ. eigenvalues --   -0.45969  -0.45747  -0.45602  -0.45589  -0.45327
 Alpha  occ. eigenvalues --   -0.45248  -0.45162  -0.44865  -0.44817  -0.44551
 Alpha  occ. eigenvalues --   -0.44504  -0.44484  -0.44410  -0.44294  -0.44097
 Alpha  occ. eigenvalues --   -0.43795  -0.43792  -0.43605  -0.43517  -0.43368
 Alpha  occ. eigenvalues --   -0.43099  -0.42855  -0.42613  -0.42145  -0.42139
 Alpha  occ. eigenvalues --   -0.41960  -0.41537  -0.41489  -0.40992  -0.40712
 Alpha  occ. eigenvalues --   -0.40380  -0.40047  -0.39807  -0.39803  -0.39658
 Alpha  occ. eigenvalues --   -0.39304  -0.39059  -0.38801  -0.38529  -0.38255
 Alpha  occ. eigenvalues --   -0.38217  -0.37728  -0.36887  -0.36627  -0.36240
 Alpha  occ. eigenvalues --   -0.36082  -0.35391  -0.35122  -0.33682  -0.33604
 Alpha  occ. eigenvalues --   -0.33530  -0.33087  -0.32828  -0.32758  -0.32569
 Alpha  occ. eigenvalues --   -0.32243  -0.31556  -0.31313  -0.26009  -0.25713
 Alpha  occ. eigenvalues --   -0.23077  -0.22874
 Alpha virt. eigenvalues --   -0.07247  -0.06710   0.00486   0.00613   0.01886
 Alpha virt. eigenvalues --    0.02502   0.04158   0.04368   0.05406   0.05437
 Alpha virt. eigenvalues --    0.07369   0.07853   0.08083   0.08391   0.08518

 Mulliken charges:
               1
     1  Mg   0.968332
     2  C   -0.020913
     3  C   -0.037338
     4  C   -0.069000
     5  C   -0.100273
     6  N   -0.318728
     7  C   -0.004717
     8  C   -0.025620
     9  C   -0.108464
    10  C    0.038765
    11  C    0.011071
    12  C    0.007094
    13  C   -0.131900
    14  H    0.014411
    15  N   -0.444760
    16  C    0.109608
    17  C   -0.188441
    18  C   -0.082200
    19  C    0.150472
    20  C    0.090798
    21  C    0.056747
    22  O   -0.260127
    23  C   -0.010038
    24  N   -0.429007
    25  C    0.096470
    26  C   -0.123062
    27  C   -0.081903
    28  C    0.106454
    29  C    0.028005
    30  C    0.012433
    31  C   -0.064909
    32  N   -0.411558
    33  C    0.113726
    34  C   -0.170893
    35  C   -0.051404
    36  C    0.144002
    37  C    0.088527
    38  C    0.114954
    39  O   -0.251375
    40  C   -0.028849
    41  C    0.225642
    42  O   -0.205714
    43  O   -0.332419
    44  C    0.138673
    45  H   -0.013824
    46  H    0.020111
    47  H   -0.001531
    48  H    0.046161
    49  H    0.041877
    50  H    0.041130
    51  H    0.040412
    52  H    0.039958
    53  H    0.033296
    54  H    0.031213
    55  H    0.045706
    56  H    0.057635
    57  H    0.058309
    58  H    0.041342
    59  H    0.035376
    60  H    0.054152
    61  H    0.046872
    62  H    0.066170
    63  H    0.046304
    64  H    0.023318
    65  H    0.051677
    66  H    0.034840
    67  H    0.038224
    68  H    0.040919
    69  H    0.022528
    70  H    0.029616
    71  H    0.032252
    72  H    0.037111
    73  H    0.030930
    74  H    0.058287
    75  H    0.072551
    76  H    0.069236
    77  H    0.047684
    78  H    0.056455
    79  H    0.061130
    80  Mg   0.973468
    81  C   -0.006776
    82  C   -0.074244
    83  C   -0.111415
    84  C   -0.060521
    85  N   -0.281969
    86  C   -0.051570
    87  C   -0.080794
    88  C   -0.121287
    89  C    0.037884
    90  C    0.009315
    91  C   -0.013343
    92  C   -0.096406
    93  H    0.058526
    94  N   -0.474706
    95  C    0.176522
    96  C   -0.164592
    97  C   -0.081277
    98  C    0.151169
    99  C    0.071168
   100  C    0.085498
   101  O   -0.233813
   102  C   -0.021577
   103  N   -0.406445
   104  C    0.075943
   105  C   -0.112145
   106  C   -0.035581
   107  C   -0.010302
   108  C    0.035617
   109  C   -0.020908
   110  C   -0.015341
   111  N   -0.411377
   112  C    0.152398
   113  C   -0.157165
   114  C   -0.070530
   115  C    0.151180
   116  C    0.070554
   117  C    0.116311
   118  O   -0.187579
   119  C   -0.074603
   120  C    0.263622
   121  O   -0.227574
   122  O   -0.360624
   123  C    0.124755
   124  H   -0.012628
   125  H    0.022411
   126  H   -0.019420
   127  H    0.047362
   128  H    0.048704
   129  H    0.042538
   130  H    0.025831
   131  H    0.050559
   132  H    0.035448
   133  H    0.032165
   134  H    0.051124
   135  H    0.036209
   136  H    0.044471
   137  H    0.048684
   138  H    0.050191
   139  H    0.058361
   140  H    0.054759
   141  H    0.041278
   142  H    0.041022
   143  H    0.042852
   144  H    0.049026
   145  H    0.031784
   146  H    0.040072
   147  H    0.022770
   148  H    0.034943
   149  H    0.032045
   150  H    0.032763
   151  H    0.035412
   152  H    0.029550
   153  H    0.041917
   154  H    0.064005
   155  H    0.079170
   156  H    0.049972
   157  H    0.069136
   158  H    0.056046
 Sum of Mulliken charges =  -0.00000

 Dipole moment (field-independent basis, Debye):
    X=              2.4832    Y=              0.7796    Z=              3.1404  Tot=              4.0787
 Quadrupole moment (field-independent basis, Debye-Ang):
   XX=           -321.8737   YY=           -493.3417   ZZ=           -488.5833
   XY=             31.1116   XZ=            -15.7639   YZ=             26.5816

 Normal termination of Gaussian 16 at Mon Sep 20 08:36:28 2021.
