 Gaussian 16, Revision A.03,
 Gaussian 16:  ES64L-G16RevA.03 25-Dec-2016

 --------------------------------
 #p wB97XD/Def2SVP td=(nstates=5)
 --------------------------------

 --------------------------------
 TDDFT excited states in gaussian
 --------------------------------
 Symbolic Z-matrix:
 Charge =  0 Multiplicity = 1

                         Standard orientation:
 ---------------------------------------------------------------------
 Center     Atomic      Atomic             Coordinates (Angstroms)
 Number     Number       Type             X           Y           Z
 ---------------------------------------------------------------------
      1         12           0       -9.808785   -0.011630   -0.475944
      2          6           0       -8.101271    0.002516    2.549503
      3          6           0       -9.489994    3.552811   -0.407560
      4          6           0      -10.964345    0.109135   -3.550904
      5          6           0       -9.347479   -3.492982   -0.634411
      6          7           0       -8.792181    1.554333    0.858066
      7          6           0       -8.243753    1.274321    2.089568
      8          6           0       -7.732816    2.561023    2.743488
      9          6           0       -8.447791    3.650499    1.897272
     10          6           0       -8.914798    2.903962    0.675432
     11          6           0       -9.654023    4.437506    2.544882
     12          6           0       -6.199957    2.679458    2.725386
     13          6           0       -5.635477    3.815002    3.490272
     14          1           0       -4.131481    3.696199    3.947413
     15          7           0      -10.178349    1.614934   -1.836382
     16          6           0      -10.010223    2.989947   -1.610168
     17          6           0      -10.432809    3.689804   -2.791151
     18          6           0      -10.742191    2.687072   -3.782577
     19          6           0      -10.656561    1.377707   -3.047996
     20          6           0      -10.355631    5.235282   -2.930582
     21          6           0      -11.146877    3.039190   -5.217580
     22          8           0      -11.372753    4.187825   -5.560551
     23          6           0      -11.275719    1.951509   -6.214495
     24          7           0      -10.310382   -1.522334   -1.792771
     25          6           0      -10.811999   -1.199457   -2.989686
     26          6           0      -10.952439   -2.501106   -3.878359
     27          6           0      -10.390931   -3.685543   -3.001422
     28          6           0       -9.918771   -2.835153   -1.699178
     29          6           0      -12.334704   -2.783398   -4.523578
     30          6           0       -9.195735   -4.356365   -3.711708
     31          6           0       -8.999691   -5.844210   -3.396149
     32          7           0       -8.919990   -1.523791    0.678592
     33          6           0       -8.916193   -2.885776    0.564086
     34          6           0       -8.360869   -3.453527    1.798489
     35          6           0       -8.127055   -2.375681    2.609635
     36          6           0       -8.404495   -1.230852    1.897568
     37          6           0       -8.234692   -4.944231    2.128996
     38          6           0       -7.614143   -1.987027    3.888893
     39          8           0       -7.227379   -2.628412    4.834630
     40          6           0       -7.589995   -0.422073    3.908379
     41          6           0       -8.538461    0.027868    4.964035
     42          8           0       -9.672112   -0.331594    5.122378
     43          8           0       -7.937359    1.071984    5.688207
     44          6           0       -8.756007    1.676914    6.700046
     45          1           0       -9.430074    4.631320   -0.250214
     46          1           0      -11.368369   -0.008516   -4.559019
     47          1           0       -9.252416   -4.580844   -0.619409
     48          1           0       -8.165344    2.576839    3.742955
     49          1           0       -7.807501    4.429515    1.484912
     50          1           0       -9.400203    5.484767    2.382193
     51          1           0      -10.048186    4.074702    3.494529
     52          1           0      -10.510962    4.272592    1.891930
     53          1           0       -5.753359    2.866570    1.748463
     54          1           0       -5.753659    1.750505    3.080472
     55          1           0       -6.272515    3.948202    4.364652
     56          1           0       -5.757756    4.727209    2.906555
     57          1           0       -9.482885    5.265439   -3.583670
     58          1           0      -10.033064    5.779843   -2.042936
     59          1           0      -11.162319    5.843954   -3.339500
     60          1           0      -10.353877    1.378643   -6.113907
     61          1           0      -11.281144    2.396804   -7.209505
     62          1           0      -12.173426    1.421856   -5.894659
     63          1           0      -10.291762   -2.340245   -4.730726
     64          1           0      -11.127658   -4.429324   -2.699569
     65          1           0      -12.258195   -2.567482   -5.589711
     66          1           0      -13.090925   -2.212817   -3.985463
     67          1           0      -12.546238   -3.852005   -4.486294
     68          1           0       -8.327417   -3.776031   -3.400756
     69          1           0       -9.191680   -4.226832   -4.794162
     70          1           0       -9.040487   -6.307995   -4.382312
     71          1           0       -9.712344   -6.254414   -2.680527
     72          1           0       -7.995319   -6.019392   -3.010405
     73          1           0       -7.295745   -5.262357    2.580860
     74          1           0       -8.405796   -5.402308    1.154547
     75          1           0       -9.144473   -5.208103    2.668458
     76          1           0       -6.565233   -0.136256    4.145904
     77          1           0       -8.336070    1.369646    7.657869
     78          1           0       -9.828520    1.481200    6.709517
     79          1           0       -8.673770    2.756642    6.578420
     80         12           0        9.955359    0.080905   -0.246896
     81          6           0        7.397974   -2.114622    0.789255
     82          6           0        7.867509    2.717354    0.461222
     83          6           0       12.310438    2.236339   -1.290078
     84          6           0       11.805466   -2.619232   -1.483645
     85          7           0        7.962949    0.185559    0.647886
     86          6           0        7.072921   -0.732607    1.013413
     87          6           0        5.744196   -0.210533    1.598645
     88          6           0        5.927741    1.321393    1.156235
     89          6           0        7.354496    1.410581    0.672429
     90          6           0        4.947357    1.770176    0.099933
     91          6           0        5.605436   -0.389076    3.210611
     92          6           0        4.151197   -0.482387    3.681705
     93          1           0        3.797807   -1.816451    4.388288
     94          7           0       10.164641    2.228016   -0.253655
     95          6           0        9.118491    3.134471    0.048835
     96          6           0        9.716763    4.448194    0.125855
     97          6           0       11.018374    4.340852   -0.355684
     98          6           0       11.247710    2.891087   -0.647880
     99          6           0        8.941368    5.713326    0.441525
    100          6           0       12.112437    5.369510   -0.527883
    101          8           0       13.198913    5.025688   -0.892140
    102          6           0       11.909083    6.811512   -0.184641
    103          7           0       11.694249   -0.116262   -1.414144
    104          6           0       12.550299    0.918540   -1.655150
    105          6           0       13.796555    0.301666   -2.348741
    106          6           0       13.861625   -1.144372   -1.890849
    107          6           0       12.361744   -1.369316   -1.586664
    108          6           0       13.604401    0.343715   -3.864046
    109          6           0       14.767042   -1.392044   -0.741551
    110          6           0       14.701148   -0.475721    0.455151
    111          7           0        9.727842   -1.964674   -0.327959
    112          6           0       10.534917   -2.952727   -0.859809
    113          6           0        9.897853   -4.258871   -0.631227
    114          6           0        8.693253   -3.960262    0.028962
    115          6           0        8.640968   -2.601871    0.183939
    116          6           0       10.408732   -5.565439   -1.062305
    117          6           0        7.565818   -4.512382    0.731067
    118          8           0        7.238737   -5.714274    0.957876
    119          6           0        6.698932   -3.282092    1.278738
    120          6           0        5.343708   -3.395559    0.630033
    121          8           0        5.198166   -3.581862   -0.541637
    122          8           0        4.232188   -3.205559    1.495105
    123          6           0        2.921693   -2.995053    0.808002
    124          1           0        7.201972    3.565686    0.630592
    125          1           0       13.053628    2.903300   -1.732811
    126          1           0       12.401593   -3.511843   -1.685796
    127          1           0        4.905374   -0.756667    1.165316
    128          1           0        5.765609    1.878959    2.079523
    129          1           0        4.145498    2.283005    0.630847
    130          1           0        4.622546    0.957149   -0.549709
    131          1           0        5.473180    2.572426   -0.417657
    132          1           0        6.058287    0.463704    3.717321
    133          1           0        6.172153   -1.256056    3.550739
    134          1           0        3.611903   -0.310636    2.749939
    135          1           0        3.868667    0.360699    4.311878
    136          1           0        8.037220    5.355936    0.932905
    137          1           0        8.661878    6.075739   -0.547328
    138          1           0        9.489738    6.384253    1.103085
    139          1           0       11.880138    6.731803    0.902191
    140          1           0       10.966404    7.233026   -0.532567
    141          1           0       12.750154    7.408082   -0.539582
    142          1           0       14.734954    0.825650   -2.170558
    143          1           0       14.225476   -1.853042   -2.634084
    144          1           0       13.313403   -0.560883   -4.398114
    145          1           0       14.538499    0.699608   -4.298552
    146          1           0       12.859285    1.108614   -4.085699
    147          1           0       15.810047   -1.457573   -1.052210
    148          1           0       14.488726   -2.389739   -0.402584
    149          1           0       14.294213   -1.080982    1.265700
    150          1           0       14.131900    0.454095    0.474633
    151          1           0       15.721874   -0.228888    0.746770
    152          1           0       10.327773   -5.618796   -2.147932
    153          1           0        9.785716   -6.277042   -0.520600
    154          1           0       11.470397   -5.673733   -0.836364
    155          1           0        6.724664   -3.393301    2.362902
    156          1           0        2.524384   -3.945680    0.452397
    157          1           0        2.983675   -2.302932   -0.033014
    158          1           0        2.105379   -2.639315    1.435986
 ---------------------------------------------------------------------

 SCF Done:  E(RwB97XD) =  -4070.60972183     A.U. after   19 cycles

 Excitation energies and oscillator strengths:

 Excited State   1:      Singlet-A      1.6518 eV  750.58 nm  f=0.3321  <S**2>=0.000
     310 -> 316       -0.17749
     312 -> 314        0.68436
     310 <- 316       -0.11363
 This state for optimization and/or second-order correction.
 Total Energy, E(TD-HF/TD-DFT) =  -4070.54901770
 Copying the excited state density for this state as the 1-particle RhoCI density.

 Excited State   2:      Singlet-A      1.7218 eV  720.08 nm  f=0.4194  <S**2>=0.000
     309 -> 315        0.17610
     311 -> 313        0.68435
     309 <- 315        0.11109

 Excited State   3:      Singlet-A      2.1346 eV  580.82 nm  f=0.1174  <S**2>=0.000
     310 -> 314        0.64482
     312 -> 316        0.27134

 Excited State   4:      Singlet-A      2.2423 eV  552.93 nm  f=0.1137  <S**2>=0.000
     309 -> 313        0.63517
     311 -> 315       -0.29274

 Excited State   5:      Singlet-A      3.5352 eV  350.71 nm  f=0.0000  <S**2>=0.000
     312 -> 313        0.70683

 The electronic state is 1-A.
 Alpha  occ. eigenvalues --  -46.96094 -46.94919 -19.30284 -19.29631 -19.25504
 Alpha  occ. eigenvalues --  -19.24870 -19.24121 -19.23837 -19.23617 -19.23228
 Alpha  occ. eigenvalues --  -14.47991 -14.47314 -14.47066 -14.45893 -14.44950
 Alpha  occ. eigenvalues --  -14.44306 -14.43740 -14.43588 -10.43436 -10.43170
 Alpha  occ. eigenvalues --  -10.39156 -10.38937 -10.38706 -10.38207 -10.36526
 Alpha  occ. eigenvalues --  -10.35901 -10.35798 -10.35426 -10.35348 -10.35330
 Alpha  occ. eigenvalues --  -10.35293 -10.35131 -10.35062 -10.35055 -10.35027
 Alpha  occ. eigenvalues --  -10.34714 -10.34653 -10.34484 -10.33878 -10.33628
 Alpha  occ. eigenvalues --  -10.33310 -10.33246 -10.32893 -10.32770 -10.32670
 Alpha  occ. eigenvalues --  -10.32477 -10.32467 -10.32373 -10.32364 -10.32323
 Alpha  occ. eigenvalues --  -10.32293 -10.32283 -10.32272 -10.32264 -10.32223
 Alpha  occ. eigenvalues --  -10.32136 -10.32113 -10.32032 -10.31995 -10.31875
 Alpha  occ. eigenvalues --  -10.31697 -10.31669 -10.31516 -10.31121 -10.31105
 Alpha  occ. eigenvalues --  -10.31096 -10.30967 -10.30829 -10.30675 -10.30590
 Alpha  occ. eigenvalues --  -10.30583 -10.30512 -10.30477 -10.30442 -10.30258
 Alpha  occ. eigenvalues --  -10.30176 -10.30050 -10.29922 -10.29629 -10.29438
 Alpha  occ. eigenvalues --  -10.29265 -10.28937 -10.28887 -10.28351 -10.28243
 Alpha  occ. eigenvalues --  -10.28015  -3.21972  -3.20852  -1.95563  -1.95096
 Alpha  occ. eigenvalues --   -1.94926  -1.94464  -1.93952  -1.93839  -1.18866
 Alpha  occ. eigenvalues --   -1.17660  -1.14354  -1.12618  -1.12457  -1.11124
 Alpha  occ. eigenvalues --   -1.09495  -1.08794  -1.07276  -1.06684  -1.05925
 Alpha  occ. eigenvalues --   -1.05825  -1.05597  -1.04955  -1.04883  -1.03726
 Alpha  occ. eigenvalues --   -0.95316  -0.94871  -0.91957  -0.91430  -0.91280
 Alpha  occ. eigenvalues --   -0.91270  -0.90763  -0.90733  -0.90102  -0.89765
 Alpha  occ. eigenvalues --   -0.88815  -0.88505  -0.88073  -0.87981  -0.87251
 Alpha  occ. eigenvalues --   -0.86559  -0.85977  -0.85389  -0.85204  -0.84594
 Alpha  occ. eigenvalues --   -0.84558  -0.84381  -0.83330  -0.83000  -0.82920
 Alpha  occ. eigenvalues --   -0.81809  -0.80895  -0.79802  -0.79353  -0.79194
 Alpha  occ. eigenvalues --   -0.79165  -0.78964  -0.78219  -0.78157  -0.77571
 Alpha  occ. eigenvalues --   -0.76903  -0.75292  -0.74393  -0.74126  -0.73271
 Alpha  occ. eigenvalues --   -0.71576  -0.71420  -0.71031  -0.70804  -0.69860
 Alpha  occ. eigenvalues --   -0.69767  -0.69037  -0.68877  -0.68053  -0.67729
 Alpha  occ. eigenvalues --   -0.67660  -0.67068  -0.66920  -0.66710  -0.66160
 Alpha  occ. eigenvalues --   -0.65303  -0.64768  -0.63697  -0.62390  -0.62388
 Alpha  occ. eigenvalues --   -0.61965  -0.61861  -0.61397  -0.61113  -0.60916
 Alpha  occ. eigenvalues --   -0.60893  -0.60536  -0.60480  -0.59643  -0.59560
 Alpha  occ. eigenvalues --   -0.58581  -0.58388  -0.57936  -0.57720  -0.57546
 Alpha  occ. eigenvalues --   -0.56914  -0.56649  -0.56438  -0.56413  -0.56023
 Alpha  occ. eigenvalues --   -0.55963  -0.55893  -0.55632  -0.55622  -0.55563
 Alpha  occ. eigenvalues --   -0.55367  -0.55204  -0.54934  -0.54674  -0.54319
 Alpha  occ. eigenvalues --   -0.53938  -0.53773  -0.53749  -0.53666  -0.53596
 Alpha  occ. eigenvalues --   -0.53397  -0.52888  -0.52737  -0.52691  -0.52578
 Alpha  occ. eigenvalues --   -0.52374  -0.52297  -0.52166  -0.51884  -0.51878
 Alpha  occ. eigenvalues --   -0.51589  -0.51503  -0.51327  -0.51042  -0.51024
 Alpha  occ. eigenvalues --   -0.50976  -0.50903  -0.50360  -0.50227  -0.50143
 Alpha  occ. eigenvalues --   -0.50117  -0.49638  -0.49560  -0.49538  -0.49420
 Alpha  occ. eigenvalues --   -0.49147  -0.49046  -0.49041  -0.48625  -0.48498
 Alpha  occ. eigenvalues --   -0.48432  -0.48243  -0.48207  -0.47872  -0.47762
 Alpha  occ. eigenvalues --   -0.47418  -0.47383  -0.47293  -0.47090  -0.47066
 Alpha  occ. eigenvalues --   -0.46877  -0.46754  -0.46193  -0.46182  -0.46038
 Alpha  occ. eigenvalues --   -0.45959  -0.45724  -0.45615  -0.45404  -0.45392
 Alpha  occ. eigenvalues --   -0.45223  -0.45107  -0.45004  -0.44967  -0.44738
 Alpha  occ. eigenvalues --   -0.44728  -0.44427  -0.44421  -0.44336  -0.44326
 Alpha  occ. eigenvalues --   -0.44172  -0.43921  -0.43687  -0.43481  -0.43446
 Alpha  occ. eigenvalues --   -0.42912  -0.42856  -0.42555  -0.42265  -0.42224
 Alpha  occ. eigenvalues --   -0.42125  -0.41980  -0.41650  -0.41615  -0.41374
 Alpha  occ. eigenvalues --   -0.40803  -0.40268  -0.40221  -0.39749  -0.39648
 Alpha  occ. eigenvalues --   -0.39242  -0.39073  -0.39017  -0.38636  -0.38310
 Alpha  occ. eigenvalues --   -0.38173  -0.38113  -0.37299  -0.36570  -0.36464
 Alpha  occ. eigenvalues --   -0.36355  -0.36003  -0.35371  -0.34083  -0.33877
 Alpha  occ. eigenvalues --   -0.33350  -0.33137  -0.32699  -0.32345  -0.32298
 Alpha  occ. eigenvalues --   -0.32209  -0.32105  -0.31416  -0.26698  -0.26043
 Alpha  occ. eigenvalues --   -0.23570  -0.23173
 Alpha virt. eigenvalues --   -0.07461  -0.07265  -0.00109   0.00219   0.02512
 Alpha virt. eigenvalues --    0.02897   0.04331   0.04739   0.05124   0.06301
 Alpha virt. eigenvalues --    0.06761   0.07194   0.07480   0.07775   0.08183

 Mulliken charges:
               1
     1  Mg   0.953491
     2  C   -0.018849
     3  C   -0.078510
     4  C   -0.102116
     5  C   -0.070587
     6  N   -0.331665
     7  C   -0.062607
     8  C    0.031503
     9  C   -0.153851
    10  C    0.038737
    11  C    0.036042
    12  C    0.038453
    13  C   -0.108748
    14  H    0.039251
    15  N   -0.434372
    16  C    0.181888
    17  C   -0.135791
    18  C   -0.120989
    19  C    0.236183
    20  C    0.063155
    21  C    0.024874
    22  O   -0.229583
    23  C    0.002014
    24  N   -0.396456
    25  C    0.068470
    26  C   -0.119433
    27  C   -0.096880
    28  C    0.094321
    29  C    0.022008
    30  C   -0.030883
    31  C   -0.043203
    32  N   -0.425089
    33  C    0.085903
    34  C   -0.233580
    35  C    0.018459
    36  C    0.142834
    37  C    0.107340
    38  C    0.094308
    39  O   -0.186275
    40  C   -0.073765
    41  C    0.260134
    42  O   -0.212836
    43  O   -0.378686
    44  C    0.124708
    45  H   -0.006685
    46  H   -0.019393
    47  H   -0.005504
    48  H    0.020999
    49  H    0.030877
    50  H    0.043205
    51  H    0.049397
    52  H    0.029436
    53  H    0.029208
    54  H    0.035215
    55  H    0.036957
    56  H    0.039690
    57  H    0.058341
    58  H    0.019337
    59  H    0.074586
    60  H    0.052433
    61  H    0.058161
    62  H    0.079119
    63  H    0.040532
    64  H    0.042442
    65  H    0.036048
    66  H    0.050004
    67  H    0.035691
    68  H    0.032923
    69  H    0.030257
    70  H    0.038659
    71  H    0.042356
    72  H    0.039281
    73  H    0.070936
    74  H    0.005820
    75  H    0.058457
    76  H    0.072265
    77  H    0.057202
    78  H    0.062479
    79  H    0.039944
    80  Mg   0.953694
    81  C   -0.042952
    82  C   -0.110130
    83  C   -0.074466
    84  C   -0.071427
    85  N   -0.321054
    86  C   -0.004108
    87  C   -0.076434
    88  C   -0.141306
    89  C    0.116529
    90  C    0.056738
    91  C    0.009221
    92  C   -0.102068
    93  H    0.061821
    94  N   -0.444467
    95  C    0.147053
    96  C   -0.177146
    97  C   -0.058225
    98  C    0.148022
    99  C    0.068198
   100  C    0.023051
   101  O   -0.210005
   102  C   -0.009720
   103  N   -0.406348
   104  C    0.080428
   105  C   -0.093986
   106  C   -0.044068
   107  C    0.108114
   108  C    0.034274
   109  C    0.007495
   110  C   -0.069496
   111  N   -0.442772
   112  C    0.083767
   113  C   -0.209068
   114  C    0.006952
   115  C    0.127592
   116  C    0.079130
   117  C    0.099105
   118  O   -0.251303
   119  C   -0.045807
   120  C    0.263390
   121  O   -0.210669
   122  O   -0.401307
   123  C    0.135574
   124  H    0.006360
   125  H    0.021100
   126  H   -0.000462
   127  H    0.038281
   128  H    0.036022
   129  H    0.032106
   130  H    0.057708
   131  H    0.022576
   132  H    0.027264
   133  H    0.042838
   134  H    0.027403
   135  H    0.044684
   136  H    0.032581
   137  H    0.075935
   138  H    0.059572
   139  H    0.059849
   140  H    0.052585
   141  H    0.061859
   142  H    0.024944
   143  H    0.018153
   144  H    0.044914
   145  H    0.032852
   146  H    0.031217
   147  H    0.032052
   148  H    0.016201
   149  H    0.030736
   150  H    0.056748
   151  H    0.029878
   152  H    0.053794
   153  H    0.066252
   154  H    0.035043
   155  H    0.077990
   156  H    0.056994
   157  H    0.049404
   158  H    0.052756
 Sum of Mulliken charges =  -0.00000

 Dipole moment (field-independent basis, Debye):
    X=             -1.4896    Y=              7.5718    Z=             -1.6001  Tot=              7.8811
 Quadrupole moment (field-independent basis, Debye-Ang):
   XX=           -488.3893   YY=           -515.6147   ZZ=           -522.2353
   XY=             41.3445   XZ=             20.9799   YZ=             55.5617

 Normal termination of Gaussian 16 at Mon Sep 20 15:27:23 2021.
