 Gaussian 16, Revision A.03,
 Gaussian 16:  ES64L-G16RevA.03 25-Dec-2016

 --------------------------------
 #p wB97XD/Def2SVP td=(nstates=5)
 --------------------------------

 --------------------------------
 TDDFT excited states in gaussian
 --------------------------------
 Symbolic Z-matrix:
 Charge =  0 Multiplicity = 1

                         Standard orientation:
 ---------------------------------------------------------------------
 Center     Atomic      Atomic             Coordinates (Angstroms)
 Number     Number       Type             X           Y           Z
 ---------------------------------------------------------------------
      1         12           0       25.693531   -0.811924    0.039364
      2          6           0       26.394488    2.530199   -0.630022
      3          6           0       25.126769   -0.062423    3.274863
      4          6           0       25.477348   -4.125415    0.671440
      5          6           0       26.760600   -1.560687   -3.152893
      6          7           0       25.782889    1.081892    1.186898
      7          6           0       25.885294    2.341850    0.654383
      8          6           0       25.679212    3.364831    1.705929
      9          6           0       25.326577    2.604563    2.989676
     10          6           0       25.381834    1.090600    2.509254
     11          6           0       26.122648    2.885769    4.254628
     12          6           0       24.561455    4.466698    1.255809
     13          6           0       25.015545    5.939588    1.126744
     14          1           0       24.125170    7.067197    1.587862
     15          7           0       25.232874   -1.930873    1.701286
     16          6           0       25.041038   -1.437975    2.983274
     17          6           0       24.816293   -2.514656    3.877750
     18          6           0       24.917472   -3.726688    3.142397
     19          6           0       25.200653   -3.289190    1.771619
     20          6           0       24.403986   -2.179433    5.364380
     21          6           0       24.825617   -5.130268    3.738547
     22          8           0       24.991038   -6.188365    3.112863
     23          6           0       24.436355   -5.297055    5.141467
     24          7           0       26.289194   -2.650259   -0.973288
     25          6           0       25.998362   -3.870154   -0.571143
     26          6           0       26.520926   -4.923239   -1.574171
     27          6           0       26.426624   -4.034233   -2.876324
     28          6           0       26.470134   -2.619921   -2.306516
     29          6           0       27.964435   -5.531152   -1.422534
     30          6           0       25.147841   -4.256093   -3.818088
     31          6           0       23.810717   -4.034152   -3.239375
     32          7           0       26.505044    0.222250   -1.659884
     33          6           0       26.890964   -0.230987   -2.936613
     34          6           0       27.335948    0.878738   -3.717811
     35          6           0       27.232850    1.962508   -2.868668
     36          6           0       26.616001    1.520718   -1.652558
     37          6           0       28.022822    0.814348   -4.993252
     38          6           0       27.281083    3.348002   -2.829937
     39          8           0       27.637886    4.181979   -3.668514
     40          6           0       26.843934    3.810750   -1.365788
     41          6           0       28.089337    4.329027   -0.725930
     42          8           0       29.158054    3.803858   -0.494026
     43          8           0       27.826443    5.606843   -0.446395
     44          6           0       28.920087    6.367858    0.241857
     45          1           0       24.752325    0.328846    4.223074
     46          1           0       25.244424   -5.170099    0.884588
     47          1           0       27.032475   -1.805935   -4.181471
     48          1           0       26.645316    3.858236    1.804704
     49          1           0       24.280652    2.790304    3.232893
     50          1           0       26.834873    2.071235    4.128203
     51          1           0       25.551268    2.889685    5.183028
     52          1           0       26.698423    3.807152    4.337675
     53          1           0       23.717669    4.406972    1.942602
     54          1           0       24.176478    4.312286    0.247502
     55          1           0       25.108288    6.130243    0.057170
     56          1           0       26.022871    6.092540    1.511757
     57          1           0       25.069426   -2.721515    6.036004
     58          1           0       23.434971   -2.678245    5.343299
     59          1           0       24.485160   -1.147188    5.705087
     60          1           0       25.116074   -4.761457    5.802751
     61          1           0       24.701189   -6.322983    5.396171
     62          1           0       23.382100   -5.120996    5.356668
     63          1           0       25.734504   -5.661580   -1.731309
     64          1           0       27.307837   -4.326732   -3.446799
     65          1           0       28.743285   -4.831903   -1.120705
     66          1           0       28.142998   -5.949708   -2.413656
     67          1           0       27.970364   -6.329818   -0.680309
     68          1           0       25.078022   -5.267560   -4.219039
     69          1           0       25.084177   -3.482998   -4.583782
     70          1           0       23.696933   -2.952349   -3.293161
     71          1           0       23.624564   -4.314990   -2.202309
     72          1           0       22.944634   -4.439881   -3.761204
     73          1           0       29.057860    0.612663   -4.714789
     74          1           0       27.987113    1.724010   -5.592009
     75          1           0       27.593203    0.085215   -5.681070
     76          1           0       26.007373    4.509591   -1.364299
     77          1           0       28.572437    6.465095    1.270588
     78          1           0       29.072902    7.323901   -0.258362
     79          1           0       29.896455    5.887903    0.314258
     80         12           0      -26.494770   -0.538110   -0.050502
     81          6           0      -24.701473    2.430541   -0.566212
     82          6           0      -27.493526    0.712295    2.997970
     83          6           0      -28.149263   -3.353780    0.425250
     84          6           0      -25.246993   -1.709667   -3.118596
     85          7           0      -26.174741    1.391585    0.989348
     86          6           0      -25.388775    2.487010    0.631138
     87          6           0      -25.661857    3.766959    1.514776
     88          6           0      -26.403570    3.103601    2.659120
     89          6           0      -26.732514    1.623903    2.197564
     90          6           0      -25.469296    2.993368    3.949949
     91          6           0      -26.658630    4.640321    0.630636
     92          6           0      -26.411802    6.212644    0.599434
     93          1           0      -25.869222    6.667488    1.930144
     94          7           0      -27.505610   -1.252338    1.522403
     95          6           0      -27.808781   -0.636372    2.661604
     96          6           0      -28.630938   -1.441818    3.525311
     97          6           0      -28.995586   -2.556952    2.745126
     98          6           0      -28.149452   -2.458372    1.496650
     99          6           0      -29.058200   -1.092200    4.903687
    100          6           0      -30.056036   -3.613791    2.975790
    101          8           0      -30.438310   -4.386009    2.089253
    102          6           0      -30.623642   -3.831613    4.381126
    103          7           0      -26.620270   -2.318680   -1.197660
    104          6           0      -27.469163   -3.302476   -0.748239
    105          6           0      -27.588412   -4.369856   -1.833988
    106          6           0      -26.734016   -3.789577   -3.063863
    107          6           0      -26.200598   -2.504279   -2.487831
    108          6           0      -27.175019   -5.768357   -1.253534
    109          6           0      -27.458133   -3.632099   -4.391743
    110          6           0      -26.724535   -4.308640   -5.591868
    111          7           0      -25.219189    0.190553   -1.524210
    112          6           0      -24.775067   -0.420454   -2.738730
    113          6           0      -23.873049    0.436572   -3.421632
    114          6           0      -23.829969    1.566771   -2.587951
    115          6           0      -24.620941    1.328100   -1.444955
    116          6           0      -23.161932    0.266349   -4.725386
    117          6           0      -23.282159    2.875994   -2.430458
    118          8           0      -22.505359    3.526035   -3.089830
    119          6           0      -23.925642    3.508861   -1.164289
    120          6           0      -22.854567    4.112533   -0.330421
    121          8           0      -21.997162    3.528864    0.326556
    122          8           0      -23.028207    5.436910   -0.378074
    123          6           0      -22.143093    6.244209    0.435069
    124          1           0      -27.990835    1.035131    3.914842
    125          1           0      -28.708897   -4.265590    0.648494
    126          1           0      -24.885291   -2.007255   -4.105105
    127          1           0      -24.691916    4.254643    1.607105
    128          1           0      -27.332828    3.634415    2.863322
    129          1           0      -24.467552    3.385442    3.773099
    130          1           0      -25.395086    1.942463    4.228914
    131          1           0      -26.006959    3.557321    4.712245
    132          1           0      -27.700490    4.545274    0.935136
    133          1           0      -26.611081    4.224678   -0.376223
    134          1           0      -27.360605    6.748679    0.573414
    135          1           0      -25.937447    6.525006   -0.331258
    136          1           0      -30.134289   -0.918927    4.859346
    137          1           0      -28.588701   -0.170542    5.244684
    138          1           0      -28.851853   -1.875418    5.632527
    139          1           0      -31.027587   -4.836283    4.258499
    140          1           0      -31.368282   -3.092124    4.678052
    141          1           0      -29.909817   -3.941579    5.197277
    142          1           0      -28.595410   -4.550391   -2.209993
    143          1           0      -25.880902   -4.448132   -3.227476
    144          1           0      -27.940913   -6.464957   -1.594684
    145          1           0      -27.052118   -5.780061   -0.170502
    146          1           0      -26.322838   -6.183695   -1.792769
    147          1           0      -27.667839   -2.599304   -4.668281
    148          1           0      -28.349751   -4.250206   -4.277456
    149          1           0      -25.866840   -4.884752   -5.244277
    150          1           0      -26.234613   -3.573617   -6.230153
    151          1           0      -27.394054   -4.967251   -6.145493
    152          1           0      -23.977276    0.423477   -5.432062
    153          1           0      -22.703760   -0.722153   -4.701727
    154          1           0      -22.428347    1.050719   -4.906332
    155          1           0      -24.490717    4.349163   -1.569829
    156          1           0      -21.104591    6.000392    0.209348
    157          1           0      -22.197659    6.098386    1.514420
    158          1           0      -22.350677    7.280677    0.168481
 ---------------------------------------------------------------------

 SCF Done:  E(RwB97XD) =  -4070.61192865     A.U. after   20 cycles

 Excitation energies and oscillator strengths:

 Excited State   1:      Singlet-A      1.6463 eV  753.09 nm  f=0.3699  <S**2>=0.000
     310 -> 316        0.18129
     311 -> 313        0.68365
     310 <- 316        0.11553
 This state for optimization and/or second-order correction.
 Total Energy, E(TD-HF/TD-DFT) =  -4070.55142680
 Copying the excited state density for this state as the 1-particle RhoCI density.

 Excited State   2:      Singlet-A      1.6810 eV  737.54 nm  f=0.3842  <S**2>=0.000
     309 -> 315        0.16573
     312 -> 314        0.68558
     309 <- 315        0.10525

 Excited State   3:      Singlet-A      2.1205 eV  584.70 nm  f=0.1343  <S**2>=0.000
     310 -> 313        0.64942
     311 -> 316       -0.26630

 Excited State   4:      Singlet-A      2.2342 eV  554.93 nm  f=0.1201  <S**2>=0.000
     309 -> 314        0.63519
     312 -> 315       -0.28430

 Excited State   5:      Singlet-A      3.3232 eV  373.08 nm  f=0.0023  <S**2>=0.000
     305 -> 313       -0.37114
     305 -> 317        0.23952
     305 -> 319       -0.16358
     306 -> 313        0.45658
     306 -> 317       -0.15070

 The electronic state is 1-A.
 Alpha  occ. eigenvalues --  -46.95676 -46.94120 -19.30448 -19.30270 -19.25018
 Alpha  occ. eigenvalues --  -19.24024 -19.23728 -19.23692 -19.23307 -19.22382
 Alpha  occ. eigenvalues --  -14.46855 -14.46574 -14.46418 -14.46227 -14.44861
 Alpha  occ. eigenvalues --  -14.44305 -14.43571 -14.43034 -10.42448 -10.42142
 Alpha  occ. eigenvalues --  -10.40280 -10.39031 -10.38193 -10.37100 -10.36006
 Alpha  occ. eigenvalues --  -10.35467 -10.35463 -10.35230 -10.35152 -10.35090
 Alpha  occ. eigenvalues --  -10.34750 -10.34748 -10.34625 -10.34463 -10.34295
 Alpha  occ. eigenvalues --  -10.34097 -10.34058 -10.33811 -10.33297 -10.33118
 Alpha  occ. eigenvalues --  -10.32995 -10.32971 -10.32870 -10.32802 -10.32603
 Alpha  occ. eigenvalues --  -10.32568 -10.32509 -10.32399 -10.32287 -10.32279
 Alpha  occ. eigenvalues --  -10.32172 -10.32000 -10.31947 -10.31841 -10.31828
 Alpha  occ. eigenvalues --  -10.31637 -10.31611 -10.31596 -10.31538 -10.31470
 Alpha  occ. eigenvalues --  -10.31456 -10.31431 -10.31187 -10.31129 -10.31106
 Alpha  occ. eigenvalues --  -10.31101 -10.30691 -10.30599 -10.30557 -10.30526
 Alpha  occ. eigenvalues --  -10.30318 -10.30310 -10.30164 -10.30140 -10.30109
 Alpha  occ. eigenvalues --  -10.29957 -10.29923 -10.29914 -10.29846 -10.29620
 Alpha  occ. eigenvalues --  -10.29592 -10.29444 -10.29240 -10.28698 -10.28535
 Alpha  occ. eigenvalues --  -10.27547  -3.21539  -3.20238  -1.95128  -1.94636
 Alpha  occ. eigenvalues --   -1.94525  -1.93845  -1.93348  -1.93242  -1.19267
 Alpha  occ. eigenvalues --   -1.19187  -1.12634  -1.11538  -1.11329  -1.10818
 Alpha  occ. eigenvalues --   -1.09555  -1.09249  -1.07427  -1.07086  -1.06300
 Alpha  occ. eigenvalues --   -1.05903  -1.05396  -1.04919  -1.04652  -1.04360
 Alpha  occ. eigenvalues --   -0.94598  -0.94193  -0.91618  -0.91118  -0.90613
 Alpha  occ. eigenvalues --   -0.90419  -0.90311  -0.90293  -0.89898  -0.89881
 Alpha  occ. eigenvalues --   -0.89522  -0.88943  -0.88803  -0.88588  -0.86562
 Alpha  occ. eigenvalues --   -0.86146  -0.85880  -0.85425  -0.84984  -0.84263
 Alpha  occ. eigenvalues --   -0.83931  -0.83775  -0.83509  -0.83215  -0.82696
 Alpha  occ. eigenvalues --   -0.82319  -0.80918  -0.80709  -0.79594  -0.79339
 Alpha  occ. eigenvalues --   -0.79304  -0.78677  -0.77890  -0.77507  -0.77290
 Alpha  occ. eigenvalues --   -0.76916  -0.75476  -0.75088  -0.73658  -0.73392
 Alpha  occ. eigenvalues --   -0.71336  -0.71176  -0.71036  -0.70793  -0.69727
 Alpha  occ. eigenvalues --   -0.69613  -0.69334  -0.69164  -0.67725  -0.67374
 Alpha  occ. eigenvalues --   -0.67374  -0.67167  -0.66999  -0.66772  -0.66490
 Alpha  occ. eigenvalues --   -0.65952  -0.64432  -0.64045  -0.62832  -0.62422
 Alpha  occ. eigenvalues --   -0.61909  -0.61541  -0.61305  -0.61153  -0.60606
 Alpha  occ. eigenvalues --   -0.60593  -0.60246  -0.59888  -0.59710  -0.59282
 Alpha  occ. eigenvalues --   -0.58669  -0.58417  -0.57691  -0.57576  -0.57474
 Alpha  occ. eigenvalues --   -0.57306  -0.56989  -0.56766  -0.56640  -0.56361
 Alpha  occ. eigenvalues --   -0.55753  -0.55501  -0.55289  -0.55160  -0.55155
 Alpha  occ. eigenvalues --   -0.54942  -0.54641  -0.54556  -0.54481  -0.54134
 Alpha  occ. eigenvalues --   -0.54060  -0.53842  -0.53679  -0.53220  -0.53118
 Alpha  occ. eigenvalues --   -0.53026  -0.53014  -0.52693  -0.52343  -0.52325
 Alpha  occ. eigenvalues --   -0.52222  -0.51953  -0.51723  -0.51656  -0.51548
 Alpha  occ. eigenvalues --   -0.51381  -0.51205  -0.51127  -0.50956  -0.50616
 Alpha  occ. eigenvalues --   -0.50493  -0.50446  -0.50436  -0.50273  -0.50023
 Alpha  occ. eigenvalues --   -0.49810  -0.49563  -0.49462  -0.49307  -0.49102
 Alpha  occ. eigenvalues --   -0.49095  -0.48759  -0.48650  -0.48606  -0.48462
 Alpha  occ. eigenvalues --   -0.48314  -0.48171  -0.48008  -0.47910  -0.47752
 Alpha  occ. eigenvalues --   -0.47214  -0.47172  -0.46936  -0.46626  -0.46557
 Alpha  occ. eigenvalues --   -0.46482  -0.46389  -0.46387  -0.46235  -0.46076
 Alpha  occ. eigenvalues --   -0.46027  -0.45666  -0.45616  -0.45601  -0.45290
 Alpha  occ. eigenvalues --   -0.45142  -0.44987  -0.44923  -0.44903  -0.44543
 Alpha  occ. eigenvalues --   -0.44462  -0.44277  -0.44139  -0.44056  -0.43861
 Alpha  occ. eigenvalues --   -0.43741  -0.43611  -0.43548  -0.43021  -0.43005
 Alpha  occ. eigenvalues --   -0.42832  -0.42703  -0.42637  -0.42304  -0.42080
 Alpha  occ. eigenvalues --   -0.41981  -0.41625  -0.41398  -0.40844  -0.40726
 Alpha  occ. eigenvalues --   -0.40194  -0.40031  -0.39970  -0.39632  -0.39616
 Alpha  occ. eigenvalues --   -0.39370  -0.39077  -0.38890  -0.38452  -0.38425
 Alpha  occ. eigenvalues --   -0.38325  -0.38044  -0.36468  -0.36247  -0.36227
 Alpha  occ. eigenvalues --   -0.35878  -0.35740  -0.34966  -0.34314  -0.33681
 Alpha  occ. eigenvalues --   -0.33579  -0.33122  -0.32966  -0.32704  -0.32504
 Alpha  occ. eigenvalues --   -0.32145  -0.31679  -0.31307  -0.26054  -0.25926
 Alpha  occ. eigenvalues --   -0.23252  -0.22879
 Alpha virt. eigenvalues --   -0.07338  -0.06929   0.00229   0.00293   0.02338
 Alpha virt. eigenvalues --    0.02534   0.04356   0.04962   0.05306   0.06453
 Alpha virt. eigenvalues --    0.07751   0.08113   0.08433   0.08626   0.08790

 Mulliken charges:
               1
     1  Mg   0.939119
     2  C   -0.014667
     3  C   -0.073779
     4  C   -0.062158
     5  C   -0.108106
     6  N   -0.378592
     7  C    0.014432
     8  C   -0.066709
     9  C   -0.052601
    10  C   -0.019086
    11  C    0.003423
    12  C    0.003834
    13  C   -0.135677
    14  H    0.038442
    15  N   -0.463612
    16  C    0.198323
    17  C   -0.182618
    18  C   -0.073541
    19  C    0.131179
    20  C    0.082968
    21  C    0.052687
    22  O   -0.248071
    23  C   -0.009907
    24  N   -0.296361
    25  C    0.020016
    26  C   -0.042420
    27  C   -0.112686
    28  C    0.095772
    29  C    0.041896
    30  C    0.013711
    31  C   -0.088459
    32  N   -0.408867
    33  C    0.114820
    34  C   -0.133399
    35  C    0.022773
    36  C    0.108303
    37  C    0.062403
    38  C    0.079759
    39  O   -0.226671
    40  C   -0.091688
    41  C    0.269337
    42  O   -0.244560
    43  O   -0.346887
    44  C    0.120627
    45  H   -0.007317
    46  H    0.014687
    47  H   -0.002417
    48  H    0.047202
    49  H    0.033958
    50  H    0.048081
    51  H    0.042008
    52  H    0.040849
    53  H    0.041765
    54  H    0.042552
    55  H    0.057937
    56  H    0.038045
    57  H    0.037954
    58  H    0.060569
    59  H    0.052915
    60  H    0.039018
    61  H    0.045898
    62  H    0.075423
    63  H    0.019740
    64  H    0.022998
    65  H    0.050102
    66  H    0.040560
    67  H    0.051581
    68  H    0.036076
    69  H    0.028695
    70  H    0.022187
    71  H    0.034905
    72  H    0.039581
    73  H    0.074321
    74  H    0.055809
    75  H    0.035996
    76  H    0.056766
    77  H    0.046826
    78  H    0.068344
    79  H    0.073681
    80  Mg   0.983850
    81  C    0.006746
    82  C   -0.113561
    83  C   -0.075937
    84  C   -0.074205
    85  N   -0.350947
    86  C   -0.049355
    87  C   -0.050113
    88  C   -0.097982
    89  C    0.098460
    90  C    0.023326
    91  C    0.001723
    92  C   -0.115080
    93  H    0.031952
    94  N   -0.466489
    95  C    0.153968
    96  C   -0.174208
    97  C   -0.070254
    98  C    0.138092
    99  C    0.077659
   100  C    0.062756
   101  O   -0.243510
   102  C   -0.045516
   103  N   -0.389990
   104  C    0.116182
   105  C   -0.106933
   106  C   -0.048753
   107  C    0.073158
   108  C    0.009941
   109  C    0.001436
   110  C   -0.071395
   111  N   -0.414346
   112  C    0.082124
   113  C   -0.193357
   114  C   -0.037888
   115  C    0.139265
   116  C    0.088169
   117  C    0.083093
   118  O   -0.205372
   119  C   -0.074169
   120  C    0.226241
   121  O   -0.256858
   122  O   -0.333934
   123  C    0.142525
   124  H   -0.000120
   125  H    0.028427
   126  H   -0.008039
   127  H    0.049751
   128  H    0.040044
   129  H    0.051982
   130  H    0.043566
   131  H    0.040177
   132  H    0.030994
   133  H    0.043346
   134  H    0.042809
   135  H    0.062691
   136  H    0.053257
   137  H    0.041093
   138  H    0.058498
   139  H    0.058590
   140  H    0.065478
   141  H    0.052894
   142  H    0.043234
   143  H    0.032374
   144  H    0.027655
   145  H    0.060855
   146  H    0.025934
   147  H    0.049342
   148  H    0.028169
   149  H    0.020862
   150  H    0.037412
   151  H    0.045768
   152  H    0.054238
   153  H    0.052866
   154  H    0.061480
   155  H    0.067093
   156  H    0.054642
   157  H    0.045135
   158  H    0.056989
 Sum of Mulliken charges =  -0.00000

 Dipole moment (field-independent basis, Debye):
    X=             -7.2234    Y=             -0.4241    Z=              6.1612  Tot=              9.5035
 Quadrupole moment (field-independent basis, Debye-Ang):
   XX=           -422.9760   YY=           -507.9516   ZZ=           -463.7365
   XY=            -15.0314   XZ=            -14.0637   YZ=             52.5756

 Normal termination of Gaussian 16 at Sat Sep 18 21:02:29 2021.
