 Gaussian 16, Revision A.03,
 Gaussian 16:  ES64L-G16RevA.03 25-Dec-2016

 --------------------------------
 #p wB97XD/Def2SVP td=(nstates=5)
 --------------------------------

 --------------------------------
 TDDFT excited states in gaussian
 --------------------------------
 Symbolic Z-matrix:
 Charge =  0 Multiplicity = 1

                         Standard orientation:
 ---------------------------------------------------------------------
 Center     Atomic      Atomic             Coordinates (Angstroms)
 Number     Number       Type             X           Y           Z
 ---------------------------------------------------------------------
      1         12           0      -26.762342    0.626689    0.397543
      2          6           0      -25.337197   -2.727219   -0.033603
      3          6           0      -23.541328    1.749369   -0.189262
      4          6           0      -28.067038    3.454454   -0.289030
      5          6           0      -29.945017   -1.037568    0.509788
      6          7           0      -24.647478   -0.471000   -0.216626
      7          6           0      -24.317263   -1.804967   -0.315378
      8          6           0      -22.825604   -1.937802   -0.795043
      9          6           0      -22.220145   -0.542458   -0.563441
     10          6           0      -23.529768    0.296779   -0.309586
     11          6           0      -21.219157   -0.342123    0.649313
     12          6           0      -22.679892   -2.479894   -2.258187
     13          6           0      -21.545919   -3.451265   -2.505887
     14          1           0      -20.272000   -2.879701   -3.203746
     15          7           0      -25.943304    2.375923   -0.034503
     16          6           0      -24.616833    2.697383   -0.132805
     17          6           0      -24.469943    4.148583   -0.429846
     18          6           0      -25.802729    4.633589   -0.481940
     19          6           0      -26.666001    3.468122   -0.307618
     20          6           0      -23.164334    4.912877   -0.703625
     21          6           0      -26.296654    6.020873   -0.902194
     22          8           0      -25.444192    6.875186   -1.129274
     23          6           0      -27.650823    6.395863   -1.015324
     24          7           0      -28.772730    1.063933   -0.118279
     25          6           0      -29.025744    2.421186   -0.099427
     26          6           0      -30.590113    2.626172   -0.092972
     27          6           0      -31.154387    1.161431   -0.152626
     28          6           0      -29.882858    0.353075    0.200476
     29          6           0      -31.155669    3.457721    1.090960
     30          6           0      -31.863732    0.668780   -1.477937
     31          6           0      -33.323678    1.091412   -1.717097
     32          7           0      -27.579514   -1.431575    0.322019
     33          6           0      -28.859029   -1.914531    0.510627
     34          6           0      -28.879006   -3.352095    0.632362
     35          6           0      -27.494576   -3.718131    0.438062
     36          6           0      -26.698406   -2.545824    0.190184
     37          6           0      -30.124113   -4.164159    0.814666
     38          6           0      -26.643705   -4.816095    0.316402
     39          8           0      -26.882533   -6.013377    0.234930
     40          6           0      -25.254409   -4.264907   -0.116915
     41          6           0      -24.295452   -4.795472    0.923120
     42          8           0      -23.234635   -5.359767    0.644140
     43          8           0      -24.614800   -4.454663    2.298940
     44          6           0      -23.487724   -4.674135    3.203957
     45          1           0      -22.524201    2.130076   -0.298726
     46          1           0      -28.646012    4.379585   -0.326010
     47          1           0      -30.970506   -1.391372    0.634194
     48          1           0      -22.283475   -2.545083   -0.068789
     49          1           0      -21.789533   -0.130866   -1.476269
     50          1           0      -20.238009   -0.256743    0.182713
     51          1           0      -21.191236   -1.225198    1.287013
     52          1           0      -21.448547    0.487936    1.317426
     53          1           0      -22.430712   -1.722034   -3.001364
     54          1           0      -23.583407   -3.012141   -2.556413
     55          1           0      -21.971803   -4.307718   -3.028615
     56          1           0      -21.207266   -3.813257   -1.534604
     57          1           0      -23.203559    5.892502   -0.226545
     58          1           0      -23.104056    4.942277   -1.791498
     59          1           0      -22.311693    4.402927   -0.257298
     60          1           0      -28.088456    6.381518   -0.016630
     61          1           0      -28.226843    5.820966   -1.740508
     62          1           0      -27.550774    7.378110   -1.478420
     63          1           0      -30.968993    3.135589   -0.978366
     64          1           0      -31.829925    0.962405    0.678970
     65          1           0      -31.879704    2.803497    1.576819
     66          1           0      -31.658428    4.333903    0.682712
     67          1           0      -30.269166    3.692426    1.681405
     68          1           0      -31.815307   -0.417709   -1.398167
     69          1           0      -31.355678    1.058724   -2.360184
     70          1           0      -33.536285    1.612387   -0.783122
     71          1           0      -33.990443    0.227953   -1.714815
     72          1           0      -33.521033    1.734141   -2.574690
     73          1           0      -30.760669   -3.905310   -0.030421
     74          1           0      -30.711566   -3.870417    1.684375
     75          1           0      -29.956538   -5.233453    0.685158
     76          1           0      -25.015436   -4.730503   -1.072867
     77          1           0      -23.805653   -3.942806    3.948010
     78          1           0      -22.527563   -4.578447    2.697016
     79          1           0      -23.642268   -5.656800    3.649758
     80         12           0       26.502116   -0.361637   -0.668885
     81          6           0       24.791838    1.599837    1.725383
     82          6           0       27.009632   -2.716495    1.765483
     83          6           0       28.634874   -1.869146   -2.705201
     84          6           0       26.311622    2.346126   -2.878679
     85          7           0       26.097352   -0.457612    1.548119
     86          6           0       25.281898    0.428770    2.256710
     87          6           0       24.886097   -0.192970    3.618702
     88          6           0       25.632046   -1.577154    3.613074
     89          6           0       26.281710   -1.654303    2.203652
     90          6           0       26.489508   -1.907368    4.822298
     91          6           0       23.381446   -0.323010    3.902188
     92          6           0       22.930077    0.346521    5.229245
     93          1           0       22.207457   -0.559092    6.201695
     94          7           0       27.591717   -2.118681   -0.496309
     95          6           0       27.716887   -2.949012    0.578542
     96          6           0       28.456402   -4.112307    0.150006
     97          6           0       29.075042   -3.807133   -1.137161
     98          6           0       28.435294   -2.539812   -1.455363
     99          6           0       28.760302   -5.358335    1.132650
    100          6           0       30.239762   -4.379291   -1.823666
    101          8           0       30.680748   -4.068972   -2.893473
    102          6           0       30.975975   -5.486770   -1.075668
    103          7           0       27.514739    0.291606   -2.463156
    104          6           0       28.305396   -0.563386   -3.140687
    105          6           0       28.600447   -0.030834   -4.544843
    106          6           0       27.577092    1.105696   -4.699028
    107          6           0       27.056252    1.258803   -3.287415
    108          6           0       30.106135    0.488287   -4.667507
    109          6           0       26.397939    0.602405   -5.677715
    110          6           0       25.424247   -0.447126   -5.075524
    111          7           0       25.632177    1.567190   -0.722382
    112          6           0       25.634948    2.513400   -1.675210
    113          6           0       24.887370    3.641798   -1.189027
    114          6           0       24.505488    3.307767    0.096748
    115          6           0       25.031390    2.046998    0.391841
    116          6           0       24.579401    4.956149   -1.880705
    117          6           0       23.806589    3.881425    1.249899
    118          8           0       23.316211    4.926113    1.574122
    119          6           0       23.892126    2.770235    2.329406
    120          6           0       24.574377    3.394900    3.489877
    121          8           0       25.648634    3.929396    3.374815
    122          8           0       23.820414    3.372779    4.652192
    123          6           0       24.306308    4.238558    5.778283
    124          1           0       26.983428   -3.541920    2.480105
    125          1           0       29.236168   -2.378014   -3.461993
    126          1           0       26.020807    3.143651   -3.565624
    127          1           0       25.356576    0.384694    4.414621
    128          1           0       24.879929   -2.361812    3.697420
    129          1           0       26.703352   -1.015191    5.408987
    130          1           0       27.423942   -2.411250    4.573958
    131          1           0       25.868164   -2.531849    5.463721
    132          1           0       22.965089   -1.324807    4.007915
    133          1           0       22.797565    0.110774    3.090708
    134          1           0       22.388714    1.274329    5.044602
    135          1           0       23.829521    0.641934    5.767959
    136          1           0       28.520448   -6.273802    0.591940
    137          1           0       28.164288   -5.411281    2.042945
    138          1           0       29.756388   -5.453914    1.564764
    139          1           0       30.222228   -6.269096   -0.983581
    140          1           0       31.237226   -5.044387   -0.114862
    141          1           0       31.819330   -5.918900   -1.615182
    142          1           0       28.386191   -0.748640   -5.337358
    143          1           0       27.901137    2.101801   -5.001292
    144          1           0       30.399814    0.358679   -5.709500
    145          1           0       30.878873   -0.006779   -4.078412
    146          1           0       30.037060    1.550874   -4.435132
    147          1           0       26.772240    0.214954   -6.625079
    148          1           0       25.697468    1.419237   -5.852113
    149          1           0       24.739090   -0.911102   -5.784230
    150          1           0       24.815378    0.063128   -4.329014
    151          1           0       26.028220   -1.205497   -4.576270
    152          1           0       23.971348    4.859327   -2.779861
    153          1           0       25.562475    5.329927   -2.165794
    154          1           0       24.162751    5.701179   -1.202913
    155          1           0       22.847184    2.585963    2.578246
    156          1           0       24.174051    3.531469    6.597204
    157          1           0       23.679674    5.114555    5.944766
    158          1           0       25.320369    4.637354    5.767375
 ---------------------------------------------------------------------

 SCF Done:  E(RwB97XD) =  -4070.56847113     A.U. after   20 cycles

 Excitation energies and oscillator strengths:

 Excited State   1:      Singlet-A      1.6442 eV  754.07 nm  f=0.3958  <S**2>=0.000
     310 -> 316        0.18144
     311 -> 313        0.68500
     310 <- 316        0.11693
 This state for optimization and/or second-order correction.
 Total Energy, E(TD-HF/TD-DFT) =  -4070.50804778
 Copying the excited state density for this state as the 1-particle RhoCI density.

 Excited State   2:      Singlet-A      1.6685 eV  743.07 nm  f=0.3575  <S**2>=0.000
     309 -> 315       -0.20209
     312 -> 314        0.67709
     309 <- 315       -0.11956

 Excited State   3:      Singlet-A      2.1359 eV  580.49 nm  f=0.1349  <S**2>=0.000
     310 -> 313        0.65466
     311 -> 316       -0.25212

 Excited State   4:      Singlet-A      2.1894 eV  566.28 nm  f=0.0673  <S**2>=0.000
     309 -> 314        0.61434
     312 -> 315        0.33149

 Excited State   5:      Singlet-A      3.2142 eV  385.73 nm  f=0.0157  <S**2>=0.000
     308 -> 314        0.61820
     308 -> 317       -0.12005
     312 -> 315       -0.24313

 The electronic state is 1-A.
 Alpha  occ. eigenvalues --  -46.97103 -46.95885 -19.30375 -19.28944 -19.25037
 Alpha  occ. eigenvalues --  -19.24661 -19.24216 -19.23838 -19.23410 -19.22905
 Alpha  occ. eigenvalues --  -14.47352 -14.46728 -14.46570 -14.46518 -14.45421
 Alpha  occ. eigenvalues --  -14.44366 -14.43826 -14.43746 -10.43278 -10.42644
 Alpha  occ. eigenvalues --  -10.39187 -10.38900 -10.38311 -10.37492 -10.36416
 Alpha  occ. eigenvalues --  -10.35970 -10.35651 -10.35610 -10.35583 -10.35569
 Alpha  occ. eigenvalues --  -10.35462 -10.35009 -10.34798 -10.34775 -10.34764
 Alpha  occ. eigenvalues --  -10.34498 -10.34263 -10.33982 -10.33878 -10.33816
 Alpha  occ. eigenvalues --  -10.33372 -10.33371 -10.33239 -10.33197 -10.33070
 Alpha  occ. eigenvalues --  -10.32985 -10.32907 -10.32827 -10.32683 -10.32450
 Alpha  occ. eigenvalues --  -10.32378 -10.32304 -10.32280 -10.32267 -10.32117
 Alpha  occ. eigenvalues --  -10.32098 -10.32059 -10.32031 -10.31943 -10.31916
 Alpha  occ. eigenvalues --  -10.31597 -10.31547 -10.31402 -10.31364 -10.31082
 Alpha  occ. eigenvalues --  -10.30998 -10.30877 -10.30854 -10.30780 -10.30737
 Alpha  occ. eigenvalues --  -10.30680 -10.30622 -10.30575 -10.30517 -10.30477
 Alpha  occ. eigenvalues --  -10.30358 -10.30124 -10.30081 -10.30041 -10.29827
 Alpha  occ. eigenvalues --  -10.29810 -10.29656 -10.29464 -10.29260 -10.29107
 Alpha  occ. eigenvalues --  -10.28926  -3.23006  -3.21748  -1.96530  -1.96172
 Alpha  occ. eigenvalues --   -1.95925  -1.95316  -1.94882  -1.94709  -1.17851
 Alpha  occ. eigenvalues --   -1.16088  -1.13928  -1.13277  -1.12691  -1.11200
 Alpha  occ. eigenvalues --   -1.09830  -1.08557  -1.07211  -1.07114  -1.06336
 Alpha  occ. eigenvalues --   -1.05872  -1.05368  -1.05359  -1.04010  -1.03094
 Alpha  occ. eigenvalues --   -0.94881  -0.94351  -0.90902  -0.90829  -0.90776
 Alpha  occ. eigenvalues --   -0.90678  -0.90412  -0.90156  -0.89677  -0.88991
 Alpha  occ. eigenvalues --   -0.88891  -0.88516  -0.88276  -0.87861  -0.86931
 Alpha  occ. eigenvalues --   -0.86342  -0.85775  -0.85606  -0.85397  -0.84489
 Alpha  occ. eigenvalues --   -0.84397  -0.83152  -0.83121  -0.82824  -0.82116
 Alpha  occ. eigenvalues --   -0.81854  -0.80328  -0.80247  -0.79357  -0.79286
 Alpha  occ. eigenvalues --   -0.78966  -0.78709  -0.78082  -0.77774  -0.77237
 Alpha  occ. eigenvalues --   -0.77159  -0.75105  -0.74834  -0.73927  -0.73750
 Alpha  occ. eigenvalues --   -0.71289  -0.71207  -0.71107  -0.70559  -0.70064
 Alpha  occ. eigenvalues --   -0.69720  -0.69242  -0.69009  -0.67520  -0.67424
 Alpha  occ. eigenvalues --   -0.67336  -0.67291  -0.67146  -0.67008  -0.66457
 Alpha  occ. eigenvalues --   -0.66039  -0.64290  -0.63895  -0.62423  -0.62421
 Alpha  occ. eigenvalues --   -0.61819  -0.61697  -0.61290  -0.61271  -0.60916
 Alpha  occ. eigenvalues --   -0.60735  -0.60104  -0.59542  -0.59195  -0.59007
 Alpha  occ. eigenvalues --   -0.58676  -0.57985  -0.57599  -0.57344  -0.57166
 Alpha  occ. eigenvalues --   -0.56758  -0.56594  -0.56305  -0.56116  -0.55845
 Alpha  occ. eigenvalues --   -0.55691  -0.55484  -0.55366  -0.55236  -0.54933
 Alpha  occ. eigenvalues --   -0.54858  -0.54607  -0.54448  -0.54335  -0.54068
 Alpha  occ. eigenvalues --   -0.53916  -0.53834  -0.53688  -0.53473  -0.53428
 Alpha  occ. eigenvalues --   -0.53219  -0.52978  -0.52685  -0.52530  -0.52002
 Alpha  occ. eigenvalues --   -0.51824  -0.51806  -0.51746  -0.51517  -0.51440
 Alpha  occ. eigenvalues --   -0.51299  -0.51237  -0.51111  -0.50977  -0.50908
 Alpha  occ. eigenvalues --   -0.50572  -0.50344  -0.50343  -0.50196  -0.50096
 Alpha  occ. eigenvalues --   -0.49906  -0.49875  -0.49673  -0.49535  -0.49411
 Alpha  occ. eigenvalues --   -0.49248  -0.48962  -0.48666  -0.48478  -0.48371
 Alpha  occ. eigenvalues --   -0.48069  -0.48053  -0.48047  -0.47861  -0.47824
 Alpha  occ. eigenvalues --   -0.47493  -0.47325  -0.47239  -0.47047  -0.46914
 Alpha  occ. eigenvalues --   -0.46616  -0.46479  -0.46449  -0.46327  -0.46033
 Alpha  occ. eigenvalues --   -0.45997  -0.45733  -0.45599  -0.45572  -0.45361
 Alpha  occ. eigenvalues --   -0.45288  -0.45164  -0.44996  -0.44845  -0.44566
 Alpha  occ. eigenvalues --   -0.44395  -0.44394  -0.44301  -0.44269  -0.44051
 Alpha  occ. eigenvalues --   -0.44031  -0.43945  -0.43916  -0.43434  -0.43372
 Alpha  occ. eigenvalues --   -0.43301  -0.43265  -0.42798  -0.42232  -0.42177
 Alpha  occ. eigenvalues --   -0.42130  -0.41839  -0.41647  -0.41225  -0.40985
 Alpha  occ. eigenvalues --   -0.40786  -0.40232  -0.40017  -0.39820  -0.39811
 Alpha  occ. eigenvalues --   -0.39625  -0.39173  -0.39151  -0.38357  -0.38296
 Alpha  occ. eigenvalues --   -0.38216  -0.37352  -0.36555  -0.36405  -0.36042
 Alpha  occ. eigenvalues --   -0.35946  -0.35650  -0.35276  -0.33849  -0.33831
 Alpha  occ. eigenvalues --   -0.33536  -0.33249  -0.33215  -0.32561  -0.32377
 Alpha  occ. eigenvalues --   -0.32220  -0.32127  -0.30876  -0.26410  -0.26106
 Alpha  occ. eigenvalues --   -0.23396  -0.23277
 Alpha virt. eigenvalues --   -0.07536  -0.07145  -0.00812   0.00480   0.01869
 Alpha virt. eigenvalues --    0.02592   0.03633   0.04309   0.04577   0.04798
 Alpha virt. eigenvalues --    0.06807   0.06971   0.07554   0.07910   0.08140

 Mulliken charges:
               1
     1  Mg   0.966282
     2  C   -0.023730
     3  C   -0.063163
     4  C   -0.092048
     5  C   -0.100966
     6  N   -0.282661
     7  C   -0.034119
     8  C    0.018295
     9  C   -0.119634
    10  C   -0.008062
    11  C    0.015377
    12  C    0.017554
    13  C   -0.125811
    14  H    0.022200
    15  N   -0.499348
    16  C    0.163048
    17  C   -0.190077
    18  C   -0.055693
    19  C    0.215189
    20  C    0.097001
    21  C    0.017793
    22  O   -0.245764
    23  C    0.020145
    24  N   -0.384724
    25  C    0.048463
    26  C   -0.125809
    27  C   -0.090009
    28  C    0.044980
    29  C    0.037761
    30  C   -0.003808
    31  C   -0.042741
    32  N   -0.423548
    33  C    0.155300
    34  C   -0.159594
    35  C   -0.021083
    36  C    0.159058
    37  C    0.093622
    38  C    0.074459
    39  O   -0.216364
    40  C   -0.098767
    41  C    0.286696
    42  O   -0.256837
    43  O   -0.417817
    44  C    0.139164
    45  H   -0.001303
    46  H   -0.023792
    47  H   -0.001916
    48  H    0.034655
    49  H    0.044269
    50  H    0.048564
    51  H    0.036634
    52  H    0.049375
    53  H    0.048463
    54  H    0.043917
    55  H    0.057361
    56  H    0.052609
    57  H    0.068224
    58  H    0.069343
    59  H    0.030876
    60  H    0.075439
    61  H    0.064013
    62  H    0.054836
    63  H    0.035898
    64  H    0.019937
    65  H    0.037849
    66  H    0.042236
    67  H    0.042230
    68  H    0.028943
    69  H    0.036392
    70  H    0.015408
    71  H    0.040183
    72  H    0.050257
    73  H    0.034112
    74  H    0.047812
    75  H    0.062824
    76  H    0.072078
    77  H    0.050733
    78  H    0.068782
    79  H    0.052552
    80  Mg   0.945751
    81  C   -0.040550
    82  C   -0.093342
    83  C   -0.065122
    84  C   -0.068495
    85  N   -0.371960
    86  C    0.009038
    87  C   -0.037658
    88  C   -0.103058
    89  C    0.075307
    90  C    0.021453
    91  C    0.015365
    92  C   -0.142006
    93  H    0.025734
    94  N   -0.445225
    95  C    0.174534
    96  C   -0.128465
    97  C   -0.081756
    98  C    0.149845
    99  C    0.018082
   100  C    0.023496
   101  O   -0.210407
   102  C   -0.006142
   103  N   -0.330965
   104  C    0.048254
   105  C   -0.089225
   106  C   -0.066500
   107  C    0.055723
   108  C    0.021695
   109  C   -0.041503
   110  C   -0.066499
   111  N   -0.411725
   112  C    0.080749
   113  C   -0.175936
   114  C   -0.085157
   115  C    0.177961
   116  C    0.073476
   117  C    0.147795
   118  O   -0.174261
   119  C   -0.066903
   120  C    0.252381
   121  O   -0.231243
   122  O   -0.382063
   123  C    0.126252
   124  H   -0.009978
   125  H    0.025900
   126  H   -0.003888
   127  H    0.040900
   128  H    0.033971
   129  H    0.030240
   130  H    0.043341
   131  H    0.031383
   132  H    0.042755
   133  H    0.033004
   134  H    0.067820
   135  H    0.036373
   136  H    0.048991
   137  H    0.027025
   138  H    0.053809
   139  H    0.041806
   140  H    0.056568
   141  H    0.049686
   142  H    0.042170
   143  H    0.039927
   144  H    0.039824
   145  H    0.057661
   146  H    0.036728
   147  H    0.045244
   148  H    0.027643
   149  H    0.048348
   150  H    0.041039
   151  H    0.039426
   152  H    0.051882
   153  H    0.041787
   154  H    0.060830
   155  H    0.062970
   156  H    0.052997
   157  H    0.061574
   158  H    0.073521
 Sum of Mulliken charges =  -0.00000

 Dipole moment (field-independent basis, Debye):
    X=             -3.6715    Y=              1.8927    Z=              1.8634  Tot=              4.5315
 Quadrupole moment (field-independent basis, Debye-Ang):
   XX=           -442.8229   YY=           -576.1132   ZZ=           -475.5240
   XY=           -206.6597   XZ=            -17.6135   YZ=            -17.8106

 Normal termination of Gaussian 16 at Mon Sep 20 07:08:09 2021.
