 Gaussian 16, Revision A.03,
 Gaussian 16:  ES64L-G16RevA.03 25-Dec-2016

 --------------------------------
 #p wB97XD/Def2SVP td=(nstates=5)
 --------------------------------

 --------------------------------
 TDDFT excited states in gaussian
 --------------------------------
 Symbolic Z-matrix:
 Charge =  0 Multiplicity = 1

                         Standard orientation:
 ---------------------------------------------------------------------
 Center     Atomic      Atomic             Coordinates (Angstroms)
 Number     Number       Type             X           Y           Z
 ---------------------------------------------------------------------
      1         12           0      -13.134757   -0.591609    0.283311
      2          6           0      -13.216365    2.740814   -0.906155
      3          6           0      -11.673107    0.551956    3.102016
      4          6           0      -12.960495   -3.707552    1.272676
      5          6           0      -13.987392   -1.625634   -3.044098
      6          7           0      -12.397909    1.440715    1.011741
      7          6           0      -12.794259    2.636134    0.435846
      8          6           0      -12.522487    3.707948    1.435430
      9          6           0      -11.544110    3.077451    2.426929
     10          6           0      -11.875792    1.578162    2.221452
     11          6           0      -10.054093    3.377401    2.015122
     12          6           0      -13.809098    4.346485    2.190074
     13          6           0      -13.906504    5.885511    2.421956
     14          1           0      -12.661285    6.580316    3.044960
     15          7           0      -12.383307   -1.436863    1.991503
     16          6           0      -11.859744   -0.803351    2.999283
     17          6           0      -11.430245   -1.798453    3.997077
     18          6           0      -11.981407   -3.055832    3.604695
     19          6           0      -12.458056   -2.783781    2.218894
     20          6           0      -10.575377   -1.579711    5.298138
     21          6           0      -12.078978   -4.395539    4.333756
     22          8           0      -12.487974   -5.450010    3.811289
     23          6           0      -11.472995   -4.510332    5.651354
     24          7           0      -13.282462   -2.446544   -0.853805
     25          6           0      -13.276877   -3.638975   -0.134878
     26          6           0      -13.772520   -4.804189   -1.075549
     27          6           0      -14.208699   -4.060798   -2.362675
     28          6           0      -13.845661   -2.603106   -2.070719
     29          6           0      -12.746322   -5.927359   -1.227147
     30          6           0      -15.662797   -4.309252   -2.836688
     31          6           0      -15.911561   -4.446344   -4.356911
     32          7           0      -13.513366    0.309884   -1.609384
     33          6           0      -13.791724   -0.221281   -2.864803
     34          6           0      -14.115087    0.861357   -3.758835
     35          6           0      -13.846811    2.033119   -3.049646
     36          6           0      -13.489051    1.675483   -1.720463
     37          6           0      -14.616330    0.759072   -5.065956
     38          6           0      -13.875725    3.502604   -3.091731
     39          8           0      -14.198005    4.301279   -3.956969
     40          6           0      -13.484118    4.016732   -1.667759
     41          6           0      -12.287988    4.937033   -1.833772
     42          8           0      -11.096335    4.745252   -1.922016
     43          8           0      -12.871961    6.168249   -1.754749
     44          6           0      -11.988380    7.337871   -1.533945
     45          1           0      -11.281033    0.915632    4.054507
     46          1           0      -13.079015   -4.699907    1.712573
     47          1           0      -14.460658   -1.908324   -3.986244
     48          1           0      -12.046313    4.610446    1.051403
     49          1           0      -11.803666    3.285619    3.464620
     50          1           0       -9.372513    3.470556    2.859949
     51          1           0       -9.927751    4.347479    1.533782
     52          1           0       -9.746804    2.510979    1.430470
     53          1           0      -13.987483    3.803668    3.117729
     54          1           0      -14.716194    4.090522    1.641310
     55          1           0      -14.683456    5.951920    3.184421
     56          1           0      -14.165601    6.240412    1.424423
     57          1           0      -11.112732   -1.709330    6.237306
     58          1           0      -10.179758   -0.564854    5.248758
     59          1           0       -9.772308   -2.300314    5.452998
     60          1           0      -11.855898   -3.742941    6.324625
     61          1           0      -10.387762   -4.430503    5.586873
     62          1           0      -11.855137   -5.429913    6.093487
     63          1           0      -14.704469   -5.163343   -0.638737
     64          1           0      -13.512392   -4.263270   -3.176240
     65          1           0      -12.092114   -5.700356   -2.069565
     66          1           0      -13.170396   -6.897444   -1.484403
     67          1           0      -12.044357   -5.879826   -0.395282
     68          1           0      -16.388549   -3.604235   -2.431600
     69          1           0      -16.065208   -5.221999   -2.395250
     70          1           0      -16.249604   -3.455201   -4.659690
     71          1           0      -16.757190   -5.130144   -4.437303
     72          1           0      -14.996035   -4.753305   -4.861824
     73          1           0      -14.484530    1.582983   -5.766949
     74          1           0      -15.669635    0.491706   -4.975643
     75          1           0      -14.065214   -0.063776   -5.519812
     76          1           0      -14.326021    4.540848   -1.215802
     77          1           0      -12.506449    7.933994   -0.783265
     78          1           0      -11.814735    7.980469   -2.396715
     79          1           0      -11.034448    7.010658   -1.121202
     80         12           0       12.381587   -0.716071   -0.459085
     81          6           0       14.756043    1.986950   -0.273524
     82          6           0       10.039261    1.301480    0.805349
     83          6           0       10.558404   -3.461566    0.148378
     84          6           0       15.079450   -2.784160   -1.324419
     85          7           0       12.430919    1.348459    0.224357
     86          6           0       13.422507    2.327088    0.040165
     87          6           0       12.870464    3.770062    0.352626
     88          6           0       11.391003    3.483981    0.751272
     89          6           0       11.248443    1.954400    0.531153
     90          6           0       10.953992    3.898261    2.133442
     91          6           0       13.076474    4.801795   -0.881198
     92          6           0       13.778863    6.117290   -0.523048
     93          1           0       12.931533    7.403502   -0.847161
     94          7           0       10.483401   -1.020299    0.241079
     95          6           0        9.661726   -0.083807    0.725867
     96          6           0        8.395187   -0.660720    1.179902
     97          6           0        8.606198   -2.078254    1.065824
     98          6           0        9.937309   -2.257001    0.476521
     99          6           0        7.267050    0.144127    1.665448
    100          6           0        7.602541   -3.149939    1.595902
    101          8           0        7.782294   -4.344091    1.424930
    102          6           0        6.345798   -2.792510    2.323374
    103          7           0       12.770339   -2.748607   -0.577921
    104          6           0       11.782185   -3.708493   -0.387254
    105          6           0       12.319584   -5.139659   -0.717633
    106          6           0       13.643992   -4.838191   -1.513490
    107          6           0       13.836165   -3.359398   -1.177923
    108          6           0       12.414777   -6.172035    0.452644
    109          6           0       13.529934   -5.061252   -3.046432
    110          6           0       14.697166   -5.674823   -3.777743
    111          7           0       14.500323   -0.496378   -0.699018
    112          6           0       15.441036   -1.423342   -1.047960
    113          6           0       16.771185   -0.705764   -1.272936
    114          6           0       16.533545    0.625833   -1.031885
    115          6           0       15.159167    0.696197   -0.617883
    116          6           0       18.006346   -1.414507   -1.780386
    117          6           0       17.089040    1.965684   -0.963160
    118          8           0       18.276614    2.245166   -1.229727
    119          6           0       15.929348    2.953674   -0.347598
    120          6           0       16.232948    3.508606    1.028420
    121          8           0       16.522153    2.749077    1.974110
    122          8           0       16.323662    4.901133    1.035684
    123          6           0       17.014726    5.404254    2.217148
    124          1           0        9.198133    1.926228    1.112318
    125          1           0        9.873108   -4.294475    0.316951
    126          1           0       15.838492   -3.467416   -1.712238
    127          1           0       13.499194    4.084626    1.185369
    128          1           0       10.805321    4.168267    0.135867
    129          1           0       11.761595    4.322307    2.730304
    130          1           0       10.784312    2.912759    2.565814
    131          1           0       10.139380    4.623108    2.129492
    132          1           0       12.056878    4.960736   -1.231180
    133          1           0       13.569352    4.279073   -1.700482
    134          1           0       14.747228    6.098001   -1.023043
    135          1           0       13.964128    6.142195    0.551565
    136          1           0        6.848304   -0.040430    2.654243
    137          1           0        6.417729   -0.202265    1.077678
    138          1           0        7.305848    1.205037    1.417361
    139          1           0        5.767686   -2.200816    1.612583
    140          1           0        6.636903   -2.123963    3.134045
    141          1           0        5.908673   -3.739723    2.636812
    142          1           0       11.582633   -5.533247   -1.417740
    143          1           0       14.514029   -5.345491   -1.097283
    144          1           0       11.931179   -5.669135    1.289788
    145          1           0       13.426380   -6.516541    0.665387
    146          1           0       11.750401   -7.024095    0.303536
    147          1           0       13.386180   -4.019364   -3.331974
    148          1           0       12.638470   -5.601668   -3.365433
    149          1           0       14.260760   -6.392705   -4.472317
    150          1           0       15.368013   -6.232222   -3.123212
    151          1           0       15.098527   -4.884489   -4.412559
    152          1           0       17.748399   -2.467565   -1.891299
    153          1           0       18.764646   -1.372997   -0.998811
    154          1           0       18.365998   -0.921100   -2.683100
    155          1           0       15.730868    3.740954   -1.074857
    156          1           0       17.995721    5.840023    2.032944
    157          1           0       17.130408    4.668406    3.013045
    158          1           0       16.378976    6.189002    2.626334
 ---------------------------------------------------------------------

 SCF Done:  E(RwB97XD) =  -4070.59064133     A.U. after   19 cycles

 Excitation energies and oscillator strengths:

 Excited State   1:      Singlet-A      1.6410 eV  755.56 nm  f=0.4148  <S**2>=0.000
     309 -> 316       -0.17828
     312 -> 313        0.68459
     309 <- 316       -0.11651
 This state for optimization and/or second-order correction.
 Total Energy, E(TD-HF/TD-DFT) =  -4070.53033686
 Copying the excited state density for this state as the 1-particle RhoCI density.

 Excited State   2:      Singlet-A      1.6744 eV  740.46 nm  f=0.3824  <S**2>=0.000
     310 -> 315       -0.19670
     311 -> 314        0.67798
     310 <- 315       -0.11741

 Excited State   3:      Singlet-A      2.2067 eV  561.85 nm  f=0.0648  <S**2>=0.000
     310 -> 314        0.62028
     311 -> 315        0.32395

 Excited State   4:      Singlet-A      2.2310 eV  555.74 nm  f=0.0901  <S**2>=0.000
     309 -> 313        0.62828
     312 -> 316        0.31480

 Excited State   5:      Singlet-A      3.7569 eV  330.02 nm  f=0.0000  <S**2>=0.000
     312 -> 314        0.70706

 The electronic state is 1-A.
 Alpha  occ. eigenvalues --  -46.95756 -46.94727 -19.31927 -19.29662 -19.25811
 Alpha  occ. eigenvalues --  -19.25053 -19.25031 -19.24344 -19.23777 -19.23512
 Alpha  occ. eigenvalues --  -14.47166 -14.46415 -14.46232 -14.46050 -14.44477
 Alpha  occ. eigenvalues --  -14.44295 -14.43917 -14.43604 -10.44710 -10.43143
 Alpha  occ. eigenvalues --  -10.40597 -10.39535 -10.38881 -10.38842 -10.35822
 Alpha  occ. eigenvalues --  -10.35653 -10.35477 -10.35260 -10.34944 -10.34881
 Alpha  occ. eigenvalues --  -10.34867 -10.34722 -10.34372 -10.34342 -10.34100
 Alpha  occ. eigenvalues --  -10.34094 -10.34039 -10.34026 -10.33888 -10.33752
 Alpha  occ. eigenvalues --  -10.33697 -10.33609 -10.33465 -10.33170 -10.33045
 Alpha  occ. eigenvalues --  -10.33000 -10.32630 -10.32323 -10.32248 -10.32164
 Alpha  occ. eigenvalues --  -10.32014 -10.31969 -10.31878 -10.31724 -10.31689
 Alpha  occ. eigenvalues --  -10.31674 -10.31635 -10.31630 -10.31487 -10.31400
 Alpha  occ. eigenvalues --  -10.31390 -10.31350 -10.31300 -10.31276 -10.31248
 Alpha  occ. eigenvalues --  -10.30994 -10.30978 -10.30813 -10.30615 -10.30534
 Alpha  occ. eigenvalues --  -10.30341 -10.30277 -10.30036 -10.29981 -10.29960
 Alpha  occ. eigenvalues --  -10.29821 -10.29806 -10.29667 -10.29626 -10.29507
 Alpha  occ. eigenvalues --  -10.29350 -10.29328 -10.29221 -10.29188 -10.29137
 Alpha  occ. eigenvalues --  -10.28885  -3.21601  -3.20801  -1.95184  -1.94722
 Alpha  occ. eigenvalues --   -1.94559  -1.94373  -1.93911  -1.93801  -1.18522
 Alpha  occ. eigenvalues --   -1.18346  -1.12270  -1.11874  -1.11622  -1.11330
 Alpha  occ. eigenvalues --   -1.10162  -1.10024  -1.07234  -1.05995  -1.05911
 Alpha  occ. eigenvalues --   -1.05315  -1.05095  -1.04619  -1.04138  -1.03896
 Alpha  occ. eigenvalues --   -0.94794  -0.94623  -0.90979  -0.90808  -0.90590
 Alpha  occ. eigenvalues --   -0.90412  -0.89926  -0.89905  -0.89534  -0.89272
 Alpha  occ. eigenvalues --   -0.89121  -0.89119  -0.88853  -0.88063  -0.86187
 Alpha  occ. eigenvalues --   -0.86179  -0.85542  -0.85526  -0.84663  -0.84604
 Alpha  occ. eigenvalues --   -0.84447  -0.83819  -0.83494  -0.83151  -0.82615
 Alpha  occ. eigenvalues --   -0.82181  -0.80392  -0.80367  -0.79524  -0.79415
 Alpha  occ. eigenvalues --   -0.79002  -0.78862  -0.78131  -0.77837  -0.77097
 Alpha  occ. eigenvalues --   -0.76637  -0.74542  -0.74444  -0.73837  -0.72935
 Alpha  occ. eigenvalues --   -0.70999  -0.70907  -0.70708  -0.70319  -0.69822
 Alpha  occ. eigenvalues --   -0.69740  -0.69374  -0.68664  -0.67473  -0.67330
 Alpha  occ. eigenvalues --   -0.67249  -0.67018  -0.66927  -0.66886  -0.66374
 Alpha  occ. eigenvalues --   -0.66348  -0.64583  -0.63989  -0.62531  -0.62237
 Alpha  occ. eigenvalues --   -0.61737  -0.61608  -0.61278  -0.60876  -0.60488
 Alpha  occ. eigenvalues --   -0.60336  -0.60329  -0.59947  -0.59543  -0.59304
 Alpha  occ. eigenvalues --   -0.58236  -0.58204  -0.57905  -0.57397  -0.57184
 Alpha  occ. eigenvalues --   -0.57042  -0.56844  -0.56456  -0.55691  -0.55686
 Alpha  occ. eigenvalues --   -0.55555  -0.55431  -0.55226  -0.55184  -0.55102
 Alpha  occ. eigenvalues --   -0.54924  -0.54527  -0.54383  -0.54343  -0.54083
 Alpha  occ. eigenvalues --   -0.53746  -0.53647  -0.53547  -0.53532  -0.53433
 Alpha  occ. eigenvalues --   -0.53197  -0.53168  -0.53049  -0.52763  -0.52758
 Alpha  occ. eigenvalues --   -0.52395  -0.52169  -0.51944  -0.51639  -0.51548
 Alpha  occ. eigenvalues --   -0.51374  -0.51327  -0.51055  -0.50979  -0.50788
 Alpha  occ. eigenvalues --   -0.50714  -0.50555  -0.50246  -0.50147  -0.50066
 Alpha  occ. eigenvalues --   -0.49854  -0.49613  -0.49364  -0.49170  -0.49071
 Alpha  occ. eigenvalues --   -0.48913  -0.48901  -0.48671  -0.48619  -0.48413
 Alpha  occ. eigenvalues --   -0.48239  -0.47942  -0.47907  -0.47876  -0.47585
 Alpha  occ. eigenvalues --   -0.47512  -0.47308  -0.47017  -0.46867  -0.46652
 Alpha  occ. eigenvalues --   -0.46490  -0.46347  -0.46305  -0.46060  -0.46048
 Alpha  occ. eigenvalues --   -0.45933  -0.45807  -0.45704  -0.45660  -0.45541
 Alpha  occ. eigenvalues --   -0.45140  -0.44993  -0.44941  -0.44938  -0.44805
 Alpha  occ. eigenvalues --   -0.44734  -0.44584  -0.44279  -0.44132  -0.43961
 Alpha  occ. eigenvalues --   -0.43710  -0.43619  -0.43555  -0.43253  -0.43019
 Alpha  occ. eigenvalues --   -0.42843  -0.42669  -0.42489  -0.42441  -0.42169
 Alpha  occ. eigenvalues --   -0.42078  -0.41814  -0.41522  -0.41410  -0.41013
 Alpha  occ. eigenvalues --   -0.40711  -0.40191  -0.39739  -0.39732  -0.39473
 Alpha  occ. eigenvalues --   -0.39420  -0.39374  -0.38624  -0.38529  -0.38486
 Alpha  occ. eigenvalues --   -0.38019  -0.37882  -0.37075  -0.36704  -0.36420
 Alpha  occ. eigenvalues --   -0.35961  -0.35359  -0.35145  -0.33726  -0.33693
 Alpha  occ. eigenvalues --   -0.33496  -0.33409  -0.32775  -0.32594  -0.32561
 Alpha  occ. eigenvalues --   -0.32483  -0.31922  -0.31468  -0.26081  -0.25937
 Alpha  occ. eigenvalues --   -0.22821  -0.22562
 Alpha virt. eigenvalues --   -0.06750  -0.06668  -0.00191   0.00609   0.01882
 Alpha virt. eigenvalues --    0.01990   0.04239   0.04301   0.04897   0.04977
 Alpha virt. eigenvalues --    0.05135   0.07016   0.07800   0.07990   0.08029

 Mulliken charges:
               1
     1  Mg   0.942195
     2  C   -0.051950
     3  C   -0.101306
     4  C   -0.067582
     5  C   -0.090825
     6  N   -0.320357
     7  C    0.052220
     8  C   -0.094535
     9  C   -0.080752
    10  C   -0.005846
    11  C    0.041966
    12  C   -0.020885
    13  C   -0.113890
    14  H    0.029463
    15  N   -0.428151
    16  C    0.195182
    17  C   -0.167220
    18  C   -0.071010
    19  C    0.113690
    20  C    0.058548
    21  C    0.067087
    22  O   -0.250664
    23  C   -0.004467
    24  N   -0.356400
    25  C    0.033247
    26  C   -0.062131
    27  C   -0.056328
    28  C    0.068531
    29  C    0.048388
    30  C   -0.039108
    31  C   -0.040947
    32  N   -0.439416
    33  C    0.135238
    34  C   -0.196811
    35  C   -0.015775
    36  C    0.167514
    37  C    0.061230
    38  C    0.109520
    39  O   -0.199679
    40  C   -0.077120
    41  C    0.279505
    42  O   -0.226601
    43  O   -0.373800
    44  C    0.131613
    45  H   -0.012519
    46  H    0.026269
    47  H   -0.012786
    48  H    0.024436
    49  H    0.020091
    50  H    0.029182
    51  H    0.045821
    52  H    0.057363
    53  H    0.021618
    54  H    0.024596
    55  H    0.065279
    56  H    0.071828
    57  H    0.043790
    58  H    0.040869
    59  H    0.041542
    60  H    0.037786
    61  H    0.075216
    62  H    0.054742
    63  H    0.039275
    64  H    0.033361
    65  H    0.015959
    66  H    0.046804
    67  H    0.047944
    68  H    0.025322
    69  H    0.023046
    70  H    0.043252
    71  H    0.039930
    72  H    0.045452
    73  H    0.059997
    74  H    0.054238
    75  H    0.037943
    76  H    0.081427
    77  H    0.047581
    78  H    0.063797
    79  H    0.057969
    80  Mg   0.976351
    81  C   -0.099640
    82  C   -0.080755
    83  C   -0.088181
    84  C   -0.101340
    85  N   -0.370310
    86  C   -0.011627
    87  C   -0.072340
    88  C   -0.107035
    89  C    0.104659
    90  C    0.024229
    91  C    0.006513
    92  C   -0.108829
    93  H    0.027772
    94  N   -0.454713
    95  C    0.114173
    96  C   -0.149517
    97  C   -0.076226
    98  C    0.118089
    99  C    0.069257
   100  C    0.031575
   101  O   -0.238325
   102  C    0.011731
   103  N   -0.401082
   104  C    0.093513
   105  C   -0.058234
   106  C   -0.103710
   107  C    0.063711
   108  C    0.035204
   109  C   -0.016693
   110  C   -0.026209
   111  N   -0.388778
   112  C    0.149097
   113  C   -0.228873
   114  C    0.015708
   115  C    0.154335
   116  C    0.098529
   117  C    0.146797
   118  O   -0.221243
   119  C   -0.037354
   120  C    0.292838
   121  O   -0.256344
   122  O   -0.367176
   123  C    0.121137
   124  H   -0.014045
   125  H    0.016156
   126  H   -0.003798
   127  H    0.041572
   128  H    0.034259
   129  H    0.028829
   130  H    0.041512
   131  H    0.042996
   132  H    0.032087
   133  H    0.038044
   134  H    0.064341
   135  H    0.054438
   136  H    0.046673
   137  H    0.028494
   138  H    0.042706
   139  H    0.049627
   140  H    0.051903
   141  H    0.067678
   142  H    0.031035
   143  H    0.029142
   144  H    0.038527
   145  H    0.045295
   146  H    0.035511
   147  H    0.029400
   148  H    0.035004
   149  H    0.028957
   150  H    0.041803
   151  H    0.043832
   152  H    0.023010
   153  H    0.058975
   154  H    0.067099
   155  H    0.058205
   156  H    0.063430
   157  H    0.072019
   158  H    0.044600
 Sum of Mulliken charges =  -0.00000

 Dipole moment (field-independent basis, Debye):
    X=             -4.3453    Y=              1.0372    Z=              3.1654  Tot=              5.4751
 Quadrupole moment (field-independent basis, Debye-Ang):
   XX=           -564.5666   YY=           -495.4919   ZZ=           -495.3339
   XY=             12.2042   XZ=            -59.8658   YZ=             51.6564

 Normal termination of Gaussian 16 at Sun Sep 19 13:25:36 2021.
