 Gaussian 16, Revision A.03,
 Gaussian 16:  ES64L-G16RevA.03 25-Dec-2016

 --------------------------------
 #p wB97XD/Def2SVP td=(nstates=5)
 --------------------------------

 --------------------------------
 TDDFT excited states in gaussian
 --------------------------------
 Symbolic Z-matrix:
 Charge =  0 Multiplicity = 1

                         Standard orientation:
 ---------------------------------------------------------------------
 Center     Atomic      Atomic             Coordinates (Angstroms)
 Number     Number       Type             X           Y           Z
 ---------------------------------------------------------------------
      1         12           0        0.738410    0.151152   -0.454371
      2          6           0       -2.734669    0.165063   -0.129328
      3          6           0        0.725689   -3.176835   -0.489201
      4          6           0        3.997527    0.252944    0.571735
      5          6           0        0.704041    3.633483   -0.362385
      6          7           0       -0.866512   -1.350644   -0.489840
      7          6           0       -2.165287   -1.105198   -0.366832
      8          6           0       -2.959136   -2.446640   -0.567043
      9          6           0       -1.824742   -3.499195   -0.566082
     10          6           0       -0.560149   -2.649198   -0.487325
     11          6           0       -1.818321   -4.453735    0.729042
     12          6           0       -3.838570   -2.524991   -1.896625
     13          6           0       -5.167194   -3.157139   -1.659867
     14          1           0       -5.623480   -4.299643   -2.554143
     15          7           0        2.156183   -1.277452   -0.046693
     16          6           0        1.963147   -2.630242   -0.140991
     17          6           0        3.273555   -3.294236   -0.102506
     18          6           0        4.221203   -2.279610    0.208966
     19          6           0        3.438860   -1.035957    0.304183
     20          6           0        3.452936   -4.839101   -0.248289
     21          6           0        5.748926   -2.424212    0.480909
     22          8           0        6.493967   -1.485556    0.739157
     23          6           0        6.344269   -3.778710    0.396321
     24          7           0        2.106375    1.654811    0.052491
     25          6           0        3.412477    1.488584    0.522803
     26          6           0        3.970811    2.855646    0.997487
     27          6           0        3.162658    3.896763    0.105416
     28          6           0        1.922602    2.977222   -0.081186
     29          6           0        3.881448    3.052569    2.526075
     30          6           0        3.762557    4.279284   -1.217758
     31          6           0        3.663961    3.368501   -2.405347
     32          7           0       -0.670179    1.661271   -0.486821
     33          6           0       -0.560254    3.030286   -0.407059
     34          6           0       -1.869582    3.686799   -0.406340
     35          6           0       -2.801951    2.574636   -0.190305
     36          6           0       -1.986826    1.377461   -0.241588
     37          6           0       -2.120317    5.105962   -0.350205
     38          6           0       -4.191256    2.204302    0.050518
     39          8           0       -5.160624    2.839076    0.237656
     40          6           0       -4.201908    0.587820    0.018795
     41          6           0       -4.944882   -0.051399    1.164634
     42          8           0       -4.440350   -0.406055    2.225926
     43          8           0       -6.268211   -0.256604    0.775609
     44          6           0       -7.171152   -0.905232    1.743639
     45          1           0        0.910485   -4.233817   -0.693695
     46          1           0        5.034329    0.207774    0.912633
     47          1           0        0.763137    4.721211   -0.433648
     48          1           0       -3.599266   -2.676530    0.285077
     49          1           0       -1.811771   -4.196732   -1.403544
     50          1           0       -2.404106   -5.336152    0.470762
     51          1           0       -2.306216   -4.043924    1.613039
     52          1           0       -0.785950   -4.748894    0.920267
     53          1           0       -3.341870   -3.104183   -2.675215
     54          1           0       -4.022845   -1.573227   -2.395112
     55          1           0       -5.864619   -2.351068   -1.886148
     56          1           0       -5.400260   -3.494372   -0.650279
     57          1           0        3.394206   -5.237982    0.764015
     58          1           0        4.374554   -5.089042   -0.774438
     59          1           0        2.584002   -5.350088   -0.664318
     60          1           0        5.832054   -4.654877    0.793589
     61          1           0        7.321364   -3.779476    0.878783
     62          1           0        6.716696   -3.942200   -0.615355
     63          1           0        5.007917    2.832242    0.664109
     64          1           0        2.947401    4.821359    0.640738
     65          1           0        3.378284    3.954825    2.873779
     66          1           0        4.822756    2.872362    3.045757
     67          1           0        3.278941    2.258177    2.966206
     68          1           0        4.828834    4.498815   -1.179018
     69          1           0        3.305585    5.219621   -1.526385
     70          1           0        2.787846    3.759855   -2.922112
     71          1           0        3.457917    2.320477   -2.186778
     72          1           0        4.565639    3.468497   -3.010427
     73          1           0       -3.013246    5.271634   -0.953248
     74          1           0       -1.272400    5.599584   -0.824399
     75          1           0       -2.301892    5.415923    0.678427
     76          1           0       -4.714308    0.293412   -0.897115
     77          1           0       -7.095561   -0.341231    2.673703
     78          1           0       -6.847088   -1.924124    1.954003
     79          1           0       -8.230132   -1.008978    1.506632
 ---------------------------------------------------------------------

 SCF Done:  E(RwB97XD) =  -2035.31293930     A.U. after   19 cycles

 Excitation energies and oscillator strengths:

 Excited State   1:      Singlet-A      1.6238 eV  763.54 nm  f=0.3774  <S**2>=0.000
     155 ->158        -0.18269
     156 ->157         0.68419
     155 <-158        -0.11754
 This state for optimization and/or second-order correction.
 Total Energy, E(TD-HF/TD-DFT) =  -2035.25326529
 Copying the excited state density for this state as the 1-particle RhoCI density.

 Excited State   2:      Singlet-A      2.2000 eV  563.56 nm  f=0.1020  <S**2>=0.000
     155 ->157         0.63108
     156 ->158         0.30775

 Excited State   3:      Singlet-A      3.3921 eV  365.51 nm  f=0.0177  <S**2>=0.000
     154 ->157         0.66099
     156 ->158        -0.17901

 Excited State   4:      Singlet-A      3.5308 eV  351.15 nm  f=0.5961  <S**2>=0.000
     153 ->157        -0.21400
     154 ->157         0.18763
     155 ->157        -0.27987
     156 ->158         0.57956
     155 <-157         0.11055

 Excited State   5:      Singlet-A      3.6836 eV  336.58 nm  f=0.0926  <S**2>=0.000
     150 ->157         0.13424
     151 ->157        -0.19011
     151 ->159         0.12248
     152 ->157        -0.35229
     152 ->159         0.12170
     152 ->160         0.11334
     153 ->157         0.46099
     155 ->157        -0.10100
     156 ->158         0.11068

 The electronic state is 1-A.
 Alpha  occ. eigenvalues --  -46.94268 -19.30275 -19.25053 -19.24760 -19.24184
 Alpha  occ. eigenvalues --  -14.46767 -14.46025 -14.43911 -14.43799 -10.43564
 Alpha  occ. eigenvalues --  -10.39597 -10.39554 -10.35552 -10.35370 -10.34618
 Alpha  occ. eigenvalues --  -10.34564 -10.34025 -10.33882 -10.33808 -10.33536
 Alpha  occ. eigenvalues --  -10.33379 -10.32914 -10.32850 -10.32469 -10.32381
 Alpha  occ. eigenvalues --  -10.32361 -10.32235 -10.31938 -10.31710 -10.31615
 Alpha  occ. eigenvalues --  -10.31471 -10.31149 -10.30827 -10.30741 -10.30191
 Alpha  occ. eigenvalues --  -10.30162 -10.29981 -10.29797 -10.29665 -10.29479
 Alpha  occ. eigenvalues --  -10.29384 -10.29372 -10.28364  -3.20388  -1.93985
 Alpha  occ. eigenvalues --   -1.93491  -1.93392  -1.17339  -1.15232  -1.12348
 Alpha  occ. eigenvalues --   -1.09670  -1.07173  -1.05575  -1.04899  -1.04180
 Alpha  occ. eigenvalues --   -0.93859  -0.90894  -0.90471  -0.89948  -0.89144
 Alpha  occ. eigenvalues --   -0.88822  -0.88217  -0.86060  -0.85493  -0.84451
 Alpha  occ. eigenvalues --   -0.83768  -0.82957  -0.82335  -0.80193  -0.79170
 Alpha  occ. eigenvalues --   -0.78683  -0.77763  -0.76789  -0.74256  -0.73437
 Alpha  occ. eigenvalues --   -0.71143  -0.70511  -0.69685  -0.68703  -0.67643
 Alpha  occ. eigenvalues --   -0.66619  -0.66245  -0.66038  -0.63810  -0.62137
 Alpha  occ. eigenvalues --   -0.61550  -0.60880  -0.60104  -0.59759  -0.59213
 Alpha  occ. eigenvalues --   -0.57794  -0.57484  -0.57303  -0.56759  -0.56057
 Alpha  occ. eigenvalues --   -0.55523  -0.55314  -0.54867  -0.54432  -0.54094
 Alpha  occ. eigenvalues --   -0.53704  -0.53553  -0.53312  -0.53209  -0.52335
 Alpha  occ. eigenvalues --   -0.52126  -0.52013  -0.51553  -0.51435  -0.51048
 Alpha  occ. eigenvalues --   -0.50528  -0.50232  -0.49903  -0.49729  -0.48895
 Alpha  occ. eigenvalues --   -0.48774  -0.48514  -0.48189  -0.48044  -0.47750
 Alpha  occ. eigenvalues --   -0.47424  -0.47134  -0.46873  -0.46553  -0.46279
 Alpha  occ. eigenvalues --   -0.46098  -0.45657  -0.45263  -0.45202  -0.44715
 Alpha  occ. eigenvalues --   -0.44594  -0.43789  -0.43516  -0.43445  -0.43363
 Alpha  occ. eigenvalues --   -0.43086  -0.42382  -0.42118  -0.41040  -0.40596
 Alpha  occ. eigenvalues --   -0.39960  -0.39604  -0.38946  -0.38654  -0.38599
 Alpha  occ. eigenvalues --   -0.37843  -0.36427  -0.36280  -0.35067  -0.33402
 Alpha  occ. eigenvalues --   -0.33280  -0.33131  -0.32189  -0.31769  -0.25907
 Alpha  occ. eigenvalues --   -0.22587
 Alpha virt. eigenvalues --   -0.06814   0.00536   0.02481   0.04537   0.05909
 Alpha virt. eigenvalues --    0.06727   0.08072   0.08804   0.09867   0.10982
 Alpha virt. eigenvalues --    0.11584   0.12196   0.12839   0.13227   0.13662

 Mulliken charges:
               1
     1  Mg   0.983830
     2  C    0.016745
     3  C   -0.089949
     4  C   -0.082500
     5  C   -0.106125
     6  N   -0.316838
     7  C    0.009690
     8  C   -0.040639
     9  C   -0.128901
    10  C    0.104199
    11  C   -0.004722
    12  C    0.028175
    13  C   -0.147826
    14  H    0.026090
    15  N   -0.453092
    16  C    0.111631
    17  C   -0.155616
    18  C   -0.103420
    19  C    0.123760
    20  C    0.045705
    21  C    0.084794
    22  O   -0.233055
    23  C   -0.023434
    24  N   -0.364399
    25  C    0.051408
    26  C   -0.053040
    27  C   -0.060187
    28  C    0.046850
    29  C    0.044650
    30  C   -0.025389
    31  C   -0.035020
    32  N   -0.448148
    33  C    0.163789
    34  C   -0.168886
    35  C   -0.084412
    36  C    0.117477
    37  C    0.076999
    38  C    0.137590
    39  O   -0.142213
    40  C   -0.138967
    41  C    0.283358
    42  O   -0.249074
    43  O   -0.383358
    44  C    0.147026
    45  H   -0.013080
    46  H    0.021621
    47  H   -0.009699
    48  H    0.043026
    49  H    0.044045
    50  H    0.031211
    51  H    0.051237
    52  H    0.038059
    53  H    0.037908
    54  H    0.036948
    55  H    0.053926
    56  H    0.051445
    57  H    0.057701
    58  H    0.063565
    59  H    0.032719
    60  H    0.059348
    61  H    0.038680
    62  H    0.062589
    63  H    0.024374
    64  H    0.023874
    65  H    0.039151
    66  H    0.044483
    67  H    0.032105
    68  H    0.026715
    69  H    0.023450
    70  H    0.026971
    71  H    0.051717
    72  H    0.040165
    73  H    0.057381
    74  H    0.036659
    75  H    0.074608
    76  H    0.075961
    77  H    0.054251
    78  H    0.040556
    79  H    0.061775
 Sum of Mulliken charges =  -0.00000

 Dipole moment (field-independent basis, Debye):
    X=              0.7141    Y=             -2.6377    Z=             -2.2061  Tot=              3.5120
 Quadrupole moment (field-independent basis, Debye-Ang):
   XX=           -265.5134   YY=           -222.4755   ZZ=           -257.6063
   XY=             13.2095   XZ=             -3.7363   YZ=              0.1456

 Normal termination of Gaussian 16 at Sat Sep 18 20:53:28 2021.
