 Gaussian 16, Revision A.03,
 Gaussian 16:  ES64L-G16RevA.03 25-Dec-2016

 --------------------------------
 #p wB97XD/Def2SVP td=(nstates=5)
 --------------------------------

 --------------------------------
 TDDFT excited states in gaussian
 --------------------------------
 Symbolic Z-matrix:
 Charge =  0 Multiplicity = 1

                         Standard orientation:
 ---------------------------------------------------------------------
 Center     Atomic      Atomic             Coordinates (Angstroms)
 Number     Number       Type             X           Y           Z
 ---------------------------------------------------------------------
      1         12           0       13.531294   -0.687026    0.203531
      2          6           0       12.266814    2.198055   -1.261834
      3          6           0       15.333688    1.410360    2.296860
      4          6           0       15.163828   -3.458503    1.308062
      5          6           0       11.780110   -2.585717   -2.095212
      6          7           0       13.808361    1.552582    0.441457
      7          6           0       13.157576    2.564630   -0.247638
      8          6           0       13.631135    4.016513    0.154420
      9          6           0       14.856257    3.652259    1.079661
     10          6           0       14.701653    2.098590    1.272157
     11          6           0       16.292623    3.960948    0.647147
     12          6           0       12.485600    4.804468    0.815863
     13          6           0       11.858215    5.910624    0.009038
     14          1           0       11.430939    7.173436    0.778004
     15          7           0       14.891114   -1.050582    1.725814
     16          6           0       15.417299   -0.051101    2.483339
     17          6           0       16.346372   -0.714857    3.418563
     18          6           0       16.402956   -2.081861    3.105055
     19          6           0       15.488566   -2.278297    2.048104
     20          6           0       16.951763    0.026803    4.540538
     21          6           0       17.250503   -3.174049    3.688776
     22          8           0       17.120736   -4.392648    3.385813
     23          6           0       18.311410   -2.949055    4.619539
     24          7           0       13.426502   -2.687263   -0.246937
     25          6           0       14.172915   -3.652849    0.355605
     26          6           0       13.920158   -5.011003   -0.169928
     27          6           0       12.786035   -4.764607   -1.228645
     28          6           0       12.710244   -3.284042   -1.227433
     29          6           0       15.039754   -5.923218   -0.752078
     30          6           0       11.412896   -5.560005   -0.967366
     31          6           0       10.293501   -5.035622   -0.019677
     32          7           0       12.310054   -0.347560   -1.388204
     33          6           0       11.639478   -1.209374   -2.207559
     34          6           0       10.731354   -0.507607   -3.005083
     35          6           0       11.034767    0.875286   -2.701232
     36          6           0       11.978953    0.901864   -1.694258
     37          6           0        9.676875   -1.075943   -3.952976
     38          6           0       10.577448    2.206404   -2.979574
     39          8           0        9.673116    2.677044   -3.639138
     40          6           0       11.557165    3.146396   -2.193321
     41          6           0       12.475768    3.815156   -3.135971
     42          8           0       13.709833    3.633212   -3.226702
     43          8           0       11.877057    4.682360   -3.981292
     44          6           0       12.717641    5.600426   -4.823237
     45          1           0       15.945760    2.075368    2.908672
     46          1           0       15.677837   -4.379085    1.592935
     47          1           0       11.070342   -3.117918   -2.732743
     48          1           0       14.169457    4.511526   -0.654512
     49          1           0       14.654010    4.140457    2.032952
     50          1           0       16.825845    3.035893    0.426664
     51          1           0       16.804744    4.318905    1.539071
     52          1           0       16.393771    4.652570   -0.189945
     53          1           0       12.940242    5.289004    1.680734
     54          1           0       11.755848    4.088331    1.193629
     55          1           0       10.967249    5.500706   -0.467346
     56          1           0       12.448898    6.272768   -0.832533
     57          1           0       16.568094   -0.462189    5.435034
     58          1           0       16.785774    1.101144    4.630026
     59          1           0       18.034105   -0.100112    4.518986
     60          1           0       18.858829   -2.092928    4.226106
     61          1           0       18.837205   -3.877258    4.839574
     62          1           0       17.929590   -2.562087    5.564333
     63          1           0       13.524760   -5.472957    0.734233
     64          1           0       13.151546   -5.039909   -2.217243
     65          1           0       15.205295   -6.809675   -0.139730
     66          1           0       15.997720   -5.402809   -0.778967
     67          1           0       14.863643   -6.219016   -1.786225
     68          1           0       11.772038   -6.483476   -0.512644
     69          1           0       11.088830   -5.734613   -1.993437
     70          1           0       10.424944   -4.015185    0.339301
     71          1           0        9.995878   -5.705941    0.787170
     72          1           0        9.401704   -5.064818   -0.644356
     73          1           0        9.796304   -0.698033   -4.968908
     74          1           0        8.705427   -0.716132   -3.614357
     75          1           0        9.601877   -2.163669   -3.948372
     76          1           0       10.966166    3.975345   -1.803502
     77          1           0       11.917434    6.284547   -5.105983
     78          1           0       13.203304    5.129348   -5.677191
     79          1           0       13.487288    6.063771   -4.205163
     80         12           0      -13.734045   -0.693121   -0.198429
     81          6           0      -11.924561    2.285444    0.485769
     82          6           0      -16.636796    1.320440   -0.020598
     83          6           0      -15.544316   -3.394802   -0.459534
     84          6           0      -10.754057   -2.478619   -0.030334
     85          7           0      -14.235428    1.593506    0.205925
     86          6           0      -13.277388    2.567186    0.348050
     87          6           0      -13.854011    3.972250    0.388399
     88          6           0      -15.398845    3.603017    0.350991
     89          6           0      -15.446552    2.083815    0.126438
     90          6           0      -16.123048    4.155950    1.574923
     91          6           0      -13.386518    4.791006   -0.834963
     92          6           0      -13.101309    6.329886   -0.647807
     93          1           0      -13.733367    7.045256    0.569387
     94          7           0      -15.811079   -1.003404   -0.314335
     95          6           0      -16.819935   -0.055867   -0.138581
     96          6           0      -18.115975   -0.737904   -0.281480
     97          6           0      -17.796927   -2.115873   -0.511937
     98          6           0      -16.323386   -2.180242   -0.472537
     99          6           0      -19.377797   -0.075832   -0.114285
    100          6           0      -18.748946   -3.287459   -0.730572
    101          8           0      -18.322853   -4.449790   -0.821030
    102          6           0      -20.180632   -3.054749   -1.015946
    103          7           0      -13.228159   -2.672880   -0.135475
    104          6           0      -14.155747   -3.604984   -0.369258
    105          6           0      -13.537189   -5.039650   -0.314511
    106          6           0      -12.009775   -4.719694   -0.374249
    107          6           0      -11.950605   -3.240468   -0.154944
    108          6           0      -14.015614   -5.904475    0.906818
    109          6           0      -11.565972   -5.099938   -1.838376
    110          6           0      -11.545113   -4.011835   -2.966634
    111          7           0      -11.734742   -0.238603    0.045930
    112          6           0      -10.625647   -1.101744    0.105935
    113          6           0       -9.419563   -0.288327    0.399340
    114          6           0       -9.910660    0.995940    0.603058
    115          6           0      -11.267981    1.038986    0.364259
    116          6           0       -8.158170   -0.934856    0.717637
    117          6           0       -9.484528    2.311843    1.073012
    118          8           0       -8.367255    2.653945    1.443642
    119          6           0      -10.797069    3.227430    1.045481
    120          6           0      -11.087565    3.789805    2.386777
    121          8           0      -11.842912    3.308581    3.226417
    122          8           0      -10.368465    4.989483    2.545999
    123          6           0      -10.408202    5.736158    3.783019
    124          1           0      -17.547195    1.888056   -0.226103
    125          1           0      -16.088282   -4.335950   -0.567014
    126          1           0       -9.885360   -3.139691   -0.045119
    127          1           0      -13.589603    4.508991    1.299864
    128          1           0      -15.822664    4.184268   -0.467471
    129          1           0      -16.977563    4.794559    1.353897
    130          1           0      -15.510597    4.710094    2.286250
    131          1           0      -16.569673    3.298479    2.080037
    132          1           0      -14.096205    4.698779   -1.657030
    133          1           0      -12.485457    4.239656   -1.105904
    134          1           0      -13.512993    6.894905   -1.483423
    135          1           0      -12.029771    6.439815   -0.814539
    136          1           0      -19.961736   -0.305496   -1.005795
    137          1           0      -19.237797    0.954538    0.211151
    138          1           0      -19.730979   -0.567338    0.792788
    139          1           0      -20.750165   -2.724706   -0.146626
    140          1           0      -20.641955   -3.990005   -1.332513
    141          1           0      -20.245800   -2.215003   -1.707214
    142          1           0      -13.977441   -5.428877   -1.232572
    143          1           0      -11.438320   -5.333935    0.322085
    144          1           0      -14.836392   -6.554939    0.604334
    145          1           0      -14.238159   -5.207491    1.714125
    146          1           0      -13.155647   -6.507241    1.198283
    147          1           0      -12.044664   -6.036084   -2.126455
    148          1           0      -10.486316   -5.216623   -1.739823
    149          1           0      -11.988745   -4.527613   -3.817765
    150          1           0      -10.536155   -3.705782   -3.246096
    151          1           0      -12.145424   -3.120779   -2.786152
    152          1           0       -8.344908   -1.711339    1.458365
    153          1           0       -7.528933   -0.172002    1.177250
    154          1           0       -7.617527   -1.205873   -0.188796
    155          1           0      -10.520556    4.036775    0.369046
    156          1           0       -9.570590    5.520348    4.445847
    157          1           0      -11.411536    5.746772    4.209092
    158          1           0      -10.357142    6.756443    3.401800
 ---------------------------------------------------------------------

 SCF Done:  E(RwB97XD) =  -4070.61281621     A.U. after   19 cycles

 Excitation energies and oscillator strengths:

 Excited State   1:      Singlet-A      1.6443 eV  754.00 nm  f=0.4093  <S**2>=0.000
     310 -> 316        0.18286
     311 -> 313        0.68204
     310 <- 316        0.11708
 This state for optimization and/or second-order correction.
 Total Energy, E(TD-HF/TD-DFT) =  -4070.55238748
 Copying the excited state density for this state as the 1-particle RhoCI density.

 Excited State   2:      Singlet-A      1.6996 eV  729.50 nm  f=0.3543  <S**2>=0.000
     309 -> 315       -0.19441
     312 -> 314        0.67837
     309 <- 315       -0.11670

 Excited State   3:      Singlet-A      2.1514 eV  576.29 nm  f=0.1350  <S**2>=0.000
     310 -> 313        0.64868
     311 -> 316       -0.26443

 Excited State   4:      Singlet-A      2.2204 eV  558.39 nm  f=0.0709  <S**2>=0.000
     309 -> 314        0.62141
     312 -> 315        0.32318

 Excited State   5:      Singlet-A      3.3474 eV  370.39 nm  f=0.0038  <S**2>=0.000
     305 -> 313        0.18951
     308 -> 313        0.65745

 The electronic state is 1-A.
 Alpha  occ. eigenvalues --  -46.94794 -46.93816 -19.29200 -19.29176 -19.24765
 Alpha  occ. eigenvalues --  -19.24290 -19.23783 -19.23204 -19.23131 -19.22941
 Alpha  occ. eigenvalues --  -14.46699 -14.46549 -14.46387 -14.45803 -14.44250
 Alpha  occ. eigenvalues --  -14.44090 -14.43478 -14.42887 -10.43280 -10.42294
 Alpha  occ. eigenvalues --  -10.39328 -10.39263 -10.38411 -10.38117 -10.35691
 Alpha  occ. eigenvalues --  -10.35015 -10.34940 -10.34853 -10.34735 -10.34718
 Alpha  occ. eigenvalues --  -10.34605 -10.34499 -10.34424 -10.34416 -10.34400
 Alpha  occ. eigenvalues --  -10.34169 -10.34070 -10.34020 -10.33194 -10.33173
 Alpha  occ. eigenvalues --  -10.33121 -10.32871 -10.32804 -10.32475 -10.32449
 Alpha  occ. eigenvalues --  -10.32207 -10.32167 -10.32156 -10.32127 -10.31821
 Alpha  occ. eigenvalues --  -10.31801 -10.31661 -10.31642 -10.31549 -10.31407
 Alpha  occ. eigenvalues --  -10.31387 -10.31377 -10.31360 -10.31312 -10.31289
 Alpha  occ. eigenvalues --  -10.31265 -10.31159 -10.31064 -10.31028 -10.31027
 Alpha  occ. eigenvalues --  -10.30765 -10.30756 -10.30736 -10.30721 -10.30713
 Alpha  occ. eigenvalues --  -10.30375 -10.30362 -10.30271 -10.30126 -10.29896
 Alpha  occ. eigenvalues --  -10.29792 -10.29727 -10.29581 -10.29467 -10.29460
 Alpha  occ. eigenvalues --  -10.29335 -10.29168 -10.29055 -10.28870 -10.28640
 Alpha  occ. eigenvalues --  -10.28591  -3.20783  -3.19943  -1.94379  -1.93919
 Alpha  occ. eigenvalues --   -1.93740  -1.93549  -1.93078  -1.92922  -1.17224
 Alpha  occ. eigenvalues --   -1.16763  -1.11822  -1.11691  -1.11421  -1.10091
 Alpha  occ. eigenvalues --   -1.09390  -1.07194  -1.06819  -1.06764  -1.06053
 Alpha  occ. eigenvalues --   -1.06053  -1.05188  -1.05042  -1.04219  -1.03323
 Alpha  occ. eigenvalues --   -0.95004  -0.93889  -0.91832  -0.90820  -0.90490
 Alpha  occ. eigenvalues --   -0.90271  -0.90209  -0.90143  -0.89475  -0.89263
 Alpha  occ. eigenvalues --   -0.88867  -0.88599  -0.88054  -0.87981  -0.86216
 Alpha  occ. eigenvalues --   -0.86022  -0.85499  -0.85164  -0.84672  -0.84547
 Alpha  occ. eigenvalues --   -0.84280  -0.83823  -0.82862  -0.82716  -0.82433
 Alpha  occ. eigenvalues --   -0.82370  -0.80923  -0.80459  -0.79361  -0.78973
 Alpha  occ. eigenvalues --   -0.78729  -0.78710  -0.78069  -0.77658  -0.77171
 Alpha  occ. eigenvalues --   -0.76696  -0.75026  -0.74054  -0.73253  -0.73244
 Alpha  occ. eigenvalues --   -0.71960  -0.71096  -0.70825  -0.70658  -0.69899
 Alpha  occ. eigenvalues --   -0.69791  -0.69042  -0.68705  -0.67072  -0.66956
 Alpha  occ. eigenvalues --   -0.66891  -0.66596  -0.66560  -0.66388  -0.66305
 Alpha  occ. eigenvalues --   -0.66136  -0.63478  -0.63411  -0.62327  -0.61895
 Alpha  occ. eigenvalues --   -0.61542  -0.61271  -0.61079  -0.61008  -0.60524
 Alpha  occ. eigenvalues --   -0.59975  -0.59800  -0.59660  -0.59227  -0.59102
 Alpha  occ. eigenvalues --   -0.58238  -0.58089  -0.57494  -0.57426  -0.57158
 Alpha  occ. eigenvalues --   -0.56811  -0.56282  -0.56138  -0.55903  -0.55709
 Alpha  occ. eigenvalues --   -0.55706  -0.55254  -0.55125  -0.55062  -0.54781
 Alpha  occ. eigenvalues --   -0.54665  -0.54388  -0.54315  -0.54148  -0.53898
 Alpha  occ. eigenvalues --   -0.53745  -0.53667  -0.53400  -0.53184  -0.52938
 Alpha  occ. eigenvalues --   -0.52731  -0.52729  -0.52453  -0.52231  -0.52027
 Alpha  occ. eigenvalues --   -0.51861  -0.51665  -0.51656  -0.51508  -0.51502
 Alpha  occ. eigenvalues --   -0.51305  -0.50863  -0.50845  -0.50792  -0.50653
 Alpha  occ. eigenvalues --   -0.50399  -0.50295  -0.50287  -0.50032  -0.49986
 Alpha  occ. eigenvalues --   -0.49769  -0.49644  -0.49509  -0.49260  -0.49111
 Alpha  occ. eigenvalues --   -0.48814  -0.48630  -0.48581  -0.48395  -0.48098
 Alpha  occ. eigenvalues --   -0.47984  -0.47895  -0.47855  -0.47547  -0.47251
 Alpha  occ. eigenvalues --   -0.47242  -0.47118  -0.47023  -0.46892  -0.46637
 Alpha  occ. eigenvalues --   -0.46457  -0.46166  -0.46113  -0.46111  -0.45949
 Alpha  occ. eigenvalues --   -0.45835  -0.45780  -0.45753  -0.45636  -0.45512
 Alpha  occ. eigenvalues --   -0.45333  -0.45288  -0.45244  -0.44863  -0.44774
 Alpha  occ. eigenvalues --   -0.44627  -0.44395  -0.44332  -0.43812  -0.43650
 Alpha  occ. eigenvalues --   -0.43457  -0.43346  -0.43312  -0.42968  -0.42848
 Alpha  occ. eigenvalues --   -0.42626  -0.42548  -0.42171  -0.42170  -0.41951
 Alpha  occ. eigenvalues --   -0.41718  -0.41530  -0.41239  -0.40763  -0.40461
 Alpha  occ. eigenvalues --   -0.40070  -0.39742  -0.39666  -0.39320  -0.39061
 Alpha  occ. eigenvalues --   -0.38783  -0.38578  -0.38476  -0.38324  -0.38074
 Alpha  occ. eigenvalues --   -0.37598  -0.37544  -0.36241  -0.36077  -0.35967
 Alpha  occ. eigenvalues --   -0.35481  -0.35386  -0.34694  -0.33152  -0.33150
 Alpha  occ. eigenvalues --   -0.33112  -0.32736  -0.32488  -0.32347  -0.32095
 Alpha  occ. eigenvalues --   -0.31860  -0.31428  -0.31422  -0.25770  -0.25490
 Alpha  occ. eigenvalues --   -0.22853  -0.22547
 Alpha virt. eigenvalues --   -0.06982  -0.06444   0.00247   0.00672   0.02338
 Alpha virt. eigenvalues --    0.02815   0.04322   0.04523   0.06417   0.06701
 Alpha virt. eigenvalues --    0.07125   0.07560   0.07713   0.08155   0.08346

 Mulliken charges:
               1
     1  Mg   0.984078
     2  C   -0.026321
     3  C   -0.065000
     4  C   -0.072306
     5  C   -0.099217
     6  N   -0.335652
     7  C   -0.019272
     8  C   -0.046115
     9  C   -0.130656
    10  C    0.025406
    11  C    0.037457
    12  C    0.055319
    13  C   -0.144217
    14  H    0.038515
    15  N   -0.481629
    16  C    0.183528
    17  C   -0.191645
    18  C   -0.022511
    19  C    0.131579
    20  C    0.056632
    21  C    0.038335
    22  O   -0.281206
    23  C    0.024892
    24  N   -0.375258
    25  C    0.076407
    26  C   -0.094179
    27  C   -0.055022
    28  C    0.063467
    29  C    0.027631
    30  C   -0.032325
    31  C   -0.043668
    32  N   -0.452877
    33  C    0.130643
    34  C   -0.169378
    35  C   -0.056334
    36  C    0.216044
    37  C    0.092202
    38  C    0.091632
    39  O   -0.189921
    40  C   -0.123788
    41  C    0.263180
    42  O   -0.290890
    43  O   -0.356910
    44  C    0.146676
    45  H   -0.009054
    46  H    0.021483
    47  H   -0.013529
    48  H    0.038406
    49  H    0.026796
    50  H    0.047544
    51  H    0.032079
    52  H    0.052224
    53  H    0.035781
    54  H    0.047165
    55  H    0.065286
    56  H    0.052557
    57  H    0.057341
    58  H    0.043330
    59  H    0.035648
    60  H    0.042503
    61  H    0.066520
    62  H    0.043672
    63  H    0.047304
    64  H    0.036109
    65  H    0.044609
    66  H    0.039157
    67  H    0.036156
    68  H    0.035172
    69  H    0.040104
    70  H    0.056446
    71  H    0.040436
    72  H    0.029029
    73  H    0.060653
    74  H    0.054009
    75  H    0.024453
    76  H    0.056653
    77  H    0.066078
    78  H    0.066924
    79  H    0.053630
    80  Mg   0.958908
    81  C    0.014170
    82  C   -0.115981
    83  C   -0.071874
    84  C   -0.091816
    85  N   -0.268443
    86  C   -0.050283
    87  C   -0.080270
    88  C   -0.081195
    89  C    0.061368
    90  C    0.017881
    91  C   -0.000879
    92  C   -0.101177
    93  H    0.041794
    94  N   -0.420367
    95  C    0.160532
    96  C   -0.187231
    97  C   -0.089673
    98  C    0.146114
    99  C    0.087547
   100  C    0.060885
   101  O   -0.251582
   102  C   -0.004615
   103  N   -0.411514
   104  C    0.041671
   105  C   -0.106321
   106  C   -0.056881
   107  C    0.053281
   108  C    0.041988
   109  C   -0.057137
   110  C   -0.040275
   111  N   -0.481889
   112  C    0.164242
   113  C   -0.192588
   114  C   -0.021513
   115  C    0.160018
   116  C    0.077993
   117  C    0.119494
   118  O   -0.196816
   119  C   -0.104474
   120  C    0.295843
   121  O   -0.245664
   122  O   -0.393068
   123  C    0.148826
   124  H    0.010707
   125  H    0.016595
   126  H   -0.005073
   127  H    0.045936
   128  H    0.028864
   129  H    0.025175
   130  H    0.045281
   131  H    0.027028
   132  H    0.030851
   133  H    0.034444
   134  H    0.044137
   135  H    0.052326
   136  H    0.062288
   137  H    0.037743
   138  H    0.061484
   139  H    0.050591
   140  H    0.063419
   141  H    0.049903
   142  H    0.039302
   143  H    0.036065
   144  H    0.056223
   145  H    0.049485
   146  H    0.029563
   147  H    0.044598
   148  H    0.027427
   149  H    0.033397
   150  H    0.043622
   151  H    0.047367
   152  H    0.057709
   153  H    0.044456
   154  H    0.045964
   155  H    0.075097
   156  H    0.071688
   157  H    0.047277
   158  H    0.040030
 Sum of Mulliken charges =  -0.00000

 Dipole moment (field-independent basis, Debye):
    X=             -2.4912    Y=              1.7145    Z=              0.3680  Tot=              3.0465
 Quadrupole moment (field-independent basis, Debye-Ang):
   XX=           -362.5485   YY=           -473.7309   ZZ=           -505.0726
   XY=             -9.1932   XZ=             56.1554   YZ=             16.7977

 Normal termination of Gaussian 16 at Sat Sep 18 19:51:10 2021.
