 Gaussian 16, Revision A.03,
 Gaussian 16:  ES64L-G16RevA.03 25-Dec-2016

 --------------------------------
 #p wB97XD/Def2SVP td=(nstates=5)
 --------------------------------

 --------------------------------
 TDDFT excited states in gaussian
 --------------------------------
 Symbolic Z-matrix:
 Charge =  0 Multiplicity = 1

                         Standard orientation:
 ---------------------------------------------------------------------
 Center     Atomic      Atomic             Coordinates (Angstroms)
 Number     Number       Type             X           Y           Z
 ---------------------------------------------------------------------
      1         12           0       18.485354   -0.232968    0.452024
      2          6           0       15.329255   -1.872402    0.283401
      3          6           0       19.239949   -1.418602   -2.671693
      4          6           0       21.011182    2.176269    0.201374
      5          6           0       17.401999    1.406841    3.365069
      6          7           0       17.174873   -1.347239   -1.126874
      7          6           0       16.080502   -2.091258   -0.897668
      8          6           0       15.975266   -3.170569   -1.959543
      9          6           0       17.204381   -2.995431   -2.975188
     10          6           0       18.003418   -1.914541   -2.085365
     11          6           0       17.933133   -4.351051   -3.112999
     12          6           0       14.632619   -3.102850   -2.669331
     13          6           0       14.059876   -1.692737   -2.947422
     14          1           0       14.092858   -1.200727   -4.420215
     15          7           0       20.016745    0.263461   -1.018436
     16          6           0       20.095445   -0.373301   -2.237874
     17          6           0       21.306021    0.090558   -2.839800
     18          6           0       21.831224    1.216619   -2.098325
     19          6           0       20.991264    1.257184   -0.874560
     20          6           0       21.771090   -0.378005   -4.199162
     21          6           0       22.895191    2.221098   -2.543735
     22          8           0       23.380273    2.140651   -3.655820
     23          6           0       23.362412    3.294225   -1.718212
     24          7           0       19.065132    1.602606    1.552699
     25          6           0       20.183488    2.276637    1.328727
     26          6           0       20.396703    3.429630    2.296027
     27          6           0       19.015497    3.376037    3.080250
     28          6           0       18.473879    2.040710    2.716593
     29          6           0       21.675818    3.249300    3.250810
     30          6           0       18.106008    4.632879    2.697643
     31          6           0       17.816825    5.702505    3.712428
     32          7           0       16.915704   -0.380520    1.698555
     33          6           0       16.664730    0.265830    2.926047
     34          6           0       15.451764   -0.280267    3.562860
     35          6           0       14.960538   -1.112252    2.556950
     36          6           0       15.780090   -1.080860    1.374944
     37          6           0       14.913520   -0.083014    5.022088
     38          6           0       13.835038   -2.002536    2.255252
     39          8           0       12.843313   -2.368838    2.907334
     40          6           0       14.021633   -2.544663    0.799750
     41          6           0       12.806473   -1.967411    0.159753
     42          8           0       12.535939   -0.794880    0.110986
     43          8           0       11.994737   -2.942317   -0.239446
     44          6           0       10.739684   -2.595586   -0.993469
     45          1           0       19.614669   -2.014291   -3.506496
     46          1           0       21.789879    2.936590    0.288626
     47          1           0       17.109644    2.050046    4.198336
     48          1           0       16.026298   -4.039878   -1.303911
     49          1           0       16.893678   -2.606288   -3.945158
     50          1           0       17.898675   -4.648974   -4.160737
     51          1           0       17.478495   -5.168577   -2.552890
     52          1           0       18.968097   -4.160912   -2.830020
     53          1           0       13.884283   -3.637249   -2.084021
     54          1           0       14.699541   -3.557762   -3.658030
     55          1           0       14.579766   -0.839251   -2.512469
     56          1           0       13.032823   -1.742855   -2.585643
     57          1           0       21.058708   -1.064581   -4.657289
     58          1           0       22.780896   -0.773023   -4.082845
     59          1           0       21.932134    0.510527   -4.808629
     60          1           0       22.616653    4.047452   -1.463152
     61          1           0       24.171812    3.814902   -2.229584
     62          1           0       23.667360    2.778464   -0.807020
     63          1           0       20.415809    4.410203    1.821083
     64          1           0       19.346165    3.582394    4.098336
     65          1           0       22.209432    2.339195    2.975275
     66          1           0       21.301884    3.118685    4.266474
     67          1           0       22.362488    4.095990    3.296442
     68          1           0       17.083763    4.326882    2.474898
     69          1           0       18.502885    5.151015    1.825722
     70          1           0       16.828902    5.624961    4.166477
     71          1           0       17.869323    6.579464    3.066384
     72          1           0       18.627209    5.900242    4.414248
     73          1           0       14.465834    0.908910    5.077025
     74          1           0       15.754988   -0.241663    5.696722
     75          1           0       14.103320   -0.793027    5.187102
     76          1           0       14.058629   -3.631077    0.887989
     77          1           0        9.905492   -2.350102   -0.335836
     78          1           0       10.424584   -3.420312   -1.634013
     79          1           0       11.019969   -1.748883   -1.620049
     80         12           0      -17.973666    0.800111   -0.045901
     81          6           0      -15.322737   -1.545489    0.245555
     82          6           0      -19.927649   -1.557738    1.724556
     83          6           0      -20.587198    2.687430   -0.547718
     84          6           0      -15.916978    2.799524   -2.012871
     85          7           0      -17.656421   -1.359769    0.891020
     86          6           0      -16.441065   -1.997897    0.933418
     87          6           0      -16.461539   -3.268778    1.765746
     88          6           0      -18.009833   -3.303006    2.120513
     89          6           0      -18.576899   -1.978836    1.586018
     90          6           0      -18.655484   -4.594487    1.627131
     91          6           0      -15.548876   -3.126986    3.003674
     92          6           0      -14.750908   -4.392133    3.500838
     93          1           0      -15.251393   -5.788249    3.061308
     94          7           0      -19.977286    0.642859    0.574230
     95          6           0      -20.582658   -0.437758    1.216335
     96          6           0      -22.001358   -0.107604    1.425142
     97          6           0      -22.178994    1.190376    0.844287
     98          6           0      -20.855410    1.552369    0.301972
     99          6           0      -22.942377   -1.013437    2.018808
    100          6           0      -23.449907    2.030329    0.766722
    101          8           0      -23.471173    3.102236    0.141172
    102          6           0      -24.636502    1.682107    1.576691
    103          7           0      -18.244288    2.454198   -1.216409
    104          6           0      -19.402712    3.117643   -1.174103
    105          6           0      -19.368827    4.368101   -2.111698
    106          6           0      -17.840040    4.492203   -2.405544
    107          6           0      -17.276317    3.205378   -1.889788
    108          6           0      -20.308111    4.261636   -3.366635
    109          6           0      -17.352585    5.717938   -1.542310
    110          6           0      -16.765555    5.491064   -0.106589
    111          7           0      -16.007793    0.752844   -0.675677
    112          6           0      -15.314755    1.656449   -1.501451
    113          6           0      -13.953042    1.116846   -1.740066
    114          6           0      -13.963734   -0.130424   -1.126697
    115          6           0      -15.158546   -0.337118   -0.470268
    116          6           0      -13.079443    1.737339   -2.721004
    117          6           0      -13.160462   -1.345273   -1.012932
    118          8           0      -12.064637   -1.573349   -1.512781
    119          6           0      -14.025953   -2.354823   -0.122115
    120          6           0      -14.287471   -3.621794   -0.847458
    121          8           0      -15.283248   -3.881500   -1.516863
    122          8           0      -13.211240   -4.503327   -0.632269
    123          6           0      -13.159319   -5.801670   -1.265462
    124          1           0      -20.524769   -2.099538    2.461540
    125          1           0      -21.415593    3.373753   -0.737271
    126          1           0      -15.359411    3.530077   -2.602176
    127          1           0      -16.158525   -4.148390    1.197207
    128          1           0      -18.063333   -3.401202    3.204417
    129          1           0      -19.172940   -5.171423    2.392804
    130          1           0      -17.996520   -5.296822    1.116591
    131          1           0      -19.455586   -4.297063    0.947981
    132          1           0      -16.111213   -2.751897    3.858683
    133          1           0      -14.882999   -2.332444    2.665121
    134          1           0      -14.796647   -4.465030    4.586922
    135          1           0      -13.701694   -4.143786    3.340992
    136          1           0      -23.429225   -0.461556    2.823125
    137          1           0      -22.484867   -1.984524    2.205478
    138          1           0      -23.582735   -1.212001    1.158801
    139          1           0      -25.168713    0.802225    1.213962
    140          1           0      -25.355531    2.499935    1.533177
    141          1           0      -24.284968    1.387784    2.565158
    142          1           0      -19.778247    5.094324   -1.409465
    143          1           0      -17.644772    4.718646   -3.454032
    144          1           0      -21.254923    4.763743   -3.167356
    145          1           0      -20.377901    3.203052   -3.614803
    146          1           0      -19.783062    4.771695   -4.174091
    147          1           0      -18.092156    6.516538   -1.603776
    148          1           0      -16.418724    5.999315   -2.029872
    149          1           0      -17.234496    6.279593    0.481270
    150          1           0      -15.685025    5.632588   -0.059801
    151          1           0      -17.017192    4.545032    0.371566
    152          1           0      -13.646509    1.896615   -3.637269
    153          1           0      -12.290853    1.014219   -2.931600
    154          1           0      -12.546564    2.584591   -2.290225
    155          1           0      -13.374035   -2.556098    0.728505
    156          1           0      -12.568578   -5.813268   -2.181103
    157          1           0      -14.140565   -6.276281   -1.280615
    158          1           0      -12.681321   -6.387643   -0.479924
 ---------------------------------------------------------------------

 SCF Done:  E(RwB97XD) =  -4070.57008853     A.U. after   20 cycles

 Excitation energies and oscillator strengths:

 Excited State   1:      Singlet-A      1.6285 eV  761.34 nm  f=0.3610  <S**2>=0.000
     309 -> 315        0.20690
     311 -> 313        0.67847
     309 <- 315        0.12523
 This state for optimization and/or second-order correction.
 Total Energy, E(TD-HF/TD-DFT) =  -4070.51024200
 Copying the excited state density for this state as the 1-particle RhoCI density.

 Excited State   2:      Singlet-A      1.6996 eV  729.48 nm  f=0.3658  <S**2>=0.000
     310 -> 316        0.19453
     312 -> 314        0.67887
     310 <- 316        0.11677

 Excited State   3:      Singlet-A      2.1415 eV  578.96 nm  f=0.0704  <S**2>=0.000
     309 -> 313        0.61694
     311 -> 315       -0.33160

 Excited State   4:      Singlet-A      2.2204 eV  558.40 nm  f=0.0704  <S**2>=0.000
     310 -> 314        0.62144
     312 -> 316       -0.32314

 Excited State   5:      Singlet-A      3.1861 eV  389.14 nm  f=0.0154  <S**2>=0.000
     308 -> 313        0.65675
     308 -> 318        0.10731
     311 -> 315        0.20235

 The electronic state is 1-A.
 Alpha  occ. eigenvalues --  -46.96518 -46.94806 -19.30248 -19.29189 -19.24776
 Alpha  occ. eigenvalues --  -19.24306 -19.23874 -19.23791 -19.23752 -19.23061
 Alpha  occ. eigenvalues --  -14.46983 -14.46708 -14.46536 -14.45814 -14.44717
 Alpha  occ. eigenvalues --  -14.44263 -14.44124 -14.43490 -10.43292 -10.42528
 Alpha  occ. eigenvalues --  -10.39343 -10.39271 -10.38968 -10.38237 -10.36174
 Alpha  occ. eigenvalues --  -10.36082 -10.35366 -10.35027 -10.34984 -10.34981
 Alpha  occ. eigenvalues --  -10.34866 -10.34728 -10.34701 -10.34689 -10.34511
 Alpha  occ. eigenvalues --  -10.34427 -10.34413 -10.34180 -10.33936 -10.33882
 Alpha  occ. eigenvalues --  -10.33205 -10.33187 -10.33133 -10.32971 -10.32916
 Alpha  occ. eigenvalues --  -10.32885 -10.32776 -10.32404 -10.32342 -10.32194
 Alpha  occ. eigenvalues --  -10.32191 -10.32179 -10.32166 -10.32139 -10.31865
 Alpha  occ. eigenvalues --  -10.31698 -10.31672 -10.31558 -10.31440 -10.31419
 Alpha  occ. eigenvalues --  -10.31397 -10.31388 -10.31325 -10.31168 -10.31116
 Alpha  occ. eigenvalues --  -10.31039 -10.30960 -10.30834 -10.30735 -10.30655
 Alpha  occ. eigenvalues --  -10.30506 -10.30382 -10.30372 -10.30311 -10.30280
 Alpha  occ. eigenvalues --  -10.30046 -10.29793 -10.29587 -10.29478 -10.29345
 Alpha  occ. eigenvalues --  -10.29291 -10.29178 -10.29067 -10.28958 -10.28885
 Alpha  occ. eigenvalues --  -10.28653  -3.22313  -3.20796  -1.95857  -1.95460
 Alpha  occ. eigenvalues --   -1.95245  -1.94391  -1.93929  -1.93754  -1.19191
 Alpha  occ. eigenvalues --   -1.16776  -1.12400  -1.11838  -1.11430  -1.11004
 Alpha  occ. eigenvalues --   -1.09859  -1.09402  -1.06776  -1.06569  -1.06065
 Alpha  occ. eigenvalues --   -1.05643  -1.05052  -1.04398  -1.03630  -1.03335
 Alpha  occ. eigenvalues --   -0.93902  -0.93888  -0.91844  -0.90804  -0.90643
 Alpha  occ. eigenvalues --   -0.90503  -0.90218  -0.90136  -0.89274  -0.88993
 Alpha  occ. eigenvalues --   -0.88610  -0.88067  -0.88041  -0.87305  -0.86568
 Alpha  occ. eigenvalues --   -0.86033  -0.85890  -0.85175  -0.84750  -0.84556
 Alpha  occ. eigenvalues --   -0.84494  -0.83833  -0.83019  -0.82729  -0.82382
 Alpha  occ. eigenvalues --   -0.82179  -0.80934  -0.79808  -0.79259  -0.78984
 Alpha  occ. eigenvalues --   -0.78742  -0.78307  -0.78176  -0.77670  -0.76885
 Alpha  occ. eigenvalues --   -0.76707  -0.74819  -0.74067  -0.73687  -0.73255
 Alpha  occ. eigenvalues --   -0.71106  -0.70837  -0.70820  -0.70419  -0.70060
 Alpha  occ. eigenvalues --   -0.69804  -0.68716  -0.68660  -0.67464  -0.67125
 Alpha  occ. eigenvalues --   -0.66903  -0.66741  -0.66607  -0.66398  -0.66148
 Alpha  occ. eigenvalues --   -0.65997  -0.64379  -0.63490  -0.62338  -0.62219
 Alpha  occ. eigenvalues --   -0.61283  -0.61224  -0.61020  -0.60975  -0.60601
 Alpha  occ. eigenvalues --   -0.59987  -0.59812  -0.59784  -0.59222  -0.59115
 Alpha  occ. eigenvalues --   -0.58249  -0.58184  -0.57787  -0.57438  -0.57170
 Alpha  occ. eigenvalues --   -0.56936  -0.56836  -0.56444  -0.56148  -0.55913
 Alpha  occ. eigenvalues --   -0.55786  -0.55722  -0.55365  -0.55265  -0.55073
 Alpha  occ. eigenvalues --   -0.54984  -0.54678  -0.54549  -0.54424  -0.54159
 Alpha  occ. eigenvalues --   -0.53933  -0.53679  -0.53647  -0.53421  -0.53412
 Alpha  occ. eigenvalues --   -0.53198  -0.52740  -0.52567  -0.52466  -0.52042
 Alpha  occ. eigenvalues --   -0.51870  -0.51702  -0.51679  -0.51584  -0.51513
 Alpha  occ. eigenvalues --   -0.51352  -0.51132  -0.50895  -0.50873  -0.50804
 Alpha  occ. eigenvalues --   -0.50448  -0.50410  -0.50297  -0.50147  -0.49997
 Alpha  occ. eigenvalues --   -0.49684  -0.49519  -0.49272  -0.49202  -0.48879
 Alpha  occ. eigenvalues --   -0.48826  -0.48809  -0.48591  -0.48502  -0.48172
 Alpha  occ. eigenvalues --   -0.47996  -0.47907  -0.47706  -0.47515  -0.47261
 Alpha  occ. eigenvalues --   -0.47205  -0.47058  -0.46998  -0.46905  -0.46764
 Alpha  occ. eigenvalues --   -0.46469  -0.46234  -0.46179  -0.46123  -0.45959
 Alpha  occ. eigenvalues --   -0.45887  -0.45793  -0.45569  -0.45525  -0.45467
 Alpha  occ. eigenvalues --   -0.45345  -0.45256  -0.45094  -0.44875  -0.44823
 Alpha  occ. eigenvalues --   -0.44408  -0.44310  -0.43936  -0.43824  -0.43659
 Alpha  occ. eigenvalues --   -0.43426  -0.43321  -0.43319  -0.43217  -0.42858
 Alpha  occ. eigenvalues --   -0.42742  -0.42561  -0.42181  -0.41966  -0.41931
 Alpha  occ. eigenvalues --   -0.41728  -0.41694  -0.41250  -0.40515  -0.40474
 Alpha  occ. eigenvalues --   -0.39867  -0.39677  -0.39350  -0.39332  -0.39105
 Alpha  occ. eigenvalues --   -0.39073  -0.38808  -0.38590  -0.38301  -0.38087
 Alpha  occ. eigenvalues --   -0.37645  -0.37608  -0.36152  -0.36089  -0.36052
 Alpha  occ. eigenvalues --   -0.35979  -0.35581  -0.35492  -0.33560  -0.33160
 Alpha  occ. eigenvalues --   -0.33121  -0.32752  -0.32723  -0.32578  -0.32359
 Alpha  occ. eigenvalues --   -0.32350  -0.31441  -0.31089  -0.26168  -0.25782
 Alpha  occ. eigenvalues --   -0.23088  -0.22558
 Alpha virt. eigenvalues --   -0.07089  -0.06456  -0.00631   0.00236   0.02326
 Alpha virt. eigenvalues --    0.02379   0.04171   0.04310   0.04608   0.06404
 Alpha virt. eigenvalues --    0.07113   0.07211   0.07636   0.07700   0.08335

 Mulliken charges:
               1
     1  Mg   0.942392
     2  C   -0.037915
     3  C   -0.073473
     4  C   -0.078183
     5  C   -0.055687
     6  N   -0.320071
     7  C   -0.052952
     8  C   -0.003222
     9  C   -0.147369
    10  C    0.056775
    11  C    0.022589
    12  C   -0.011488
    13  C   -0.138060
    14  H    0.013851
    15  N   -0.462239
    16  C    0.168201
    17  C   -0.175031
    18  C   -0.086757
    19  C    0.201480
    20  C    0.084841
    21  C    0.036015
    22  O   -0.236048
    23  C    0.005051
    24  N   -0.323000
    25  C    0.047483
    26  C   -0.151685
    27  C   -0.062446
    28  C    0.046713
    29  C    0.017257
    30  C   -0.028925
    31  C   -0.050492
    32  N   -0.501390
    33  C    0.150900
    34  C   -0.184854
    35  C   -0.035021
    36  C    0.186814
    37  C    0.087872
    38  C    0.097798
    39  O   -0.231006
    40  C   -0.050351
    41  C    0.237902
    42  O   -0.235821
    43  O   -0.346747
    44  C    0.130739
    45  H    0.013634
    46  H   -0.020037
    47  H    0.003308
    48  H    0.035223
    49  H    0.061607
    50  H    0.033391
    51  H    0.044483
    52  H    0.040331
    53  H    0.041178
    54  H    0.041318
    55  H    0.087211
    56  H    0.047531
    57  H    0.029817
    58  H    0.048497
    59  H    0.062051
    60  H    0.066442
    61  H    0.056689
    62  H    0.054746
    63  H    0.040373
    64  H    0.018049
    65  H    0.043549
    66  H    0.031173
    67  H    0.046299
    68  H    0.037532
    69  H    0.032161
    70  H    0.053227
    71  H    0.028090
    72  H    0.026602
    73  H    0.054307
    74  H    0.056573
    75  H    0.063041
    76  H    0.067936
    77  H    0.072882
    78  H    0.059220
    79  H    0.067128
    80  Mg   0.959228
    81  C    0.014352
    82  C   -0.115988
    83  C   -0.071777
    84  C   -0.091841
    85  N   -0.268534
    86  C   -0.050255
    87  C   -0.080581
    88  C   -0.081050
    89  C    0.061337
    90  C    0.017833
    91  C   -0.000835
    92  C   -0.101171
    93  H    0.041841
    94  N   -0.420541
    95  C    0.160538
    96  C   -0.187198
    97  C   -0.089499
    98  C    0.145936
    99  C    0.087419
   100  C    0.060781
   101  O   -0.251544
   102  C   -0.004381
   103  N   -0.411637
   104  C    0.041840
   105  C   -0.106445
   106  C   -0.056786
   107  C    0.053264
   108  C    0.041990
   109  C   -0.057152
   110  C   -0.040275
   111  N   -0.481887
   112  C    0.164194
   113  C   -0.192739
   114  C   -0.021520
   115  C    0.159960
   116  C    0.078004
   117  C    0.119491
   118  O   -0.196943
   119  C   -0.104603
   120  C    0.296132
   121  O   -0.245735
   122  O   -0.393101
   123  C    0.148816
   124  H    0.010762
   125  H    0.016608
   126  H   -0.005053
   127  H    0.045950
   128  H    0.028864
   129  H    0.025200
   130  H    0.045300
   131  H    0.027055
   132  H    0.030855
   133  H    0.034407
   134  H    0.044135
   135  H    0.052268
   136  H    0.062341
   137  H    0.037740
   138  H    0.061550
   139  H    0.050558
   140  H    0.063423
   141  H    0.049837
   142  H    0.039306
   143  H    0.036115
   144  H    0.056247
   145  H    0.049493
   146  H    0.029613
   147  H    0.044638
   148  H    0.027442
   149  H    0.033410
   150  H    0.043573
   151  H    0.047342
   152  H    0.057786
   153  H    0.044372
   154  H    0.045873
   155  H    0.075039
   156  H    0.071670
   157  H    0.047328
   158  H    0.040014
 Sum of Mulliken charges =  -0.00000

 Dipole moment (field-independent basis, Debye):
    X=             -1.2982    Y=             -1.0445    Z=              5.0532  Tot=              5.3208
 Quadrupole moment (field-independent basis, Debye-Ang):
   XX=           -375.6533   YY=           -467.4258   ZZ=           -502.1005
   XY=             24.9756   XZ=             -4.9861   YZ=             12.0781

 Normal termination of Gaussian 16 at Sat Sep 18 14:53:02 2021.
