 Gaussian 16, Revision A.03,
 Gaussian 16:  ES64L-G16RevA.03 25-Dec-2016

 --------------------------------
 #p wB97XD/Def2SVP td=(nstates=5)
 --------------------------------

 --------------------------------
 TDDFT excited states in gaussian
 --------------------------------
 Symbolic Z-matrix:
 Charge =  0 Multiplicity = 1

                         Standard orientation:
 ---------------------------------------------------------------------
 Center     Atomic      Atomic             Coordinates (Angstroms)
 Number     Number       Type             X           Y           Z
 ---------------------------------------------------------------------
      1         12           0      -25.236758   -0.484129   -0.234228
      2          6           0      -23.245169    2.299211   -0.471654
      3          6           0      -27.268780    1.232111    1.929757
      4          6           0      -27.199013   -3.323405    0.106676
      5          6           0      -22.920082   -2.301850   -2.064328
      6          7           0      -25.250057    1.555139    0.701813
      7          6           0      -24.352947    2.522310    0.347974
      8          6           0      -24.654347    3.779840    1.007936
      9          6           0      -25.801070    3.474698    1.958692
     10          6           0      -26.147852    1.973679    1.560634
     11          6           0      -25.569495    3.646499    3.499729
     12          6           0      -24.972474    4.914618   -0.024345
     13          6           0      -24.553004    6.373342    0.368262
     14          1           0      -24.507712    6.712802    1.871044
     15          7           0      -27.063855   -0.911896    0.794219
     16          6           0      -27.738552   -0.033364    1.624510
     17          6           0      -28.936987   -0.709270    2.161526
     18          6           0      -28.935450   -2.067733    1.622664
     19          6           0      -27.725736   -2.151636    0.785960
     20          6           0      -29.927276   -0.076946    3.125793
     21          6           0      -30.009954   -3.119397    1.771835
     22          8           0      -29.881188   -4.202787    1.175070
     23          6           0      -31.219189   -2.978366    2.618546
     24          7           0      -25.057753   -2.549603   -0.814131
     25          6           0      -26.010294   -3.461527   -0.599160
     26          6           0      -25.684712   -4.773435   -1.332383
     27          6           0      -24.410824   -4.408209   -2.272889
     28          6           0      -24.157737   -2.954746   -1.737949
     29          6           0      -25.442507   -5.941392   -0.327304
     30          6           0      -24.690437   -4.392061   -3.800752
     31          6           0      -24.008124   -5.502029   -4.614267
     32          7           0      -23.391485   -0.144590   -1.061243
     33          6           0      -22.536501   -0.985800   -1.777064
     34          6           0      -21.323947   -0.246090   -2.192134
     35          6           0      -21.594580    1.038360   -1.664149
     36          6           0      -22.843268    1.043901   -0.986810
     37          6           0      -20.207334   -0.716269   -2.986875
     38          6           0      -21.095191    2.428722   -1.638595
     39          8           0      -20.135754    2.942673   -2.149553
     40          6           0      -22.134061    3.279693   -0.824793
     41          6           0      -21.418952    3.976768    0.256168
     42          8           0      -20.989341    3.343062    1.233603
     43          8           0      -21.404406    5.334012    0.152036
     44          6           0      -20.899178    6.117932    1.274698
     45          1           0      -27.895716    1.806749    2.614747
     46          1           0      -27.809617   -4.216576    0.256174
     47          1           0      -22.285677   -2.876824   -2.741963
     48          1           0      -23.777569    4.071000    1.587397
     49          1           0      -26.713662    3.990824    1.658281
     50          1           0      -24.622120    4.005459    3.903197
     51          1           0      -25.772162    2.687580    3.976071
     52          1           0      -26.318456    4.273553    3.984053
     53          1           0      -26.024529    4.868186   -0.305893
     54          1           0      -24.567544    4.628406   -0.994841
     55          1           0      -25.213838    7.093907   -0.114423
     56          1           0      -23.523372    6.605939    0.098111
     57          1           0      -29.748568    0.984478    3.294190
     58          1           0      -29.863254   -0.537546    4.112019
     59          1           0      -30.918339   -0.042242    2.673719
     60          1           0      -31.825323   -3.865172    2.435877
     61          1           0      -31.796870   -2.077584    2.407149
     62          1           0      -30.920002   -2.842110    3.657928
     63          1           0      -26.502737   -4.955122   -2.029588
     64          1           0      -23.536852   -5.019416   -2.047997
     65          1           0      -26.004913   -6.844065   -0.566383
     66          1           0      -25.733892   -5.650817    0.682402
     67          1           0      -24.361547   -6.082347   -0.345234
     68          1           0      -24.403372   -3.457490   -4.281245
     69          1           0      -25.755999   -4.465667   -4.019252
     70          1           0      -23.855390   -6.374927   -3.979480
     71          1           0      -23.032650   -5.133973   -4.930644
     72          1           0      -24.613216   -5.648013   -5.508111
     73          1           0      -19.631896    0.096539   -3.429397
     74          1           0      -20.503498   -1.390325   -3.790399
     75          1           0      -19.468330   -1.131834   -2.301680
     76          1           0      -22.504715    3.948017   -1.602747
     77          1           0      -19.834368    5.987534    1.469695
     78          1           0      -21.506178    5.959786    2.166074
     79          1           0      -20.987373    7.179439    1.043869
     80         12           0       24.577357   -0.638308    0.416713
     81          6           0       24.679657    2.131759   -1.596203
     82          6           0       24.616024    1.316123    3.132973
     83          6           0       24.721999   -3.459287    2.256362
     84          6           0       25.063201   -2.690148   -2.545243
     85          7           0       24.916683    1.532780    0.705013
     86          6           0       24.814821    2.480056   -0.235122
     87          6           0       24.842472    3.949894    0.431590
     88          6           0       24.811327    3.555307    1.955504
     89          6           0       24.822190    2.013474    1.976194
     90          6           0       25.906657    4.240645    2.795452
     91          6           0       23.656642    4.858028   -0.001320
     92          6           0       23.368369    6.148948    0.832550
     93          1           0       23.821986    7.529949    0.223980
     94          7           0       24.707656   -1.018162    2.440001
     95          6           0       24.608284   -0.112808    3.391016
     96          6           0       24.619352   -0.789311    4.679195
     97          6           0       24.761155   -2.196665    4.488095
     98          6           0       24.729306   -2.278848    3.011276
     99          6           0       24.656194   -0.104283    6.035303
    100          6           0       24.947162   -3.325221    5.496975
    101          8           0       25.342984   -4.432073    5.143093
    102          6           0       24.643468   -3.061006    6.930186
    103          7           0       24.900980   -2.775466   -0.085452
    104          6           0       24.867003   -3.717635    0.849418
    105          6           0       24.863953   -5.131602    0.245110
    106          6           0       24.758678   -4.806183   -1.242548
    107          6           0       24.954110   -3.336551   -1.284043
    108          6           0       26.018362   -6.075726    0.612572
    109          6           0       23.564793   -5.423753   -1.925627
    110          6           0       23.875866   -6.469112   -3.055444
    111          7           0       24.766194   -0.387572   -1.603440
    112          6           0       24.873378   -1.295166   -2.710134
    113          6           0       24.811531   -0.590410   -3.971701
    114          6           0       24.718093    0.755938   -3.521571
    115          6           0       24.706841    0.809385   -2.122074
    116          6           0       24.693367   -1.079153   -5.372226
    117          6           0       24.444259    2.061796   -4.066241
    118          8           0       24.122524    2.481293   -5.188009
    119          6           0       24.526126    3.045092   -2.925501
    120          6           0       25.827091    3.863310   -3.080081
    121          8           0       26.951727    3.445106   -3.395244
    122          8           0       25.530612    5.163279   -2.795961
    123          6           0       26.632385    6.170458   -2.912721
    124          1           0       24.501589    1.835308    4.086823
    125          1           0       24.971752   -4.394582    2.761643
    126          1           0       25.071772   -3.377238   -3.393278
    127          1           0       25.815050    4.345842    0.141587
    128          1           0       23.835664    3.843148    2.347014
    129          1           0       25.435954    4.565434    3.722743
    130          1           0       26.291509    5.137665    2.310206
    131          1           0       26.727351    3.553149    3.000539
    132          1           0       22.762709    4.265788    0.194155
    133          1           0       23.791958    5.179881   -1.033827
    134          1           0       23.977167    6.082253    1.734810
    135          1           0       22.294540    6.221789    1.001369
    136          1           0       24.637422    0.980759    5.933410
    137          1           0       25.567750   -0.385892    6.561870
    138          1           0       23.816904   -0.401100    6.662983
    139          1           0       23.658770   -2.592758    6.929751
    140          1           0       25.269550   -2.434184    7.564452
    141          1           0       24.607098   -3.970632    7.528681
    142          1           0       23.949650   -5.625837    0.571787
    143          1           0       25.623594   -5.254830   -1.730834
    144          1           0       25.536511   -7.046270    0.728134
    145          1           0       26.547048   -5.711578    1.493354
    146          1           0       26.832220   -6.094696   -0.112188
    147          1           0       23.104048   -4.583005   -2.443263
    148          1           0       22.876731   -5.918648   -1.240849
    149          1           0       24.953920   -6.565807   -3.186818
    150          1           0       23.456187   -6.075900   -3.981888
    151          1           0       23.395364   -7.440719   -2.939670
    152          1           0       24.510599   -2.153367   -5.380467
    153          1           0       25.689045   -0.962081   -5.798478
    154          1           0       23.869600   -0.504284   -5.797809
    155          1           0       23.637750    3.665455   -3.045485
    156          1           0       27.576189    5.881432   -2.449692
    157          1           0       26.368225    7.168688   -2.565206
    158          1           0       26.860528    6.224010   -3.977096
 ---------------------------------------------------------------------

 SCF Done:  E(RwB97XD) =  -4070.64941952     A.U. after   19 cycles

 Excitation energies and oscillator strengths:

 Excited State   1:      Singlet-A      1.6636 eV  745.30 nm  f=0.3894  <S**2>=0.000
     309 -> 315        0.18162
     311 -> 313        0.68137
     309 <- 315        0.11248
 This state for optimization and/or second-order correction.
 Total Energy, E(TD-HF/TD-DFT) =  -4070.58828502
 Copying the excited state density for this state as the 1-particle RhoCI density.

 Excited State   2:      Singlet-A      1.6697 eV  742.57 nm  f=0.3986  <S**2>=0.000
     310 -> 316       -0.19465
     312 -> 314        0.67999
     310 <- 316       -0.11864

 Excited State   3:      Singlet-A      2.1969 eV  564.36 nm  f=0.0825  <S**2>=0.000
     310 -> 314        0.62406
     312 -> 316        0.31821

 Excited State   4:      Singlet-A      2.2222 eV  557.94 nm  f=0.1097  <S**2>=0.000
     309 -> 313        0.63695
     311 -> 315       -0.28921

 Excited State   5:      Singlet-A      3.4243 eV  362.07 nm  f=0.1922  <S**2>=0.000
     308 -> 314        0.53356
     310 -> 314        0.16243
     312 -> 316       -0.41042

 The electronic state is 1-A.
 Alpha  occ. eigenvalues --  -46.95518 -46.95235 -19.31201 -19.30819 -19.24563
 Alpha  occ. eigenvalues --  -19.24377 -19.24272 -19.24100 -19.23421 -19.22724
 Alpha  occ. eigenvalues --  -14.46649 -14.46420 -14.46302 -14.46254 -14.44670
 Alpha  occ. eigenvalues --  -14.44133 -14.43861 -14.43840 -10.43431 -10.43394
 Alpha  occ. eigenvalues --  -10.40063 -10.38946 -10.38883 -10.37336 -10.36086
 Alpha  occ. eigenvalues --  -10.35907 -10.35708 -10.34986 -10.34934 -10.34704
 Alpha  occ. eigenvalues --  -10.34677 -10.34471 -10.34432 -10.34419 -10.34334
 Alpha  occ. eigenvalues --  -10.34133 -10.34083 -10.34010 -10.33964 -10.33963
 Alpha  occ. eigenvalues --  -10.33356 -10.33326 -10.33304 -10.32774 -10.32719
 Alpha  occ. eigenvalues --  -10.32688 -10.32531 -10.32418 -10.32341 -10.32169
 Alpha  occ. eigenvalues --  -10.32140 -10.32110 -10.32070 -10.31977 -10.31904
 Alpha  occ. eigenvalues --  -10.31790 -10.31670 -10.31648 -10.31561 -10.31444
 Alpha  occ. eigenvalues --  -10.31443 -10.31342 -10.31266 -10.31044 -10.31034
 Alpha  occ. eigenvalues --  -10.30957 -10.30708 -10.30697 -10.30593 -10.30536
 Alpha  occ. eigenvalues --  -10.30392 -10.30228 -10.30171 -10.30111 -10.30102
 Alpha  occ. eigenvalues --  -10.30024 -10.29981 -10.29943 -10.29940 -10.29937
 Alpha  occ. eigenvalues --  -10.29524 -10.29493 -10.29373 -10.29327 -10.29170
 Alpha  occ. eigenvalues --  -10.28415  -3.21485  -3.21105  -1.95065  -1.94715
 Alpha  occ. eigenvalues --   -1.94599  -1.94469  -1.94209  -1.94082  -1.18628
 Alpha  occ. eigenvalues --   -1.17707  -1.13200  -1.12600  -1.11146  -1.10170
 Alpha  occ. eigenvalues --   -1.09325  -1.08706  -1.07717  -1.07127  -1.06393
 Alpha  occ. eigenvalues --   -1.06069  -1.05891  -1.05407  -1.04968  -1.03018
 Alpha  occ. eigenvalues --   -0.94466  -0.93223  -0.91762  -0.91022  -0.90570
 Alpha  occ. eigenvalues --   -0.90180  -0.90085  -0.89605  -0.89483  -0.89140
 Alpha  occ. eigenvalues --   -0.89067  -0.88933  -0.88672  -0.88222  -0.86091
 Alpha  occ. eigenvalues --   -0.85898  -0.85461  -0.85205  -0.84270  -0.84220
 Alpha  occ. eigenvalues --   -0.84045  -0.83802  -0.83165  -0.83017  -0.82523
 Alpha  occ. eigenvalues --   -0.81987  -0.80479  -0.80416  -0.79500  -0.79458
 Alpha  occ. eigenvalues --   -0.79256  -0.78651  -0.78162  -0.77997  -0.77270
 Alpha  occ. eigenvalues --   -0.76831  -0.74615  -0.74608  -0.73647  -0.73500
 Alpha  occ. eigenvalues --   -0.71347  -0.71180  -0.71046  -0.70279  -0.70032
 Alpha  occ. eigenvalues --   -0.69681  -0.69561  -0.68937  -0.67787  -0.67757
 Alpha  occ. eigenvalues --   -0.67352  -0.67059  -0.66877  -0.66398  -0.66342
 Alpha  occ. eigenvalues --   -0.65887  -0.64724  -0.64603  -0.62716  -0.61849
 Alpha  occ. eigenvalues --   -0.61604  -0.61577  -0.61227  -0.60853  -0.60727
 Alpha  occ. eigenvalues --   -0.60601  -0.60227  -0.59964  -0.59351  -0.59290
 Alpha  occ. eigenvalues --   -0.58294  -0.58055  -0.57845  -0.57626  -0.57365
 Alpha  occ. eigenvalues --   -0.57064  -0.56684  -0.56448  -0.56045  -0.55928
 Alpha  occ. eigenvalues --   -0.55666  -0.55409  -0.55329  -0.54889  -0.54738
 Alpha  occ. eigenvalues --   -0.54722  -0.54465  -0.54355  -0.54160  -0.54098
 Alpha  occ. eigenvalues --   -0.53607  -0.53562  -0.53425  -0.53248  -0.53108
 Alpha  occ. eigenvalues --   -0.53083  -0.53030  -0.52630  -0.52434  -0.52145
 Alpha  occ. eigenvalues --   -0.51924  -0.51844  -0.51821  -0.51717  -0.51583
 Alpha  occ. eigenvalues --   -0.51306  -0.51258  -0.50978  -0.50942  -0.50865
 Alpha  occ. eigenvalues --   -0.50468  -0.50463  -0.50391  -0.50109  -0.50027
 Alpha  occ. eigenvalues --   -0.49864  -0.49741  -0.49602  -0.49418  -0.49220
 Alpha  occ. eigenvalues --   -0.49171  -0.49075  -0.48716  -0.48654  -0.48306
 Alpha  occ. eigenvalues --   -0.48197  -0.48057  -0.47862  -0.47824  -0.47640
 Alpha  occ. eigenvalues --   -0.47458  -0.47167  -0.46893  -0.46856  -0.46658
 Alpha  occ. eigenvalues --   -0.46484  -0.46419  -0.46310  -0.46268  -0.46046
 Alpha  occ. eigenvalues --   -0.45916  -0.45769  -0.45756  -0.45571  -0.45518
 Alpha  occ. eigenvalues --   -0.45412  -0.45105  -0.44969  -0.44824  -0.44698
 Alpha  occ. eigenvalues --   -0.44555  -0.44158  -0.44084  -0.43958  -0.43877
 Alpha  occ. eigenvalues --   -0.43806  -0.43740  -0.43434  -0.43389  -0.43148
 Alpha  occ. eigenvalues --   -0.43084  -0.42850  -0.42705  -0.42594  -0.42331
 Alpha  occ. eigenvalues --   -0.42257  -0.41875  -0.41424  -0.41170  -0.40972
 Alpha  occ. eigenvalues --   -0.40164  -0.40098  -0.39766  -0.39433  -0.39214
 Alpha  occ. eigenvalues --   -0.39162  -0.38791  -0.38717  -0.38667  -0.38190
 Alpha  occ. eigenvalues --   -0.37946  -0.37869  -0.36253  -0.36035  -0.35976
 Alpha  occ. eigenvalues --   -0.35929  -0.35553  -0.35376  -0.33908  -0.33315
 Alpha  occ. eigenvalues --   -0.33291  -0.32906  -0.32773  -0.32713  -0.32242
 Alpha  occ. eigenvalues --   -0.31937  -0.31799  -0.31712  -0.25822  -0.25809
 Alpha  occ. eigenvalues --   -0.22903  -0.22617
 Alpha virt. eigenvalues --   -0.06886  -0.06666   0.00169   0.00173   0.02576
 Alpha virt. eigenvalues --    0.02641   0.04629   0.04673   0.05089   0.06108
 Alpha virt. eigenvalues --    0.06598   0.07495   0.07845   0.07927   0.08653

 Mulliken charges:
               1
     1  Mg   0.952590
     2  C   -0.030101
     3  C   -0.087624
     4  C   -0.053742
     5  C   -0.079010
     6  N   -0.317284
     7  C   -0.008964
     8  C   -0.053970
     9  C   -0.041572
    10  C   -0.009018
    11  C    0.019986
    12  C    0.021156
    13  C   -0.115176
    14  H    0.015612
    15  N   -0.461451
    16  C    0.197410
    17  C   -0.169618
    18  C   -0.061190
    19  C    0.119896
    20  C    0.061184
    21  C    0.038478
    22  O   -0.262810
    23  C    0.013412
    24  N   -0.333131
    25  C    0.064309
    26  C   -0.091956
    27  C   -0.098918
    28  C    0.041327
    29  C    0.031136
    30  C   -0.015260
    31  C   -0.053815
    32  N   -0.449218
    33  C    0.129811
    34  C   -0.162226
    35  C   -0.055554
    36  C    0.145105
    37  C    0.075978
    38  C    0.096406
    39  O   -0.183882
    40  C   -0.042154
    41  C    0.280662
    42  O   -0.276092
    43  O   -0.352450
    44  C    0.141016
    45  H   -0.023826
    46  H    0.028201
    47  H   -0.002400
    48  H    0.045916
    49  H    0.034459
    50  H    0.048867
    51  H    0.031133
    52  H    0.026866
    53  H    0.018642
    54  H    0.024817
    55  H    0.055095
    56  H    0.067015
    57  H    0.025628
    58  H    0.064212
    59  H    0.051446
    60  H    0.063694
    61  H    0.041634
    62  H    0.053077
    63  H    0.040560
    64  H    0.038359
    65  H    0.048241
    66  H    0.046056
    67  H    0.029721
    68  H    0.031769
    69  H    0.025743
    70  H    0.040594
    71  H    0.032175
    72  H    0.041559
    73  H    0.049759
    74  H    0.047519
    75  H    0.057483
    76  H    0.066876
    77  H    0.067208
    78  H    0.052481
    79  H    0.050133
    80  Mg   0.970047
    81  C   -0.074854
    82  C   -0.078705
    83  C   -0.049399
    84  C   -0.066344
    85  N   -0.355634
    86  C   -0.026089
    87  C   -0.008757
    88  C   -0.153520
    89  C    0.119943
    90  C    0.024353
    91  C   -0.009752
    92  C   -0.131333
    93  H    0.015012
    94  N   -0.438273
    95  C    0.116631
    96  C   -0.186964
    97  C   -0.059115
    98  C    0.130916
    99  C    0.069485
   100  C    0.087662
   101  O   -0.227311
   102  C   -0.033188
   103  N   -0.273989
   104  C   -0.007433
   105  C   -0.114771
   106  C   -0.055414
   107  C    0.009791
   108  C    0.036087
   109  C    0.000415
   110  C   -0.068097
   111  N   -0.456694
   112  C    0.123342
   113  C   -0.170366
   114  C   -0.077032
   115  C    0.206094
   116  C    0.109156
   117  C    0.102738
   118  O   -0.239410
   119  C   -0.055717
   120  C    0.293627
   121  O   -0.266031
   122  O   -0.365197
   123  C    0.138555
   124  H   -0.019861
   125  H    0.029547
   126  H    0.004085
   127  H    0.040409
   128  H    0.037120
   129  H    0.034010
   130  H    0.041464
   131  H    0.049643
   132  H    0.031955
   133  H    0.073505
   134  H    0.048323
   135  H    0.065667
   136  H    0.031739
   137  H    0.051496
   138  H    0.041260
   139  H    0.048779
   140  H    0.063130
   141  H    0.052437
   142  H    0.038885
   143  H    0.021323
   144  H    0.046527
   145  H    0.044284
   146  H    0.029766
   147  H    0.030520
   148  H    0.036938
   149  H    0.033075
   150  H    0.033436
   151  H    0.041976
   152  H    0.019326
   153  H    0.065402
   154  H    0.081097
   155  H    0.069652
   156  H    0.058562
   157  H    0.063583
   158  H    0.056475
 Sum of Mulliken charges =  -0.00000

 Dipole moment (field-independent basis, Debye):
    X=             -5.2306    Y=              1.7590    Z=              5.4049  Tot=              7.7244
 Quadrupole moment (field-independent basis, Debye-Ang):
   XX=           -453.5565   YY=           -473.4602   ZZ=           -502.4320
   XY=            -61.1783   XZ=             92.6026   YZ=             49.2864

 Normal termination of Gaussian 16 at Sun Sep 19 22:56:36 2021.
