 Gaussian 16, Revision A.03,
 Gaussian 16:  ES64L-G16RevA.03 25-Dec-2016

 --------------------------------
 #p wB97XD/Def2SVP td=(nstates=5)
 --------------------------------

 --------------------------------
 TDDFT excited states in gaussian
 --------------------------------
 Symbolic Z-matrix:
 Charge =  0 Multiplicity = 1

                         Standard orientation:
 ---------------------------------------------------------------------
 Center     Atomic      Atomic             Coordinates (Angstroms)
 Number     Number       Type             X           Y           Z
 ---------------------------------------------------------------------
      1         12           0       32.068356    0.007907   -0.302127
      2          6           0       29.754872   -0.976817    2.165870
      3          6           0       32.847560    2.726877    1.576900
      4          6           0       34.188916    0.967739   -2.756081
      5          6           0       30.883986   -2.543704   -2.338076
      6          7           0       31.326108    0.830382    1.567881
      7          6           0       30.460004    0.200766    2.465998
      8          6           0       30.434237    0.968863    3.753219
      9          6           0       31.019859    2.338703    3.335658
     10          6           0       31.797560    1.938202    2.055514
     11          6           0       30.011314    3.482483    3.000409
     12          6           0       31.203343    0.312668    4.961043
     13          6           0       30.435938    0.289693    6.244542
     14          1           0       31.203363    0.708404    7.512504
     15          7           0       33.378549    1.533601   -0.482142
     16          6           0       33.642689    2.543232    0.458295
     17          6           0       34.676730    3.378457   -0.007657
     18          6           0       35.123380    2.880131   -1.320860
     19          6           0       34.253389    1.764177   -1.560248
     20          6           0       35.142197    4.646744    0.645881
     21          6           0       36.197579    3.412425   -2.365680
     22          8           0       36.413664    2.813853   -3.392674
     23          6           0       37.055408    4.630880   -2.055732
     24          7           0       32.395039   -0.630930   -2.314744
     25          6           0       33.322200   -0.043477   -3.114600
     26          6           0       33.325627   -0.738541   -4.559326
     27          6           0       32.475356   -2.061791   -4.318161
     28          6           0       31.859357   -1.741323   -2.890069
     29          6           0       32.758136    0.107719   -5.732321
     30          6           0       33.322310   -3.383991   -4.328553
     31          6           0       32.765457   -4.370467   -5.266888
     32          7           0       30.591891   -1.435871   -0.167431
     33          6           0       30.296688   -2.482753   -1.039366
     34          6           0       29.279143   -3.322068   -0.467692
     35          6           0       29.022066   -2.755213    0.763957
     36          6           0       29.823837   -1.669526    0.925250
     37          6           0       28.764989   -4.605910   -1.169797
     38          6           0       28.204633   -2.853699    1.959210
     39          8           0       27.276396   -3.603321    2.168297
     40          6           0       28.645270   -1.653489    2.935834
     41          6           0       27.474448   -0.796837    3.198869
     42          8           0       26.804087   -0.212059    2.307942
     43          8           0       27.238615   -0.792035    4.542438
     44          6           0       25.890001   -0.296778    4.925819
     45          1           0       33.014822    3.598093    2.213599
     46          1           0       34.831360    1.216423   -3.603159
     47          1           0       30.474029   -3.294653   -3.015908
     48          1           0       29.431160    1.219615    4.100384
     49          1           0       31.679938    2.776397    4.084735
     50          1           0       29.097764    3.455235    3.595805
     51          1           0       29.787758    3.404432    1.936125
     52          1           0       30.409807    4.495437    3.051186
     53          1           0       32.133833    0.874596    5.039544
     54          1           0       31.536449   -0.697919    4.722909
     55          1           0       30.111502   -0.750640    6.272777
     56          1           0       29.618357    1.008670    6.193905
     57          1           0       36.115113    4.596746    1.135290
     58          1           0       34.470268    4.891303    1.467574
     59          1           0       35.196946    5.551172    0.040577
     60          1           0       37.788902    4.683371   -2.859368
     61          1           0       37.449109    4.597699   -1.039437
     62          1           0       36.417944    5.506411   -1.929074
     63          1           0       34.351521   -0.914914   -4.883055
     64          1           0       31.685982   -2.102241   -5.070207
     65          1           0       32.331646    1.076665   -5.470727
     66          1           0       31.968832   -0.402433   -6.285011
     67          1           0       33.584357    0.273621   -6.424163
     68          1           0       33.268926   -3.836913   -3.337845
     69          1           0       34.362736   -3.254657   -4.625984
     70          1           0       33.345641   -4.336465   -6.189397
     71          1           0       31.700272   -4.344785   -5.493980
     72          1           0       32.826496   -5.364099   -4.822824
     73          1           0       29.475320   -4.892257   -1.945750
     74          1           0       27.726124   -4.500831   -1.485891
     75          1           0       28.828069   -5.371809   -0.397699
     76          1           0       29.048952   -2.028513    3.876654
     77          1           0       25.721370   -0.446945    5.992045
     78          1           0       25.193026   -0.979575    4.439416
     79          1           0       25.819487    0.730219    4.566390
     80         12           0      -32.013311    0.508405    0.145426
     81          6           0      -29.295619   -1.612595   -0.369419
     82          6           0      -30.265416    3.053130   -1.388787
     83          6           0      -34.719930    2.296931    0.639074
     84          6           0      -34.062238   -2.448219    0.730932
     85          7           0      -29.894704    0.663451   -0.740061
     86          6           0      -28.968676   -0.332822   -0.872488
     87          6           0      -27.711812    0.185910   -1.475769
     88          6           0      -28.049095    1.686040   -1.842640
     89          6           0      -29.518075    1.867129   -1.293893
     90          6           0      -26.988038    2.719070   -1.386731
     91          6           0      -27.256924   -0.620541   -2.716393
     92          6           0      -25.798052   -1.051902   -2.576832
     93          1           0      -24.828496   -0.697719   -3.744531
     94          7           0      -32.421744    2.435437   -0.288354
     95          6           0      -31.572539    3.366431   -0.884698
     96          6           0      -32.306466    4.625239   -0.870927
     97          6           0      -33.623526    4.440954   -0.240437
     98          6           0      -33.630327    2.995724    0.150123
     99          6           0      -31.839600    5.809732   -1.557114
    100          6           0      -34.650044    5.496649   -0.236738
    101          8           0      -34.482832    6.613201   -0.680902
    102          6           0      -36.051049    5.290623    0.223266
    103          7           0      -34.018645   -0.014119    0.557208
    104          6           0      -34.879403    0.960550    0.994443
    105          6           0      -36.214072    0.349107    1.365138
    106          6           0      -36.107248   -1.059595    0.914171
    107          6           0      -34.690921   -1.203173    0.651531
    108          6           0      -36.662416    0.573755    2.867249
    109          6           0      -36.844494   -1.331423   -0.441921
    110          6           0      -37.371448   -2.676702   -0.642768
    111          7           0      -31.775482   -1.625398    0.215316
    112          6           0      -32.651130   -2.674820    0.523301
    113          6           0      -31.892794   -3.868407    0.731026
    114          6           0      -30.595809   -3.533651    0.360220
    115          6           0      -30.572329   -2.137388    0.006593
    116          6           0      -32.479028   -5.154589    1.183641
    117          6           0      -29.299084   -4.047243    0.161919
    118          8           0      -28.871878   -5.168865    0.321570
    119          6           0      -28.411309   -2.852333   -0.251664
    120          6           0      -27.292834   -2.734026    0.697270
    121          8           0      -27.320751   -2.118404    1.776266
    122          8           0      -26.255886   -3.541195    0.288993
    123          6           0      -24.990332   -3.527854    1.004510
    124          1           0      -29.631450    3.825879   -1.827307
    125          1           0      -35.699837    2.753901    0.798208
    126          1           0      -34.709833   -3.302796    0.937857
    127          1           0      -27.040731    0.310906   -0.625522
    128          1           0      -28.091498    1.873011   -2.915207
    129          1           0      -26.110813    2.092052   -1.222749
    130          1           0      -27.258841    3.360488   -0.548005
    131          1           0      -26.762915    3.403246   -2.204489
    132          1           0      -27.243565   -0.043584   -3.640895
    133          1           0      -27.937360   -1.468451   -2.792730
    134          1           0      -25.930406   -2.132066   -2.636917
    135          1           0      -25.461801   -0.737882   -1.589790
    136          1           0      -30.861567    5.587245   -1.984323
    137          1           0      -31.649261    6.681597   -0.930518
    138          1           0      -32.519377    6.042463   -2.377527
    139          1           0      -35.848592    4.783676    1.166743
    140          1           0      -36.554952    4.628580   -0.481418
    141          1           0      -36.560993    6.241717    0.378010
    142          1           0      -36.919220    0.922618    0.764640
    143          1           0      -36.313182   -1.845080    1.641364
    144          1           0      -36.012476    1.300386    3.355139
    145          1           0      -36.818553   -0.339614    3.442314
    146          1           0      -37.599808    1.121995    2.957022
    147          1           0      -36.181344   -1.071935   -1.267238
    148          1           0      -37.701640   -0.667419   -0.552612
    149          1           0      -38.371253   -2.726653   -0.210129
    150          1           0      -36.713036   -3.444569   -0.235255
    151          1           0      -37.621091   -2.818798   -1.694733
    152          1           0      -33.253740   -4.992451    1.932942
    153          1           0      -31.744064   -5.872009    1.549011
    154          1           0      -33.016413   -5.511858    0.305139
    155          1           0      -27.868458   -3.028916   -1.180324
    156          1           0      -24.933565   -3.989619    1.990288
    157          1           0      -24.614135   -2.506430    1.057959
    158          1           0      -24.340268   -4.156189    0.396779
 ---------------------------------------------------------------------

 SCF Done:  E(RwB97XD) =  -4070.59973618     A.U. after   19 cycles

 Excitation energies and oscillator strengths:

 Excited State   1:      Singlet-A      1.6143 eV  768.02 nm  f=0.3654  <S**2>=0.000
     309 -> 315       -0.19429
     311 -> 313        0.68135
     309 <- 315       -0.12116
 This state for optimization and/or second-order correction.
 Total Energy, E(TD-HF/TD-DFT) =  -4070.54041019
 Copying the excited state density for this state as the 1-particle RhoCI density.

 Excited State   2:      Singlet-A      1.6894 eV  733.88 nm  f=0.3952  <S**2>=0.000
     310 -> 316        0.18340
     312 -> 314        0.68255
     310 <- 316        0.11555

 Excited State   3:      Singlet-A      2.1298 eV  582.13 nm  f=0.0996  <S**2>=0.000
     309 -> 313        0.63365
     311 -> 315        0.29995

 Excited State   4:      Singlet-A      2.1431 eV  578.53 nm  f=0.1542  <S**2>=0.000
     310 -> 314        0.65153
     312 -> 316       -0.25245

 Excited State   5:      Singlet-A      3.1998 eV  387.47 nm  f=0.0021  <S**2>=0.000
     304 -> 314       -0.29704
     306 -> 314        0.62277

 The electronic state is 1-A.
 Alpha  occ. eigenvalues --  -46.95282 -46.93542 -19.30872 -19.30094 -19.24935
 Alpha  occ. eigenvalues --  -19.24474 -19.24313 -19.24068 -19.23395 -19.22403
 Alpha  occ. eigenvalues --  -14.46921 -14.46672 -14.46548 -14.46091 -14.44907
 Alpha  occ. eigenvalues --  -14.43969 -14.43758 -14.43149 -10.43278 -10.42938
 Alpha  occ. eigenvalues --  -10.40358 -10.39037 -10.38197 -10.37647 -10.35909
 Alpha  occ. eigenvalues --  -10.35676 -10.35648 -10.35584 -10.35402 -10.35145
 Alpha  occ. eigenvalues --  -10.35081 -10.35070 -10.34734 -10.34689 -10.34650
 Alpha  occ. eigenvalues --  -10.34455 -10.34420 -10.34007 -10.33887 -10.33151
 Alpha  occ. eigenvalues --  -10.33092 -10.33080 -10.32961 -10.32706 -10.32700
 Alpha  occ. eigenvalues --  -10.32613 -10.32425 -10.32372 -10.32268 -10.32201
 Alpha  occ. eigenvalues --  -10.32181 -10.32151 -10.32065 -10.32036 -10.31853
 Alpha  occ. eigenvalues --  -10.31846 -10.31828 -10.31816 -10.31698 -10.31672
 Alpha  occ. eigenvalues --  -10.31477 -10.31407 -10.31339 -10.31319 -10.31201
 Alpha  occ. eigenvalues --  -10.31197 -10.31123 -10.31027 -10.30668 -10.30627
 Alpha  occ. eigenvalues --  -10.30420 -10.30354 -10.30350 -10.30329 -10.30089
 Alpha  occ. eigenvalues --  -10.29972 -10.29954 -10.29852 -10.29606 -10.29357
 Alpha  occ. eigenvalues --  -10.29184 -10.29059 -10.28783 -10.28749 -10.28439
 Alpha  occ. eigenvalues --  -10.28339  -3.21220  -3.19677  -1.94811  -1.94352
 Alpha  occ. eigenvalues --   -1.94176  -1.93278  -1.92794  -1.92677  -1.17931
 Alpha  occ. eigenvalues --   -1.17624  -1.13958  -1.12545  -1.12284  -1.12057
 Alpha  occ. eigenvalues --   -1.08894  -1.08514  -1.06984  -1.06950  -1.05813
 Alpha  occ. eigenvalues --   -1.05348  -1.05004  -1.04569  -1.03626  -1.03508
 Alpha  occ. eigenvalues --   -0.94631  -0.94542  -0.92647  -0.91454  -0.91072
 Alpha  occ. eigenvalues --   -0.90989  -0.90553  -0.89937  -0.89643  -0.89185
 Alpha  occ. eigenvalues --   -0.88962  -0.88382  -0.88269  -0.87766  -0.87163
 Alpha  occ. eigenvalues --   -0.86449  -0.86215  -0.85702  -0.85372  -0.84812
 Alpha  occ. eigenvalues --   -0.84497  -0.84051  -0.83375  -0.83142  -0.82786
 Alpha  occ. eigenvalues --   -0.82633  -0.80587  -0.80231  -0.79912  -0.79242
 Alpha  occ. eigenvalues --   -0.79064  -0.78688  -0.78239  -0.77649  -0.77338
 Alpha  occ. eigenvalues --   -0.76828  -0.75398  -0.74865  -0.74023  -0.72915
 Alpha  occ. eigenvalues --   -0.71315  -0.71026  -0.70603  -0.70026  -0.69941
 Alpha  occ. eigenvalues --   -0.69520  -0.69471  -0.68526  -0.68406  -0.67889
 Alpha  occ. eigenvalues --   -0.67460  -0.67288  -0.67100  -0.66691  -0.66585
 Alpha  occ. eigenvalues --   -0.66051  -0.64016  -0.63934  -0.62714  -0.62339
 Alpha  occ. eigenvalues --   -0.62096  -0.61472  -0.61450  -0.61254  -0.60972
 Alpha  occ. eigenvalues --   -0.60151  -0.59928  -0.59691  -0.59591  -0.59378
 Alpha  occ. eigenvalues --   -0.58397  -0.58186  -0.57818  -0.57644  -0.57420
 Alpha  occ. eigenvalues --   -0.57413  -0.57133  -0.56890  -0.56365  -0.56169
 Alpha  occ. eigenvalues --   -0.55719  -0.55536  -0.55387  -0.55141  -0.54743
 Alpha  occ. eigenvalues --   -0.54572  -0.54503  -0.54490  -0.54231  -0.54028
 Alpha  occ. eigenvalues --   -0.53827  -0.53747  -0.53678  -0.53585  -0.53515
 Alpha  occ. eigenvalues --   -0.53212  -0.53185  -0.52971  -0.52811  -0.52446
 Alpha  occ. eigenvalues --   -0.52356  -0.52056  -0.51960  -0.51745  -0.51615
 Alpha  occ. eigenvalues --   -0.51361  -0.51350  -0.51347  -0.51110  -0.51057
 Alpha  occ. eigenvalues --   -0.50773  -0.50648  -0.50480  -0.50409  -0.49892
 Alpha  occ. eigenvalues --   -0.49583  -0.49511  -0.49169  -0.49077  -0.48940
 Alpha  occ. eigenvalues --   -0.48757  -0.48718  -0.48573  -0.48566  -0.48387
 Alpha  occ. eigenvalues --   -0.48242  -0.48166  -0.48065  -0.47778  -0.47678
 Alpha  occ. eigenvalues --   -0.47669  -0.47319  -0.47238  -0.46991  -0.46883
 Alpha  occ. eigenvalues --   -0.46694  -0.46588  -0.46517  -0.46460  -0.46404
 Alpha  occ. eigenvalues --   -0.46287  -0.45972  -0.45587  -0.45414  -0.45354
 Alpha  occ. eigenvalues --   -0.45259  -0.45162  -0.44982  -0.44866  -0.44858
 Alpha  occ. eigenvalues --   -0.44788  -0.44574  -0.44463  -0.44303  -0.43985
 Alpha  occ. eigenvalues --   -0.43876  -0.43791  -0.43647  -0.43536  -0.43366
 Alpha  occ. eigenvalues --   -0.43139  -0.43083  -0.42883  -0.42586  -0.42350
 Alpha  occ. eigenvalues --   -0.42165  -0.41967  -0.41108  -0.41047  -0.40735
 Alpha  occ. eigenvalues --   -0.40447  -0.40277  -0.39900  -0.39759  -0.39648
 Alpha  occ. eigenvalues --   -0.39298  -0.39067  -0.38768  -0.38407  -0.38369
 Alpha  occ. eigenvalues --   -0.38297  -0.37921  -0.36345  -0.36237  -0.36104
 Alpha  occ. eigenvalues --   -0.35734  -0.35379  -0.35197  -0.33747  -0.33597
 Alpha  occ. eigenvalues --   -0.33485  -0.32833  -0.32660  -0.32163  -0.32040
 Alpha  occ. eigenvalues --   -0.31752  -0.31688  -0.31537  -0.26227  -0.25885
 Alpha  occ. eigenvalues --   -0.23374  -0.23343
 Alpha virt. eigenvalues --   -0.07517  -0.07373  -0.00595   0.00638   0.02316
 Alpha virt. eigenvalues --    0.02780   0.04464   0.04869   0.05837   0.06472
 Alpha virt. eigenvalues --    0.06495   0.06694   0.07455   0.07938   0.08045

 Mulliken charges:
               1
     1  Mg   0.978550
     2  C   -0.032813
     3  C   -0.099690
     4  C   -0.063635
     5  C   -0.089520
     6  N   -0.321907
     7  C    0.015160
     8  C   -0.082617
     9  C   -0.128297
    10  C    0.030564
    11  C    0.020664
    12  C    0.044989
    13  C   -0.121230
    14  H    0.030821
    15  N   -0.523024
    16  C    0.241862
    17  C   -0.149274
    18  C   -0.081320
    19  C    0.154545
    20  C    0.041848
    21  C    0.076143
    22  O   -0.213764
    23  C   -0.007451
    24  N   -0.359259
    25  C    0.071663
    26  C   -0.108378
    27  C   -0.079736
    28  C    0.063585
    29  C    0.008326
    30  C    0.027456
    31  C   -0.074065
    32  N   -0.443902
    33  C    0.130051
    34  C   -0.214764
    35  C    0.007916
    36  C    0.121806
    37  C    0.094302
    38  C    0.108394
    39  O   -0.190834
    40  C   -0.042014
    41  C    0.275667
    42  O   -0.281946
    43  O   -0.372064
    44  C    0.141509
    45  H   -0.011148
    46  H    0.021679
    47  H   -0.003595
    48  H    0.026708
    49  H    0.025660
    50  H    0.045042
    51  H    0.043251
    52  H    0.033145
    53  H    0.030101
    54  H    0.030090
    55  H    0.065271
    56  H    0.054104
    57  H    0.051123
    58  H    0.023064
    59  H    0.045368
    60  H    0.070838
    61  H    0.046576
    62  H    0.048638
    63  H    0.037851
    64  H    0.037782
    65  H    0.044165
    66  H    0.029736
    67  H    0.037018
    68  H    0.035365
    69  H    0.037547
    70  H    0.038904
    71  H    0.028197
    72  H    0.026672
    73  H    0.030826
    74  H    0.066457
    75  H    0.049389
    76  H    0.057579
    77  H    0.060443
    78  H    0.064179
    79  H    0.067658
    80  Mg   0.953531
    81  C    0.048297
    82  C   -0.057532
    83  C   -0.121875
    84  C   -0.096280
    85  N   -0.342851
    86  C   -0.024112
    87  C   -0.029507
    88  C   -0.145916
    89  C    0.045781
    90  C    0.012165
    91  C    0.023734
    92  C   -0.137341
    93  H    0.039240
    94  N   -0.537382
    95  C    0.202112
    96  C   -0.171347
    97  C   -0.064015
    98  C    0.269707
    99  C    0.097212
   100  C   -0.011518
   101  O   -0.239006
   102  C    0.006770
   103  N   -0.368949
   104  C    0.069615
   105  C   -0.083354
   106  C   -0.081771
   107  C    0.063115
   108  C    0.032038
   109  C    0.003096
   110  C   -0.018641
   111  N   -0.407093
   112  C    0.111743
   113  C   -0.185371
   114  C   -0.015230
   115  C    0.112911
   116  C    0.089658
   117  C    0.108517
   118  O   -0.187606
   119  C   -0.127704
   120  C    0.253678
   121  O   -0.269066
   122  O   -0.361187
   123  C    0.148997
   124  H    0.001516
   125  H   -0.005750
   126  H   -0.002759
   127  H    0.049537
   128  H    0.042579
   129  H    0.038446
   130  H    0.051699
   131  H    0.032387
   132  H    0.051890
   133  H    0.051959
   134  H    0.064250
   135  H    0.053281
   136  H    0.001065
   137  H    0.057513
   138  H    0.064913
   139  H    0.039549
   140  H    0.062498
   141  H    0.058199
   142  H    0.032790
   143  H    0.027088
   144  H    0.034030
   145  H    0.045461
   146  H    0.027819
   147  H    0.039415
   148  H    0.019987
   149  H    0.027117
   150  H    0.029242
   151  H    0.034559
   152  H    0.036174
   153  H    0.067944
   154  H    0.051129
   155  H    0.050924
   156  H    0.058149
   157  H    0.047293
   158  H    0.050847
 Sum of Mulliken charges =  -0.00000

 Dipole moment (field-independent basis, Debye):
    X=              1.0318    Y=              2.6850    Z=              0.9730  Tot=              3.0365
 Quadrupole moment (field-independent basis, Debye-Ang):
   XX=           -181.8125   YY=           -535.4651   ZZ=           -488.9672
   XY=            120.3402   XZ=             58.4136   YZ=             24.3715

 Normal termination of Gaussian 16 at Sat Sep 18 18:06:25 2021.
