 Gaussian 16, Revision A.03,
 Gaussian 16:  ES64L-G16RevA.03 25-Dec-2016

 --------------------------------
 #p wB97XD/Def2SVP td=(nstates=5)
 --------------------------------

 --------------------------------
 TDDFT excited states in gaussian
 --------------------------------
 Symbolic Z-matrix:
 Charge =  0 Multiplicity = 1

                         Standard orientation:
 ---------------------------------------------------------------------
 Center     Atomic      Atomic             Coordinates (Angstroms)
 Number     Number       Type             X           Y           Z
 ---------------------------------------------------------------------
      1         12           0      -11.881595   -0.012396   -0.027870
      2          6           0       -9.111476   -1.003980    1.957492
      3          6           0      -11.257066    3.261066    1.002436
      4          6           0      -13.576086    0.945808   -2.682430
      5          6           0      -12.037018   -3.496779   -1.140924
      6          7           0      -10.141247    1.039748    1.176287
      7          6           0       -9.346278    0.390131    2.062367
      8          6           0       -8.720781    1.398527    3.009334
      9          6           0       -9.759941    2.516148    3.100392
     10          6           0      -10.409980    2.307827    1.638525
     11          6           0      -10.852051    2.413069    4.166700
     12          6           0       -7.272878    1.796784    2.484162
     13          6           0       -6.267212    1.816028    3.567304
     14          1           0       -5.243921    2.968346    3.570550
     15          7           0      -12.348284    1.883888   -0.820772
     16          6           0      -12.060398    3.119022   -0.188666
     17          6           0      -12.661823    4.143096   -1.005201
     18          6           0      -13.427314    3.547563   -2.042599
     19          6           0      -13.142018    2.073094   -1.926775
     20          6           0      -12.479819    5.618236   -0.662022
     21          6           0      -14.193759    4.262605   -3.084151
     22          8           0      -14.203120    5.487321   -3.073527
     23          6           0      -14.914206    3.659945   -4.245316
     24          7           0      -12.623494   -1.194443   -1.776075
     25          6           0      -13.455509   -0.501724   -2.578981
     26          6           0      -14.186530   -1.446705   -3.549785
     27          6           0      -13.824274   -2.928565   -2.972688
     28          6           0      -12.801096   -2.556218   -1.868610
     29          6           0      -15.733191   -1.117360   -3.757005
     30          6           0      -13.302119   -3.952582   -4.028544
     31          6           0      -11.753322   -4.163597   -4.136029
     32          7           0      -10.869277   -1.820775    0.295899
     33          6           0      -11.101485   -3.142599   -0.180255
     34          6           0      -10.240152   -4.108553    0.631416
     35          6           0       -9.456665   -3.265599    1.403302
     36          6           0       -9.889774   -1.910419    1.175178
     37          6           0      -10.118565   -5.644593    0.636304
     38          6           0       -8.438301   -3.233612    2.404557
     39          8           0       -7.872932   -4.153795    2.997611
     40          6           0       -8.136603   -1.793835    2.621954
     41          6           0       -6.748368   -1.627107    1.962710
     42          8           0       -6.501924   -1.519397    0.763280
     43          8           0       -5.779641   -1.696559    3.002143
     44          6           0       -4.419004   -1.691259    2.645802
     45          1           0      -11.177605    4.291721    1.354792
     46          1           0      -14.264513    1.353055   -3.425561
     47          1           0      -12.111845   -4.574476   -1.295989
     48          1           0       -8.631847    1.032316    4.032006
     49          1           0       -9.448129    3.550411    3.241312
     50          1           0      -10.609796    1.729535    4.979943
     51          1           0      -11.840869    2.305849    3.720109
     52          1           0      -10.828840    3.407654    4.613590
     53          1           0       -7.317918    2.806459    2.075817
     54          1           0       -6.946678    1.240375    1.605403
     55          1           0       -5.791536    0.844299    3.439658
     56          1           0       -6.793954    1.853594    4.520722
     57          1           0      -13.370991    6.064776   -0.221415
     58          1           0      -12.133689    6.142600   -1.551517
     59          1           0      -11.689802    5.738908    0.079343
     60          1           0      -15.771635    3.105919   -3.862464
     61          1           0      -14.322877    3.001777   -4.883084
     62          1           0      -15.444110    4.415440   -4.824157
     63          1           0      -13.633353   -1.313315   -4.479220
     64          1           0      -14.692013   -3.311737   -2.436807
     65          1           0      -15.944587   -0.071232   -3.536015
     66          1           0      -16.479932   -1.767093   -3.299037
     67          1           0      -15.899483   -1.425078   -4.790548
     68          1           0      -13.673696   -3.741500   -5.030950
     69          1           0      -13.731693   -4.886983   -3.668161
     70          1           0      -11.749626   -4.380402   -5.204501
     71          1           0      -11.309843   -5.000329   -3.595858
     72          1           0      -11.276200   -3.205998   -3.926548
     73          1           0      -10.331045   -6.050326    1.624796
     74          1           0       -9.034322   -5.684518    0.536222
     75          1           0      -10.646361   -6.018232   -0.240879
     76          1           0       -8.046089   -1.599154    3.690662
     77          1           0       -3.728175   -1.759340    3.487093
     78          1           0       -4.222597   -0.752498    2.129408
     79          1           0       -4.296824   -2.558270    1.995980
     80         12           0       11.151564    0.159453   -0.722673
     81          6           0        8.587626    0.524673    1.625726
     82          6           0       11.155513   -3.220619   -0.028537
     83          6           0       14.081128   -0.155034   -2.445988
     84          6           0       11.460232    3.607638   -0.810565
     85          7           0        9.938984   -1.129417    0.563908
     86          6           0        8.837218   -0.790549    1.245519
     87          6           0        7.996532   -1.977838    1.737434
     88          6           0        8.928524   -3.193775    1.364212
     89          6           0       10.096032   -2.501622    0.462560
     90          6           0        9.510966   -4.021758    2.529931
     91          6           0        6.592195   -2.056496    1.138288
     92          6           0        5.584053   -2.785807    2.044838
     93          1           0        6.059724   -3.361490    3.386190
     94          7           0       12.388602   -1.452579   -1.278728
     95          6           0       12.183783   -2.810917   -0.943559
     96          6           0       13.220513   -3.597891   -1.580651
     97          6           0       14.137814   -2.703443   -2.248363
     98          6           0       13.546311   -1.381695   -2.046504
     99          6           0       13.177778   -5.101030   -1.555776
    100          6           0       15.403016   -3.014916   -3.167384
    101          8           0       16.006814   -2.172842   -3.786603
    102          6           0       15.849479   -4.459671   -3.225776
    103          7           0       12.603613    1.514375   -1.425528
    104          6           0       13.710809    1.167421   -2.143044
    105          6           0       14.517507    2.423322   -2.639677
    106          6           0       13.618719    3.562063   -2.160491
    107          6           0       12.504092    2.847117   -1.420172
    108          6           0       16.055630    2.599481   -2.315093
    109          6           0       13.091553    4.398311   -3.350070
    110          6           0       11.861125    3.889312   -4.133251
    111          7           0       10.155515    1.822369    0.071324
    112          6           0       10.385807    3.168503   -0.047241
    113          6           0        9.431843    3.923117    0.694271
    114          6           0        8.663784    2.899384    1.411389
    115          6           0        9.155953    1.716504    1.017120
    116          6           0        9.214979    5.366239    0.817613
    117          6           0        7.664766    2.659076    2.443474
    118          8           0        6.917255    3.452482    3.025323
    119          6           0        7.546923    1.119048    2.641042
    120          6           0        7.807592    0.735004    4.024583
    121          8           0        8.910470    0.645194    4.553579
    122          8           0        6.621728    0.708339    4.714751
    123          6           0        6.632317    0.761596    6.189584
    124          1           0       11.099693   -4.269237    0.271721
    125          1           0       14.910873   -0.253799   -3.148955
    126          1           0       11.492775    4.694417   -0.911710
    127          1           0        7.949565   -2.012486    2.825636
    128          1           0        8.488394   -3.866485    0.628975
    129          1           0        9.205742   -5.023141    2.226855
    130          1           0        9.044500   -3.739953    3.473609
    131          1           0       10.589415   -3.878789    2.598897
    132          1           0        6.592316   -2.523981    0.154367
    133          1           0        6.201238   -1.053473    0.965329
    134          1           0        5.250569   -3.577118    1.373165
    135          1           0        4.681098   -2.195389    2.206775
    136          1           0       12.393870   -5.356930   -0.842868
    137          1           0       14.151598   -5.478901   -1.243618
    138          1           0       12.965471   -5.538460   -2.532472
    139          1           0       16.377285   -4.852372   -2.356083
    140          1           0       16.441055   -4.586100   -4.132496
    141          1           0       14.900353   -4.979349   -3.356447
    142          1           0       14.467789    2.279760   -3.718797
    143          1           0       14.228318    4.173833   -1.496470
    144          1           0       16.329220    3.578875   -1.924394
    145          1           0       16.609850    2.499067   -3.247750
    146          1           0       16.350080    1.779348   -1.659601
    147          1           0       13.943817    4.512788   -4.018783
    148          1           0       12.885446    5.380824   -2.924449
    149          1           0       12.105204    4.083987   -5.177271
    150          1           0       10.949328    4.444189   -3.913455
    151          1           0       11.596537    2.852124   -3.930533
    152          1           0        8.139866    5.540670    0.793361
    153          1           0        9.696262    5.982018    0.057760
    154          1           0        9.468730    5.694500    1.825722
    155          1           0        6.528427    0.891785    2.326568
    156          1           0        7.644856    0.758795    6.594634
    157          1           0        6.131326   -0.134781    6.555947
    158          1           0        6.103801    1.698244    6.363428
 ---------------------------------------------------------------------

 SCF Done:  E(RwB97XD) =  -4070.57837020     A.U. after   20 cycles

 Excitation energies and oscillator strengths:

 Excited State   1:      Singlet-A      1.6238 eV  763.53 nm  f=0.3357  <S**2>=0.000
     309 -> 315       -0.20424
     312 -> 314        0.67786
     309 <- 315       -0.12285
 This state for optimization and/or second-order correction.
 Total Energy, E(TD-HF/TD-DFT) =  -4070.51869586
 Copying the excited state density for this state as the 1-particle RhoCI density.

 Excited State   2:      Singlet-A      1.6569 eV  748.30 nm  f=0.4222  <S**2>=0.000
     310 -> 316        0.18724
     311 -> 313        0.68163
     310 <- 316        0.11629

 Excited State   3:      Singlet-A      2.0776 eV  596.78 nm  f=0.1535  <S**2>=0.000
     310 -> 313        0.65636
     311 -> 316       -0.23977

 Excited State   4:      Singlet-A      2.1335 eV  581.14 nm  f=0.0541  <S**2>=0.000
     309 -> 314        0.61274
     312 -> 315        0.34205

 Excited State   5:      Singlet-A      3.1035 eV  399.49 nm  f=0.0053  <S**2>=0.000
     306 -> 313       -0.12844
     308 -> 313        0.67540

 The electronic state is 1-A.
 Alpha  occ. eigenvalues --  -46.97663 -46.94539 -19.29960 -19.29073 -19.26354
 Alpha  occ. eigenvalues --  -19.24912 -19.24004 -19.23881 -19.23716 -19.22575
 Alpha  occ. eigenvalues --  -14.46998 -14.46828 -14.46514 -14.46413 -14.44844
 Alpha  occ. eigenvalues --  -14.44350 -14.44009 -14.42722 -10.44511 -10.42464
 Alpha  occ. eigenvalues --  -10.40115 -10.39059 -10.38594 -10.38063 -10.35859
 Alpha  occ. eigenvalues --  -10.35464 -10.35460 -10.35357 -10.35052 -10.34872
 Alpha  occ. eigenvalues --  -10.34867 -10.34860 -10.34852 -10.34786 -10.34660
 Alpha  occ. eigenvalues --  -10.34608 -10.34328 -10.34123 -10.33847 -10.33579
 Alpha  occ. eigenvalues --  -10.33495 -10.32846 -10.32792 -10.32765 -10.32664
 Alpha  occ. eigenvalues --  -10.32584 -10.32444 -10.32429 -10.32266 -10.32243
 Alpha  occ. eigenvalues --  -10.32216 -10.32127 -10.32100 -10.31948 -10.31785
 Alpha  occ. eigenvalues --  -10.31752 -10.31652 -10.31652 -10.31645 -10.31640
 Alpha  occ. eigenvalues --  -10.31613 -10.31461 -10.31410 -10.31180 -10.31104
 Alpha  occ. eigenvalues --  -10.31090 -10.31057 -10.30882 -10.30861 -10.30827
 Alpha  occ. eigenvalues --  -10.30679 -10.30591 -10.30226 -10.30211 -10.30144
 Alpha  occ. eigenvalues --  -10.30144 -10.29920 -10.29789 -10.29641 -10.29630
 Alpha  occ. eigenvalues --  -10.29610 -10.29532 -10.29239 -10.29178 -10.29048
 Alpha  occ. eigenvalues --  -10.28746  -3.23367  -3.20501  -1.96882  -1.96529
 Alpha  occ. eigenvalues --   -1.96280  -1.94090  -1.93620  -1.93479  -1.17998
 Alpha  occ. eigenvalues --   -1.17211  -1.13754  -1.11860  -1.11549  -1.11053
 Alpha  occ. eigenvalues --   -1.10868  -1.08790  -1.06393  -1.06212  -1.05446
 Alpha  occ. eigenvalues --   -1.05273  -1.04871  -1.04423  -1.03301  -1.03006
 Alpha  occ. eigenvalues --   -0.96410  -0.94001  -0.91016  -0.90981  -0.90631
 Alpha  occ. eigenvalues --   -0.90587  -0.90022  -0.89691  -0.89212  -0.88966
 Alpha  occ. eigenvalues --   -0.88791  -0.88340  -0.87976  -0.87505  -0.86687
 Alpha  occ. eigenvalues --   -0.86071  -0.85577  -0.85275  -0.84610  -0.84167
 Alpha  occ. eigenvalues --   -0.83824  -0.83563  -0.82900  -0.82814  -0.82241
 Alpha  occ. eigenvalues --   -0.82082  -0.80041  -0.79991  -0.79196  -0.78994
 Alpha  occ. eigenvalues --   -0.78795  -0.78695  -0.77969  -0.77775  -0.77156
 Alpha  occ. eigenvalues --   -0.76910  -0.74750  -0.74368  -0.73830  -0.73018
 Alpha  occ. eigenvalues --   -0.71850  -0.71677  -0.70720  -0.70359  -0.69595
 Alpha  occ. eigenvalues --   -0.69240  -0.68810  -0.68013  -0.67304  -0.66921
 Alpha  occ. eigenvalues --   -0.66697  -0.66658  -0.66572  -0.66554  -0.66389
 Alpha  occ. eigenvalues --   -0.65680  -0.64226  -0.63347  -0.61920  -0.61769
 Alpha  occ. eigenvalues --   -0.61727  -0.61270  -0.61024  -0.60982  -0.60867
 Alpha  occ. eigenvalues --   -0.60272  -0.60228  -0.59606  -0.59348  -0.59015
 Alpha  occ. eigenvalues --   -0.58102  -0.57939  -0.57765  -0.57623  -0.57329
 Alpha  occ. eigenvalues --   -0.57066  -0.56860  -0.56558  -0.56515  -0.55634
 Alpha  occ. eigenvalues --   -0.55573  -0.55311  -0.55219  -0.54972  -0.54732
 Alpha  occ. eigenvalues --   -0.54568  -0.54565  -0.54197  -0.54087  -0.54002
 Alpha  occ. eigenvalues --   -0.53895  -0.53840  -0.53612  -0.53495  -0.53325
 Alpha  occ. eigenvalues --   -0.53252  -0.52682  -0.52529  -0.52476  -0.52123
 Alpha  occ. eigenvalues --   -0.52096  -0.51910  -0.51570  -0.51465  -0.51403
 Alpha  occ. eigenvalues --   -0.51260  -0.51166  -0.50918  -0.50907  -0.50858
 Alpha  occ. eigenvalues --   -0.50427  -0.50394  -0.50187  -0.50092  -0.49980
 Alpha  occ. eigenvalues --   -0.49701  -0.49500  -0.49402  -0.49122  -0.48994
 Alpha  occ. eigenvalues --   -0.48774  -0.48621  -0.48136  -0.48016  -0.47983
 Alpha  occ. eigenvalues --   -0.47902  -0.47825  -0.47799  -0.47730  -0.47508
 Alpha  occ. eigenvalues --   -0.47357  -0.47223  -0.47140  -0.47058  -0.46886
 Alpha  occ. eigenvalues --   -0.46513  -0.46489  -0.46373  -0.46183  -0.46018
 Alpha  occ. eigenvalues --   -0.45831  -0.45802  -0.45539  -0.45445  -0.45268
 Alpha  occ. eigenvalues --   -0.45211  -0.45098  -0.44995  -0.44930  -0.44688
 Alpha  occ. eigenvalues --   -0.44605  -0.44344  -0.44219  -0.43970  -0.43869
 Alpha  occ. eigenvalues --   -0.43486  -0.43351  -0.43308  -0.42967  -0.42962
 Alpha  occ. eigenvalues --   -0.42859  -0.42744  -0.42461  -0.42339  -0.42098
 Alpha  occ. eigenvalues --   -0.41948  -0.41764  -0.41074  -0.40483  -0.40376
 Alpha  occ. eigenvalues --   -0.40248  -0.40182  -0.39870  -0.39688  -0.39626
 Alpha  occ. eigenvalues --   -0.39543  -0.38721  -0.38593  -0.38316  -0.37994
 Alpha  occ. eigenvalues --   -0.37711  -0.37646  -0.37186  -0.36257  -0.36225
 Alpha  occ. eigenvalues --   -0.35694  -0.35615  -0.35454  -0.33536  -0.33513
 Alpha  occ. eigenvalues --   -0.33048  -0.32988  -0.32745  -0.32716  -0.32143
 Alpha  occ. eigenvalues --   -0.31738  -0.31631  -0.30784  -0.25965  -0.25368
 Alpha  occ. eigenvalues --   -0.23054  -0.22833
 Alpha virt. eigenvalues --   -0.07220  -0.06884  -0.00730   0.00673   0.01851
 Alpha virt. eigenvalues --    0.02701   0.02926   0.04314   0.04646   0.05745
 Alpha virt. eigenvalues --    0.06849   0.07494   0.07582   0.07836   0.08451

 Mulliken charges:
               1
     1  Mg   0.936490
     2  C    0.010893
     3  C   -0.075250
     4  C   -0.029793
     5  C   -0.064745
     6  N   -0.298205
     7  C   -0.021709
     8  C   -0.051834
     9  C   -0.134165
    10  C    0.044072
    11  C    0.038216
    12  C    0.033742
    13  C   -0.117412
    14  H    0.035947
    15  N   -0.490281
    16  C    0.145896
    17  C   -0.165503
    18  C   -0.025049
    19  C    0.111753
    20  C    0.096258
    21  C   -0.006989
    22  O   -0.246371
    23  C    0.014070
    24  N   -0.325783
    25  C    0.062823
    26  C   -0.098301
    27  C   -0.020452
    28  C    0.007700
    29  C    0.005971
    30  C   -0.047073
    31  C   -0.047976
    32  N   -0.422851
    33  C    0.106731
    34  C   -0.210884
    35  C   -0.023505
    36  C    0.161936
    37  C    0.090946
    38  C    0.075674
    39  O   -0.216513
    40  C   -0.054954
    41  C    0.276582
    42  O   -0.229580
    43  O   -0.374790
    44  C    0.144817
    45  H    0.004731
    46  H   -0.047441
    47  H   -0.001035
    48  H    0.012689
    49  H    0.029806
    50  H    0.042166
    51  H    0.046935
    52  H    0.028551
    53  H    0.032810
    54  H    0.056322
    55  H    0.045100
    56  H    0.046266
    57  H    0.058379
    58  H    0.061439
    59  H    0.009637
    60  H    0.040861
    61  H    0.071592
    62  H    0.046919
    63  H    0.050722
    64  H    0.037807
    65  H    0.052431
    66  H    0.033862
    67  H    0.031488
    68  H    0.040177
    69  H    0.030940
    70  H    0.035485
    71  H    0.046326
    72  H    0.060483
    73  H    0.072872
    74  H    0.067788
    75  H    0.038871
    76  H    0.061103
    77  H    0.058095
    78  H    0.042163
    79  H    0.053108
    80  Mg   0.960106
    81  C   -0.000856
    82  C   -0.090232
    83  C   -0.073988
    84  C   -0.086976
    85  N   -0.357271
    86  C   -0.011402
    87  C   -0.047780
    88  C   -0.148985
    89  C    0.067943
    90  C    0.032143
    91  C    0.017067
    92  C   -0.110758
    93  H    0.046746
    94  N   -0.477860
    95  C    0.165588
    96  C   -0.178425
    97  C   -0.090017
    98  C    0.129377
    99  C    0.057127
   100  C    0.082266
   101  O   -0.208459
   102  C   -0.022516
   103  N   -0.338009
   104  C    0.039777
   105  C   -0.081610
   106  C   -0.049123
   107  C    0.051079
   108  C    0.022584
   109  C   -0.042538
   110  C   -0.033363
   111  N   -0.449859
   112  C    0.142076
   113  C   -0.165008
   114  C   -0.034663
   115  C    0.132545
   116  C    0.085468
   117  C    0.094094
   118  O   -0.220767
   119  C   -0.059013
   120  C    0.274365
   121  O   -0.254798
   122  O   -0.379435
   123  C    0.128379
   124  H    0.001381
   125  H    0.020083
   126  H   -0.015919
   127  H    0.038777
   128  H    0.031320
   129  H    0.040177
   130  H    0.043082
   131  H    0.055359
   132  H    0.031278
   133  H    0.031115
   134  H    0.040780
   135  H    0.054174
   136  H    0.029155
   137  H    0.047837
   138  H    0.067802
   139  H    0.081986
   140  H    0.053746
   141  H    0.031827
   142  H    0.039765
   143  H    0.036037
   144  H    0.039769
   145  H    0.035629
   146  H    0.050940
   147  H    0.030079
   148  H    0.031079
   149  H    0.040365
   150  H    0.037300
   151  H    0.046657
   152  H    0.053017
   153  H    0.034629
   154  H    0.057752
   155  H    0.073299
   156  H    0.066878
   157  H    0.054409
   158  H    0.073417
 Sum of Mulliken charges =  -0.00000

 Dipole moment (field-independent basis, Debye):
    X=             -3.7008    Y=             -4.9884    Z=             -1.5446  Tot=              6.4004
 Quadrupole moment (field-independent basis, Debye-Ang):
   XX=           -440.8746   YY=           -500.4125   ZZ=           -503.3265
   XY=             32.5127   XZ=            -24.9853   YZ=             18.7667

 Normal termination of Gaussian 16 at Sun Sep 19 12:24:05 2021.
