 Gaussian 16, Revision A.03,
 Gaussian 16:  ES64L-G16RevA.03 25-Dec-2016

 --------------------------------
 #p wB97XD/Def2SVP td=(nstates=5)
 --------------------------------

 --------------------------------
 TDDFT excited states in gaussian
 --------------------------------
 Symbolic Z-matrix:
 Charge =  0 Multiplicity = 1

                         Standard orientation:
 ---------------------------------------------------------------------
 Center     Atomic      Atomic             Coordinates (Angstroms)
 Number     Number       Type             X           Y           Z
 ---------------------------------------------------------------------
      1         12           0       28.734721    0.571845    0.572145
      2          6           0       28.967176   -2.545846   -0.955981
      3          6           0       27.322589    1.847875   -2.207973
      4          6           0       28.969879    3.638636    1.973920
      5          6           0       30.615928   -0.685785    3.173917
      6          7           0       28.223948   -0.304250   -1.398369
      7          6           0       28.220412   -1.640337   -1.708874
      8          6           0       27.602649   -1.859748   -3.037383
      9          6           0       27.107107   -0.491017   -3.518402
     10          6           0       27.537230    0.461583   -2.321117
     11          6           0       27.531532    0.005041   -4.891974
     12          6           0       26.439983   -3.004386   -2.973264
     13          6           0       26.643644   -4.283767   -3.818230
     14          1           0       25.486617   -4.922895   -4.546038
     15          7           0       28.113065    2.453490    0.025161
     16          6           0       27.550224    2.799209   -1.194237
     17          6           0       27.321763    4.197837   -1.232786
     18          6           0       27.800509    4.756053   -0.016563
     19          6           0       28.306461    3.600345    0.731086
     20          6           0       26.529102    4.793448   -2.461354
     21          6           0       27.825059    6.245873    0.320640
     22          8           0       28.313111    6.741702    1.347466
     23          6           0       27.162326    7.201197   -0.571361
     24          7           0       29.860882    1.472747    2.209183
     25          6           0       29.706601    2.702809    2.653696
     26          6           0       30.621677    2.971034    3.869762
     27          6           0       30.670688    1.492289    4.422698
     28          6           0       30.332407    0.671508    3.182239
     29          6           0       32.076861    3.536275    3.671745
     30          6           0       29.699955    1.141532    5.649920
     31          6           0       28.248575    1.313340    5.460061
     32          7           0       29.715826   -1.266764    1.094126
     33          6           0       30.456292   -1.644083    2.231550
     34          6           0       30.863993   -3.006509    2.099831
     35          6           0       30.380182   -3.394213    0.866201
     36          6           0       29.590720   -2.320763    0.337939
     37          6           0       31.823553   -3.703264    2.934376
     38          6           0       30.172471   -4.500041    0.055386
     39          8           0       30.557580   -5.670266    0.146500
     40          6           0       29.338586   -4.020983   -1.219018
     41          6           0       30.293682   -4.086436   -2.364690
     42          8           0       31.357080   -3.537344   -2.563244
     43          8           0       29.752265   -4.960957   -3.214481
     44          6           0       30.508092   -5.194026   -4.488569
     45          1           0       26.678891    2.084692   -3.057663
     46          1           0       28.883097    4.615607    2.452509
     47          1           0       31.153889   -1.086881    4.035169
     48          1           0       28.417940   -2.215800   -3.665943
     49          1           0       26.017367   -0.488158   -3.509922
     50          1           0       28.386374    0.585905   -4.547653
     51          1           0       26.772293    0.548048   -5.455104
     52          1           0       27.900955   -0.703730   -5.632602
     53          1           0       25.486192   -2.546571   -3.233870
     54          1           0       26.328310   -3.459616   -1.988872
     55          1           0       26.942313   -5.061290   -3.114530
     56          1           0       27.493437   -4.196963   -4.493989
     57          1           0       27.109200    5.616622   -2.878021
     58          1           0       25.694285    5.199061   -1.889683
     59          1           0       26.346643    4.150133   -3.322199
     60          1           0       27.567827    7.141006   -1.580384
     61          1           0       27.539375    8.180953   -0.279038
     62          1           0       26.072704    7.195767   -0.533228
     63          1           0       30.035053    3.490361    4.627701
     64          1           0       31.696128    1.388270    4.776513
     65          1           0       32.630198    3.132896    2.824537
     66          1           0       32.547600    3.299140    4.626506
     67          1           0       32.054774    4.617364    3.531890
     68          1           0       29.903331    1.732806    6.543081
     69          1           0       29.676629    0.068332    5.838901
     70          1           0       27.960519    0.402950    4.936275
     71          1           0       27.883819    2.146528    4.858581
     72          1           0       27.609896    1.351096    6.341925
     73          1           0       32.786879   -3.390022    2.530141
     74          1           0       31.764819   -4.791009    2.909267
     75          1           0       31.697805   -3.504011    3.999171
     76          1           0       28.413608   -4.578720   -1.365857
     77          1           0       29.923721   -4.671441   -5.246209
     78          1           0       30.599227   -6.264597   -4.670669
     79          1           0       31.511391   -4.773247   -4.560876
     80         12           0      -29.678726   -0.310560    0.066780
     81          6           0      -26.445290    0.330968   -1.180788
     82          6           0      -28.321171   -2.768863    1.899384
     83          6           0      -32.602321   -0.473731    1.518187
     84          6           0      -30.633456    2.781270   -1.449645
     85          7           0      -27.597557   -1.078964    0.345247
     86          6           0      -26.447694   -0.754917   -0.292366
     87          6           0      -25.268305   -1.620625    0.102084
     88          6           0      -26.020460   -2.768689    0.887667
     89          6           0      -27.412074   -2.208026    1.095743
     90          6           0      -26.053580   -4.170804    0.150567
     91          6           0      -24.042229   -1.040143    0.933148
     92          6           0      -24.136736    0.318382    1.677185
     93          1           0      -23.340341    0.477646    3.025947
     94          7           0      -30.372282   -1.603142    1.450125
     95          6           0      -29.663981   -2.465163    2.167235
     96          6           0      -30.546252   -3.072000    3.200924
     97          6           0      -31.893917   -2.483799    2.958085
     98          6           0      -31.645362   -1.460136    1.942574
     99          6           0      -30.130548   -4.198557    4.108092
    100          6           0      -33.149002   -2.812499    3.723434
    101          8           0      -33.104065   -3.693507    4.578487
    102          6           0      -34.530121   -2.074473    3.571909
    103          7           0      -31.417348    1.074307    0.133482
    104          6           0      -32.476163    0.594821    0.688573
    105          6           0      -33.674405    1.597095    0.374254
    106          6           0      -32.926535    2.716053   -0.353620
    107          6           0      -31.527446    2.172946   -0.571589
    108          6           0      -34.904566    1.078212   -0.388789
    109          6           0      -32.729081    4.049727    0.536906
    110          6           0      -33.481103    5.307608    0.064834
    111          7           0      -28.790309    1.286878   -1.016362
    112          6           0      -29.301604    2.383131   -1.659271
    113          6           0      -28.298051    2.958865   -2.591722
    114          6           0      -27.084197    2.255113   -2.350907
    115          6           0      -27.513055    1.181484   -1.456295
    116          6           0      -28.456443    4.219237   -3.471206
    117          6           0      -25.694447    2.122615   -2.635976
    118          8           0      -24.862761    2.818807   -3.243045
    119          6           0      -25.225016    0.815601   -1.947807
    120          6           0      -24.683679   -0.096502   -3.052495
    121          8           0      -23.570468   -0.422808   -3.368586
    122          8           0      -25.774242   -0.755757   -3.630052
    123          6           0      -25.486734   -1.796627   -4.665320
    124          1           0      -27.850591   -3.557640    2.490331
    125          1           0      -33.574773   -0.594895    2.001573
    126          1           0      -31.014261    3.566519   -2.105469
    127          1           0      -24.914478   -2.044322   -0.837629
    128          1           0      -25.513424   -2.945675    1.836300
    129          1           0      -25.587447   -4.105251   -0.831980
    130          1           0      -27.118183   -4.281063   -0.052821
    131          1           0      -25.618851   -4.934692    0.795488
    132          1           0      -23.194415   -0.997559    0.249286
    133          1           0      -23.739423   -1.780382    1.674501
    134          1           0      -25.196517    0.462874    1.887276
    135          1           0      -23.674475    1.146880    1.141404
    136          1           0      -30.970982   -4.686802    4.600991
    137          1           0      -29.358208   -3.793661    4.763116
    138          1           0      -29.576551   -4.866858    3.448056
    139          1           0      -34.999056   -1.951196    2.594961
    140          1           0      -34.395937   -1.042446    3.895989
    141          1           0      -35.312827   -2.544482    4.166665
    142          1           0      -34.140567    1.959187    1.289975
    143          1           0      -33.335441    3.101796   -1.288131
    144          1           0      -34.820941    0.016046   -0.619366
    145          1           0      -35.097263    1.663266   -1.288681
    146          1           0      -35.828128    1.133635    0.187467
    147          1           0      -31.684858    4.356641    0.577285
    148          1           0      -33.046811    3.775376    1.543061
    149          1           0      -32.978242    6.255663    0.257286
    150          1           0      -34.397482    5.328071    0.654627
    151          1           0      -33.599302    5.139455   -1.005681
    152          1           0      -29.318931    4.841645   -3.235082
    153          1           0      -28.575081    3.822042   -4.479006
    154          1           0      -27.511884    4.762486   -3.457790
    155          1           0      -24.427762    1.046233   -1.241971
    156          1           0      -24.599006   -1.682352   -5.287011
    157          1           0      -26.329171   -1.701607   -5.350167
    158          1           0      -25.502305   -2.845176   -4.367297
 ---------------------------------------------------------------------

 SCF Done:  E(RwB97XD) =  -4070.57064424     A.U. after   19 cycles

 Excitation energies and oscillator strengths:

 Excited State   1:      Singlet-A      1.6463 eV  753.09 nm  f=0.3712  <S**2>=0.000
     310 -> 316        0.18130
     312 -> 313        0.68365
     310 <- 316        0.11554
 This state for optimization and/or second-order correction.
 Total Energy, E(TD-HF/TD-DFT) =  -4070.51014265
 Copying the excited state density for this state as the 1-particle RhoCI density.

 Excited State   2:      Singlet-A      1.7162 eV  722.41 nm  f=0.4080  <S**2>=0.000
     309 -> 315       -0.19063
     311 -> 314        0.68129
     309 <- 315       -0.11532

 Excited State   3:      Singlet-A      2.1205 eV  584.70 nm  f=0.1346  <S**2>=0.000
     310 -> 313        0.64942
     312 -> 316       -0.26631

 Excited State   4:      Singlet-A      2.2310 eV  555.74 nm  f=0.0955  <S**2>=0.000
     309 -> 314        0.63455
     311 -> 315        0.29972

 Excited State   5:      Singlet-A      3.3233 eV  373.08 nm  f=0.0023  <S**2>=0.000
     306 -> 313        0.37114
     306 -> 318       -0.23955
     306 -> 320        0.16354
     307 -> 313        0.45658
     307 -> 318       -0.15068

 The electronic state is 1-A.
 Alpha  occ. eigenvalues --  -46.96432 -46.95680 -19.30277 -19.29894 -19.25415
 Alpha  occ. eigenvalues --  -19.24628 -19.24033 -19.23699 -19.23599 -19.23315
 Alpha  occ. eigenvalues --  -14.46936 -14.46581 -14.46427 -14.46397 -14.45085
 Alpha  occ. eigenvalues --  -14.44737 -14.44315 -14.43579 -10.43804 -10.42457
 Alpha  occ. eigenvalues --  -10.39798 -10.39573 -10.39039 -10.38201 -10.35669
 Alpha  occ. eigenvalues --  -10.35597 -10.35474 -10.35471 -10.35238 -10.35165
 Alpha  occ. eigenvalues --  -10.35145 -10.34782 -10.34712 -10.34633 -10.34446
 Alpha  occ. eigenvalues --  -10.34303 -10.34197 -10.34106 -10.34090 -10.33842
 Alpha  occ. eigenvalues --  -10.33820 -10.33396 -10.33126 -10.33087 -10.33003
 Alpha  occ. eigenvalues --  -10.32898 -10.32883 -10.32810 -10.32611 -10.32576
 Alpha  occ. eigenvalues --  -10.32295 -10.32287 -10.32086 -10.32008 -10.31982
 Alpha  occ. eigenvalues --  -10.31962 -10.31956 -10.31849 -10.31703 -10.31604
 Alpha  occ. eigenvalues --  -10.31547 -10.31547 -10.31477 -10.31464 -10.31445
 Alpha  occ. eigenvalues --  -10.31337 -10.31196 -10.31143 -10.31142 -10.30993
 Alpha  occ. eigenvalues --  -10.30533 -10.30471 -10.30439 -10.30362 -10.30343
 Alpha  occ. eigenvalues --  -10.30326 -10.30319 -10.30116 -10.30036 -10.29931
 Alpha  occ. eigenvalues --  -10.29855 -10.29626 -10.29450 -10.29275 -10.28706
 Alpha  occ. eigenvalues --  -10.28547  -3.22361  -3.21544  -1.95937  -1.95481
 Alpha  occ. eigenvalues --   -1.95329  -1.95134  -1.94642  -1.94528  -1.19195
 Alpha  occ. eigenvalues --   -1.18278  -1.11761  -1.11656  -1.11336  -1.10826
 Alpha  occ. eigenvalues --   -1.09563  -1.09551  -1.08760  -1.07435  -1.06864
 Alpha  occ. eigenvalues --   -1.06309  -1.06081  -1.05404  -1.05349  -1.04660
 Alpha  occ. eigenvalues --   -0.95639  -0.94201  -0.91750  -0.91127  -0.90749
 Alpha  occ. eigenvalues --   -0.90621  -0.90501  -0.90319  -0.90227  -0.89889
 Alpha  occ. eigenvalues --   -0.89530  -0.88924  -0.88811  -0.87342  -0.86856
 Alpha  occ. eigenvalues --   -0.86570  -0.86155  -0.85854  -0.84993  -0.84806
 Alpha  occ. eigenvalues --   -0.83939  -0.83732  -0.83517  -0.82798  -0.82704
 Alpha  occ. eigenvalues --   -0.82495  -0.80717  -0.80496  -0.79664  -0.79602
 Alpha  occ. eigenvalues --   -0.79312  -0.78969  -0.78642  -0.77898  -0.77331
 Alpha  occ. eigenvalues --   -0.77298  -0.75484  -0.75358  -0.74402  -0.73666
 Alpha  occ. eigenvalues --   -0.71625  -0.71344  -0.71222  -0.71045  -0.70619
 Alpha  occ. eigenvalues --   -0.69735  -0.69527  -0.69172  -0.68802  -0.67733
 Alpha  occ. eigenvalues --   -0.67667  -0.67530  -0.67382  -0.66901  -0.66780
 Alpha  occ. eigenvalues --   -0.65960  -0.65210  -0.64053  -0.62615  -0.62430
 Alpha  occ. eigenvalues --   -0.62232  -0.61917  -0.61471  -0.61313  -0.60602
 Alpha  occ. eigenvalues --   -0.60557  -0.60254  -0.60113  -0.59896  -0.59281
 Alpha  occ. eigenvalues --   -0.58425  -0.58371  -0.57887  -0.57699  -0.57676
 Alpha  occ. eigenvalues --   -0.57482  -0.57055  -0.56997  -0.56774  -0.56648
 Alpha  occ. eigenvalues --   -0.56534  -0.55936  -0.55613  -0.55298  -0.55168
 Alpha  occ. eigenvalues --   -0.54950  -0.54922  -0.54740  -0.54649  -0.54142
 Alpha  occ. eigenvalues --   -0.53989  -0.53850  -0.53689  -0.53554  -0.53241
 Alpha  occ. eigenvalues --   -0.53126  -0.53047  -0.53022  -0.52549  -0.52332
 Alpha  occ. eigenvalues --   -0.51979  -0.51771  -0.51731  -0.51664  -0.51482
 Alpha  occ. eigenvalues --   -0.51389  -0.51135  -0.51014  -0.50963  -0.50823
 Alpha  occ. eigenvalues --   -0.50496  -0.50474  -0.50444  -0.50281  -0.50260
 Alpha  occ. eigenvalues --   -0.50031  -0.49820  -0.49551  -0.49395  -0.49315
 Alpha  occ. eigenvalues --   -0.49229  -0.49103  -0.48898  -0.48766  -0.48614
 Alpha  occ. eigenvalues --   -0.48601  -0.48255  -0.48180  -0.48071  -0.47918
 Alpha  occ. eigenvalues --   -0.47821  -0.47760  -0.47513  -0.47318  -0.47180
 Alpha  occ. eigenvalues --   -0.46808  -0.46565  -0.46395  -0.46143  -0.46084
 Alpha  occ. eigenvalues --   -0.46035  -0.45933  -0.45625  -0.45542  -0.45297
 Alpha  occ. eigenvalues --   -0.45278  -0.45150  -0.45108  -0.44931  -0.44602
 Alpha  occ. eigenvalues --   -0.44469  -0.44278  -0.44147  -0.44066  -0.44064
 Alpha  occ. eigenvalues --   -0.44023  -0.43749  -0.43618  -0.43386  -0.43133
 Alpha  occ. eigenvalues --   -0.43014  -0.42874  -0.42841  -0.42646  -0.42618
 Alpha  occ. eigenvalues --   -0.42089  -0.41902  -0.41407  -0.41168  -0.40853
 Alpha  occ. eigenvalues --   -0.40786  -0.40155  -0.40039  -0.39979  -0.39745
 Alpha  occ. eigenvalues --   -0.39641  -0.39086  -0.38915  -0.38742  -0.38433
 Alpha  occ. eigenvalues --   -0.38299  -0.38052  -0.37087  -0.36476  -0.36282
 Alpha  occ. eigenvalues --   -0.36256  -0.35886  -0.35748  -0.34116  -0.33689
 Alpha  occ. eigenvalues --   -0.33511  -0.33293  -0.32972  -0.32890  -0.32712
 Alpha  occ. eigenvalues --   -0.32512  -0.32153  -0.31444  -0.26444  -0.25935
 Alpha  occ. eigenvalues --   -0.23367  -0.23260
 Alpha virt. eigenvalues --   -0.07346  -0.07286  -0.00150   0.00285   0.01392
 Alpha virt. eigenvalues --    0.02330   0.03829   0.04348   0.04498   0.05296
 Alpha virt. eigenvalues --    0.06790   0.07167   0.07743   0.07947   0.08618

 Mulliken charges:
               1
     1  Mg   0.939121
     2  C   -0.014568
     3  C   -0.073918
     4  C   -0.062170
     5  C   -0.108154
     6  N   -0.378592
     7  C    0.014457
     8  C   -0.066751
     9  C   -0.052562
    10  C   -0.019117
    11  C    0.003416
    12  C    0.003782
    13  C   -0.135667
    14  H    0.038440
    15  N   -0.463657
    16  C    0.198507
    17  C   -0.182597
    18  C   -0.073541
    19  C    0.131175
    20  C    0.082948
    21  C    0.052673
    22  O   -0.248048
    23  C   -0.009963
    24  N   -0.296404
    25  C    0.020121
    26  C   -0.042570
    27  C   -0.112687
    28  C    0.095875
    29  C    0.041902
    30  C    0.013750
    31  C   -0.088491
    32  N   -0.409026
    33  C    0.114873
    34  C   -0.133359
    35  C    0.022690
    36  C    0.108492
    37  C    0.062409
    38  C    0.079738
    39  O   -0.226676
    40  C   -0.091789
    41  C    0.269379
    42  O   -0.244567
    43  O   -0.346882
    44  C    0.120688
    45  H   -0.007303
    46  H    0.014658
    47  H   -0.002419
    48  H    0.047200
    49  H    0.033959
    50  H    0.048090
    51  H    0.042019
    52  H    0.040854
    53  H    0.041767
    54  H    0.042558
    55  H    0.057927
    56  H    0.038067
    57  H    0.037988
    58  H    0.060558
    59  H    0.052922
    60  H    0.039039
    61  H    0.045914
    62  H    0.075428
    63  H    0.019752
    64  H    0.023008
    65  H    0.050111
    66  H    0.040562
    67  H    0.051586
    68  H    0.036074
    69  H    0.028689
    70  H    0.022185
    71  H    0.034889
    72  H    0.039571
    73  H    0.074325
    74  H    0.055804
    75  H    0.035985
    76  H    0.056746
    77  H    0.046825
    78  H    0.068339
    79  H    0.073649
    80  Mg   0.957525
    81  C   -0.036373
    82  C   -0.091708
    83  C   -0.036429
    84  C   -0.103666
    85  N   -0.340954
    86  C   -0.037824
    87  C    0.005187
    88  C   -0.158243
    89  C    0.057884
    90  C    0.033623
    91  C    0.002392
    92  C   -0.149893
    93  H    0.026828
    94  N   -0.476082
    95  C    0.164639
    96  C   -0.173310
    97  C   -0.081418
    98  C    0.167386
    99  C    0.085909
   100  C    0.055587
   101  O   -0.240353
   102  C   -0.027143
   103  N   -0.273752
   104  C    0.045755
   105  C   -0.055744
   106  C   -0.126058
   107  C    0.077402
   108  C    0.014295
   109  C   -0.041878
   110  C   -0.039881
   111  N   -0.401990
   112  C    0.126945
   113  C   -0.186199
   114  C   -0.008858
   115  C    0.160809
   116  C    0.075245
   117  C    0.093863
   118  O   -0.218108
   119  C   -0.083428
   120  C    0.279631
   121  O   -0.209555
   122  O   -0.398007
   123  C    0.134899
   124  H   -0.010922
   125  H   -0.053752
   126  H    0.002652
   127  H    0.040921
   128  H    0.037045
   129  H    0.035423
   130  H    0.038129
   131  H    0.054855
   132  H    0.045317
   133  H    0.044637
   134  H    0.072946
   135  H    0.074323
   136  H    0.077705
   137  H    0.041045
   138  H    0.036924
   139  H    0.056545
   140  H    0.057170
   141  H    0.052429
   142  H    0.035519
   143  H    0.023177
   144  H    0.033249
   145  H    0.036010
   146  H    0.027126
   147  H    0.043320
   148  H    0.025250
   149  H    0.043759
   150  H    0.037815
   151  H    0.028138
   152  H    0.042821
   153  H    0.054950
   154  H    0.069747
   155  H    0.068815
   156  H    0.065899
   157  H    0.044848
   158  H    0.047213
 Sum of Mulliken charges =  -0.00000

 Dipole moment (field-independent basis, Debye):
    X=             -7.0925    Y=              1.6699    Z=             -3.0082  Tot=              7.8830
 Quadrupole moment (field-independent basis, Debye-Ang):
   XX=           -463.6795   YY=           -541.0986   ZZ=           -489.7131
   XY=             19.2273   XZ=             46.9863   YZ=             13.1919

 Normal termination of Gaussian 16 at Sat Sep 18 20:53:09 2021.
