 Gaussian 16, Revision A.03,
 Gaussian 16:  ES64L-G16RevA.03 25-Dec-2016

 --------------------------------
 #p wB97XD/Def2SVP td=(nstates=5)
 --------------------------------

 --------------------------------
 TDDFT excited states in gaussian
 --------------------------------
 Symbolic Z-matrix:
 Charge =  0 Multiplicity = 1

                         Standard orientation:
 ---------------------------------------------------------------------
 Center     Atomic      Atomic             Coordinates (Angstroms)
 Number     Number       Type             X           Y           Z
 ---------------------------------------------------------------------
      1         12           0       32.265774   -0.154272   -0.192366
      2          6           0       29.038459   -0.045528    1.185637
      3          6           0       31.594713   -3.300389   -1.285047
      4          6           0       35.111321    0.056687   -1.790725
      5          6           0       32.305059    3.405254    0.350436
      6          7           0       30.553995   -1.496601    0.008494
      7          6           0       29.340325   -1.250352    0.585730
      8          6           0       28.375162   -2.370654    0.170123
      9          6           0       29.332093   -3.531076   -0.079665
     10          6           0       30.541119   -2.712884   -0.572369
     11          6           0       29.663131   -4.325492    1.204841
     12          6           0       27.559976   -1.978611   -1.117374
     13          6           0       25.973097   -1.763221   -0.980940
     14          1           0       25.374414   -0.386285   -1.315149
     15          7           0       33.198189   -1.418419   -1.421726
     16          6           0       32.776200   -2.689340   -1.737956
     17          6           0       33.814979   -3.331318   -2.481083
     18          6           0       34.942704   -2.449990   -2.572069
     19          6           0       34.465813   -1.193492   -1.924870
     20          6           0       33.696117   -4.789421   -3.042969
     21          6           0       36.330280   -2.827542   -3.206636
     22          8           0       36.536217   -3.943716   -3.572482
     23          6           0       37.429266   -1.878318   -3.078134
     24          7           0       33.384676    1.562167   -0.931955
     25          6           0       34.674826    1.266553   -1.218511
     26          6           0       35.630880    2.410651   -0.925378
     27          6           0       34.697781    3.569274   -0.608301
     28          6           0       33.345290    2.808932   -0.380067
     29          6           0       36.615966    2.098709    0.261284
     30          6           0       34.550696    4.774009   -1.652396
     31          6           0       35.132484    6.136278   -1.385344
     32          7           0       31.086242    1.340067    0.762393
     33          6           0       31.219708    2.726998    0.906854
     34          6           0       30.067264    3.309256    1.559899
     35          6           0       29.208639    2.247782    1.707591
     36          6           0       29.823832    1.057229    1.197764
     37          6           0       29.892930    4.736394    1.875813
     38          6           0       27.892424    1.869017    2.198317
     39          8           0       27.050832    2.546594    2.801103
     40          6           0       27.774354    0.374626    1.984615
     41          6           0       27.617531   -0.267679    3.358622
     42          8           0       28.472840   -0.114452    4.227615
     43          8           0       26.368745   -0.893124    3.497541
     44          6           0       26.139510   -1.492209    4.785122
     45          1           0       31.406636   -4.357424   -1.482862
     46          1           0       36.168892   -0.018697   -2.048287
     47          1           0       32.373874    4.463810    0.610417
     48          1           0       27.632516   -2.453751    0.964038
     49          1           0       28.886441   -4.179142   -0.833291
     50          1           0       29.468685   -5.329157    0.828374
     51          1           0       28.934180   -3.979148    1.938031
     52          1           0       30.671776   -4.218666    1.604175
     53          1           0       27.673529   -2.794792   -1.830748
     54          1           0       28.051102   -1.116842   -1.568620
     55          1           0       25.757054   -1.898762    0.079074
     56          1           0       25.367379   -2.502821   -1.503218
     57          1           0       33.944929   -4.955850   -4.090603
     58          1           0       32.655040   -5.076389   -2.891410
     59          1           0       34.302160   -5.504972   -2.486982
     60          1           0       37.231552   -0.898933   -3.514352
     61          1           0       38.309690   -2.306450   -3.557286
     62          1           0       37.780201   -1.848463   -2.047516
     63          1           0       36.299331    2.622690   -1.760501
     64          1           0       34.951350    4.004532    0.358333
     65          1           0       37.601197    1.771565   -0.070536
     66          1           0       36.129048    1.431988    0.972953
     67          1           0       36.772797    3.035276    0.798324
     68          1           0       33.579682    4.930372   -2.121036
     69          1           0       35.163071    4.310054   -2.426058
     70          1           0       35.946897    6.400895   -2.058999
     71          1           0       35.531450    6.169854   -0.371251
     72          1           0       34.287531    6.815533   -1.495988
     73          1           0       30.505747    5.307470    1.177839
     74          1           0       30.314206    4.866659    2.873041
     75          1           0       28.840370    5.015368    1.893093
     76          1           0       26.841904    0.291288    1.427964
     77          1           0       26.651419   -2.442091    4.941606
     78          1           0       25.079743   -1.678001    4.957418
     79          1           0       26.425400   -0.865823    5.629677
     80         12           0      -32.079543    0.138476   -0.552987
     81          6           0      -29.567132    0.313766    2.062553
     82          6           0      -32.760490   -2.942050    0.635105
     83          6           0      -34.242312   -0.018196   -2.898338
     84          6           0      -30.916330    3.252793   -1.771527
     85          7           0      -31.210668   -1.181340    1.265443
     86          6           0      -30.297632   -0.851265    2.195105
     87          6           0      -30.239414   -1.931624    3.291922
     88          6           0      -30.954758   -3.100553    2.467045
     89          6           0      -31.726487   -2.377523    1.444683
     90          6           0      -30.128864   -4.312173    2.068493
     91          6           0      -30.978611   -1.412204    4.537195
     92          6           0      -30.479841   -2.072348    5.856313
     93          1           0      -29.147858   -2.951476    5.945014
     94          7           0      -33.406896   -1.288934   -1.070015
     95          6           0      -33.503846   -2.555413   -0.526168
     96          6           0      -34.513671   -3.291583   -1.280580
     97          6           0      -35.015466   -2.417543   -2.276304
     98          6           0      -34.200583   -1.182113   -2.100312
     99          6           0      -34.892806   -4.680411   -1.015322
    100          6           0      -36.205896   -2.636910   -3.349064
    101          8           0      -36.628217   -1.730036   -4.012861
    102          6           0      -37.052784   -3.922185   -3.358935
    103          7           0      -32.314856    1.332398   -2.269836
    104          6           0      -33.405774    1.116726   -3.000503
    105          6           0      -33.680858    2.175554   -4.034179
    106          6           0      -32.887600    3.344785   -3.401152
    107          6           0      -31.868315    2.538288   -2.524921
    108          6           0      -33.144242    1.821221   -5.498629
    109          6           0      -33.740828    4.418262   -2.603708
    110          6           0      -35.215184    4.699541   -3.015629
    111          7           0      -30.516716    1.462674   -0.087194
    112          6           0      -30.187588    2.680718   -0.583982
    113          6           0      -29.217459    3.312204    0.190088
    114          6           0      -28.934187    2.404356    1.170209
    115          6           0      -29.738283    1.292887    1.012331
    116          6           0      -28.683701    4.727085   -0.016248
    117          6           0      -28.088836    2.246400    2.363175
    118          8           0      -27.136967    2.875725    2.800135
    119          6           0      -28.566368    0.876365    3.015924
    120          6           0      -27.382725    0.065091    3.240433
    121          8           0      -26.757640   -0.586683    2.397834
    122          8           0      -26.934275    0.361040    4.478226
    123          6           0      -25.567569   -0.078594    4.694837
    124          1           0      -32.847094   -3.996420    0.906052
    125          1           0      -34.963637   -0.123671   -3.710684
    126          1           0      -30.659047    4.252179   -2.128069
    127          1           0      -29.215963   -2.254042    3.483898
    128          1           0      -31.687929   -3.530986    3.147799
    129          1           0      -30.445844   -5.214424    2.590656
    130          1           0      -29.074464   -4.135053    2.279713
    131          1           0      -30.131409   -4.519702    0.998411
    132          1           0      -32.017450   -1.731887    4.452264
    133          1           0      -30.996834   -0.325853    4.622471
    134          1           0      -31.278092   -2.616327    6.362295
    135          1           0      -30.459163   -1.219051    6.534076
    136          1           0      -34.676366   -4.969428    0.012917
    137          1           0      -34.311646   -5.271931   -1.722962
    138          1           0      -35.953773   -4.886892   -1.157782
    139          1           0      -37.660457   -4.056138   -2.464040
    140          1           0      -36.343290   -4.712488   -3.605146
    141          1           0      -37.707725   -3.926083   -4.230614
    142          1           0      -34.768686    2.239749   -4.027729
    143          1           0      -32.313573    3.916019   -4.130323
    144          1           0      -34.001698    2.091300   -6.114586
    145          1           0      -32.910002    0.766934   -5.650104
    146          1           0      -32.291529    2.404029   -5.844838
    147          1           0      -33.184942    5.354491   -2.580216
    148          1           0      -33.830396    3.920583   -1.637937
    149          1           0      -35.887859    3.999882   -2.520151
    150          1           0      -35.181632    4.657982   -4.104880
    151          1           0      -35.520178    5.719549   -2.784399
    152          1           0      -29.513848    5.266905   -0.472442
    153          1           0      -27.863899    4.777311   -0.732244
    154          1           0      -28.410460    5.133402    0.957417
    155          1           0      -29.046433    1.138047    3.959717
    156          1           0      -25.183362    0.173695    5.682775
    157          1           0      -24.853830    0.134307    3.898832
    158          1           0      -25.520556   -1.167652    4.726936
 ---------------------------------------------------------------------

 SCF Done:  E(RwB97XD) =  -4070.58826532     A.U. after   20 cycles

 Excitation energies and oscillator strengths:

 Excited State   1:      Singlet-A      1.6668 eV  743.87 nm  f=0.3603  <S**2>=0.000
     309 -> 315        0.19754
     312 -> 313        0.68094
     309 <- 315        0.12066
 This state for optimization and/or second-order correction.
 Total Energy, E(TD-HF/TD-DFT) =  -4070.52701317
 Copying the excited state density for this state as the 1-particle RhoCI density.

 Excited State   2:      Singlet-A      1.7989 eV  689.22 nm  f=0.3719  <S**2>=0.000
     310 -> 316        0.19145
     311 -> 314        0.67947
     310 <- 316        0.11149

 Excited State   3:      Singlet-A      2.1925 eV  565.49 nm  f=0.1524  <S**2>=0.000
     310 -> 314        0.65251
     311 -> 316       -0.25641

 Excited State   4:      Singlet-A      2.2261 eV  556.95 nm  f=0.0510  <S**2>=0.000
     309 -> 313        0.60362
     312 -> 315       -0.35680

 Excited State   5:      Singlet-A      3.4376 eV  360.67 nm  f=0.5263  <S**2>=0.000
     303 -> 313        0.14678
     305 -> 313        0.27361
     309 -> 313        0.28730
     312 -> 315        0.55191
     309 <- 313       -0.10584

 The electronic state is 1-A.
 Alpha  occ. eigenvalues --  -46.95676 -46.95019 -19.31277 -19.30083 -19.25578
 Alpha  occ. eigenvalues --  -19.25544 -19.24057 -19.23844 -19.23842 -19.23679
 Alpha  occ. eigenvalues --  -14.46719 -14.46667 -14.46064 -14.45646 -14.44551
 Alpha  occ. eigenvalues --  -14.43982 -14.43964 -14.43183 -10.44141 -10.42011
 Alpha  occ. eigenvalues --  -10.41011 -10.38969 -10.38782 -10.38602 -10.35408
 Alpha  occ. eigenvalues --  -10.35245 -10.35162 -10.35130 -10.34862 -10.34842
 Alpha  occ. eigenvalues --  -10.34832 -10.34684 -10.34683 -10.34559 -10.34238
 Alpha  occ. eigenvalues --  -10.33826 -10.33640 -10.33552 -10.33547 -10.33535
 Alpha  occ. eigenvalues --  -10.33270 -10.33188 -10.32696 -10.32616 -10.32480
 Alpha  occ. eigenvalues --  -10.32340 -10.32188 -10.32136 -10.32033 -10.31969
 Alpha  occ. eigenvalues --  -10.31935 -10.31934 -10.31932 -10.31908 -10.31646
 Alpha  occ. eigenvalues --  -10.31646 -10.31619 -10.31521 -10.31434 -10.31419
 Alpha  occ. eigenvalues --  -10.31292 -10.31264 -10.31204 -10.31112 -10.31036
 Alpha  occ. eigenvalues --  -10.31015 -10.30930 -10.30925 -10.30895 -10.30721
 Alpha  occ. eigenvalues --  -10.30498 -10.30353 -10.30117 -10.30113 -10.30076
 Alpha  occ. eigenvalues --  -10.29934 -10.29858 -10.29850 -10.29488 -10.29443
 Alpha  occ. eigenvalues --  -10.29415 -10.29410 -10.29349 -10.29192 -10.29024
 Alpha  occ. eigenvalues --  -10.27667  -3.21630  -3.21065  -1.95220  -1.94771
 Alpha  occ. eigenvalues --   -1.94631  -1.94580  -1.94204  -1.94033  -1.18631
 Alpha  occ. eigenvalues --   -1.18158  -1.14872  -1.14093  -1.11626  -1.11344
 Alpha  occ. eigenvalues --   -1.10454  -1.08782  -1.07785  -1.07211  -1.06772
 Alpha  occ. eigenvalues --   -1.06712  -1.06269  -1.05403  -1.04902  -1.04102
 Alpha  occ. eigenvalues --   -0.95047  -0.94275  -0.91160  -0.91003  -0.90835
 Alpha  occ. eigenvalues --   -0.90594  -0.90446  -0.89939  -0.89563  -0.89488
 Alpha  occ. eigenvalues --   -0.89041  -0.88811  -0.87468  -0.86925  -0.86493
 Alpha  occ. eigenvalues --   -0.86279  -0.86134  -0.84983  -0.84454  -0.84435
 Alpha  occ. eigenvalues --   -0.84245  -0.83872  -0.82998  -0.82817  -0.82647
 Alpha  occ. eigenvalues --   -0.82048  -0.80612  -0.79939  -0.79166  -0.78716
 Alpha  occ. eigenvalues --   -0.78513  -0.78330  -0.78210  -0.77622  -0.77181
 Alpha  occ. eigenvalues --   -0.77034  -0.74868  -0.74695  -0.74101  -0.73616
 Alpha  occ. eigenvalues --   -0.71579  -0.70943  -0.70695  -0.70588  -0.70093
 Alpha  occ. eigenvalues --   -0.69556  -0.68800  -0.68745  -0.67781  -0.67553
 Alpha  occ. eigenvalues --   -0.67378  -0.67029  -0.66855  -0.66595  -0.66463
 Alpha  occ. eigenvalues --   -0.65644  -0.64716  -0.63759  -0.62858  -0.62199
 Alpha  occ. eigenvalues --   -0.62042  -0.61460  -0.61209  -0.61096  -0.60870
 Alpha  occ. eigenvalues --   -0.60475  -0.60354  -0.59837  -0.59698  -0.59456
 Alpha  occ. eigenvalues --   -0.58571  -0.58209  -0.58054  -0.57382  -0.57240
 Alpha  occ. eigenvalues --   -0.57128  -0.56880  -0.56506  -0.55967  -0.55910
 Alpha  occ. eigenvalues --   -0.55750  -0.55529  -0.55470  -0.55095  -0.54933
 Alpha  occ. eigenvalues --   -0.54930  -0.54838  -0.54707  -0.54607  -0.54164
 Alpha  occ. eigenvalues --   -0.54117  -0.53718  -0.53657  -0.53195  -0.53049
 Alpha  occ. eigenvalues --   -0.52944  -0.52804  -0.52619  -0.52392  -0.52375
 Alpha  occ. eigenvalues --   -0.52083  -0.51918  -0.51726  -0.51629  -0.51570
 Alpha  occ. eigenvalues --   -0.51245  -0.51045  -0.51031  -0.50866  -0.50681
 Alpha  occ. eigenvalues --   -0.50601  -0.50506  -0.50259  -0.50252  -0.50008
 Alpha  occ. eigenvalues --   -0.49779  -0.49429  -0.49403  -0.49299  -0.49023
 Alpha  occ. eigenvalues --   -0.48916  -0.48649  -0.48509  -0.48299  -0.48200
 Alpha  occ. eigenvalues --   -0.48143  -0.48030  -0.47887  -0.47661  -0.47365
 Alpha  occ. eigenvalues --   -0.47335  -0.47273  -0.46798  -0.46537  -0.46424
 Alpha  occ. eigenvalues --   -0.46377  -0.46234  -0.46206  -0.46087  -0.45974
 Alpha  occ. eigenvalues --   -0.45834  -0.45785  -0.45730  -0.45520  -0.45255
 Alpha  occ. eigenvalues --   -0.45240  -0.45167  -0.45022  -0.44881  -0.44571
 Alpha  occ. eigenvalues --   -0.44528  -0.44371  -0.44361  -0.44201  -0.44079
 Alpha  occ. eigenvalues --   -0.43970  -0.43878  -0.43640  -0.43516  -0.43330
 Alpha  occ. eigenvalues --   -0.43205  -0.42990  -0.42751  -0.42594  -0.42280
 Alpha  occ. eigenvalues --   -0.42272  -0.41944  -0.41613  -0.41211  -0.40887
 Alpha  occ. eigenvalues --   -0.40582  -0.40148  -0.39991  -0.39931  -0.39460
 Alpha  occ. eigenvalues --   -0.39396  -0.39158  -0.38641  -0.38611  -0.38577
 Alpha  occ. eigenvalues --   -0.37889  -0.37629  -0.36821  -0.36708  -0.36130
 Alpha  occ. eigenvalues --   -0.35729  -0.35647  -0.34675  -0.33946  -0.33730
 Alpha  occ. eigenvalues --   -0.33542  -0.33187  -0.32937  -0.32821  -0.32315
 Alpha  occ. eigenvalues --   -0.32294  -0.31810  -0.31574  -0.26312  -0.25291
 Alpha  occ. eigenvalues --   -0.23199  -0.22793
 Alpha virt. eigenvalues --   -0.06646  -0.06577  -0.00322   0.00850   0.02600
 Alpha virt. eigenvalues --    0.02629   0.04613   0.04778   0.05201   0.05583
 Alpha virt. eigenvalues --    0.06375   0.06775   0.07487   0.07927   0.08511

 Mulliken charges:
               1
     1  Mg   0.956922
     2  C   -0.054703
     3  C   -0.098027
     4  C   -0.053028
     5  C   -0.094286
     6  N   -0.331826
     7  C   -0.023705
     8  C   -0.114917
     9  C   -0.115713
    10  C    0.039111
    11  C    0.060834
    12  C    0.025443
    13  C   -0.134581
    14  H    0.044852
    15  N   -0.518722
    16  C    0.210402
    17  C   -0.172921
    18  C   -0.106201
    19  C    0.151586
    20  C    0.083432
    21  C    0.062089
    22  O   -0.196900
    23  C   -0.021491
    24  N   -0.326784
    25  C    0.062301
    26  C   -0.102052
    27  C   -0.070061
    28  C    0.069802
    29  C    0.021099
    30  C   -0.022406
    31  C   -0.034778
    32  N   -0.429023
    33  C    0.127731
    34  C   -0.206715
    35  C   -0.016780
    36  C    0.192875
    37  C    0.097430
    38  C    0.099202
    39  O   -0.220836
    40  C   -0.022151
    41  C    0.288798
    42  O   -0.244382
    43  O   -0.362513
    44  C    0.139815
    45  H    0.001606
    46  H   -0.029259
    47  H   -0.001570
    48  H    0.017280
    49  H    0.023679
    50  H    0.042910
    51  H    0.038785
    52  H    0.055121
    53  H    0.032692
    54  H    0.055654
    55  H    0.047937
    56  H    0.058774
    57  H    0.056023
    58  H    0.011834
    59  H    0.051534
    60  H    0.070926
    61  H    0.042008
    62  H    0.069556
    63  H    0.033430
    64  H    0.024327
    65  H    0.046115
    66  H    0.041574
    67  H    0.029647
    68  H    0.043980
    69  H    0.016338
    70  H    0.044037
    71  H    0.026338
    72  H    0.041579
    73  H    0.036671
    74  H    0.058309
    75  H    0.066058
    76  H    0.061078
    77  H    0.042314
    78  H    0.050453
    79  H    0.054041
    80  Mg   0.963027
    81  C   -0.002453
    82  C   -0.069590
    83  C   -0.087049
    84  C   -0.078662
    85  N   -0.252404
    86  C   -0.062682
    87  C   -0.061938
    88  C   -0.088880
    89  C    0.000161
    90  C    0.039643
    91  C    0.010096
    92  C   -0.092271
    93  H    0.048523
    94  N   -0.472863
    95  C    0.161383
    96  C   -0.161800
    97  C   -0.088147
    98  C    0.122144
    99  C    0.059521
   100  C    0.076614
   101  O   -0.197403
   102  C   -0.024238
   103  N   -0.321512
   104  C    0.064992
   105  C   -0.102335
   106  C   -0.113797
   107  C    0.058417
   108  C    0.030246
   109  C   -0.010576
   110  C   -0.052933
   111  N   -0.409831
   112  C    0.090301
   113  C   -0.219055
   114  C   -0.051484
   115  C    0.154723
   116  C    0.095862
   117  C    0.138593
   118  O   -0.197770
   119  C   -0.093101
   120  C    0.252674
   121  O   -0.272140
   122  O   -0.331249
   123  C    0.153344
   124  H   -0.010543
   125  H    0.011920
   126  H    0.003392
   127  H    0.040485
   128  H    0.017718
   129  H    0.039843
   130  H    0.042833
   131  H    0.036623
   132  H    0.031787
   133  H    0.048030
   134  H    0.038514
   135  H    0.037342
   136  H    0.044151
   137  H    0.065927
   138  H    0.040891
   139  H    0.086415
   140  H    0.045236
   141  H    0.050813
   142  H    0.043765
   143  H    0.017534
   144  H    0.041933
   145  H    0.045904
   146  H    0.042525
   147  H    0.037405
   148  H    0.027788
   149  H    0.050445
   150  H    0.034815
   151  H    0.039878
   152  H    0.025420
   153  H    0.053061
   154  H    0.055815
   155  H    0.073342
   156  H    0.049841
   157  H    0.060893
   158  H    0.024152
 Sum of Mulliken charges =  -0.00000

 Dipole moment (field-independent basis, Debye):
    X=             -2.8508    Y=             -3.5922    Z=              0.5396  Tot=              4.6176
 Quadrupole moment (field-independent basis, Debye-Ang):
   XX=            -57.5018   YY=           -473.1939   ZZ=           -514.0252
   XY=            162.3951   XZ=            -13.0953   YZ=            -34.3839

 Normal termination of Gaussian 16 at Mon Sep 20 17:53:38 2021.
