 Gaussian 16, Revision A.03,
 Gaussian 16:  ES64L-G16RevA.03 25-Dec-2016

 --------------------------------
 #p wB97XD/Def2SVP td=(nstates=5)
 --------------------------------

 --------------------------------
 TDDFT excited states in gaussian
 --------------------------------
 Symbolic Z-matrix:
 Charge =  0 Multiplicity = 1

                         Standard orientation:
 ---------------------------------------------------------------------
 Center     Atomic      Atomic             Coordinates (Angstroms)
 Number     Number       Type             X           Y           Z
 ---------------------------------------------------------------------
      1         12           0        8.953123    0.370654   -0.082268
      2          6           0        6.989742   -2.430418    1.040825
      3          6           0       10.704240   -1.839966   -2.005961
      4          6           0       10.966119    2.930312   -0.886918
      5          6           0        7.395850    2.277056    2.261168
      6          7           0        8.794649   -1.969891   -0.475195
      7          6           0        7.880116   -2.812234    0.087407
      8          6           0        8.014682   -4.121099   -0.593844
      9          6           0        9.288838   -3.996152   -1.474347
     10          6           0        9.718922   -2.511570   -1.320987
     11          6           0       10.424920   -4.954141   -0.993691
     12          6           0        6.806289   -4.589563   -1.365260
     13          6           0        6.770010   -6.014550   -1.893499
     14          1           0        5.557932   -6.797825   -1.608409
     15          7           0       10.513140    0.541880   -1.348506
     16          6           0       11.176912   -0.533814   -2.000483
     17          6           0       12.197831    0.073069   -2.875145
     18          6           0       12.306766    1.400842   -2.470110
     19          6           0       11.260482    1.664497   -1.465655
     20          6           0       13.016279   -0.771223   -3.829509
     21          6           0       13.247815    2.512639   -2.982222
     22          8           0       13.421841    3.601414   -2.403425
     23          6           0       13.950741    2.257039   -4.252619
     24          7           0        9.219849    2.347930    0.630859
     25          6           0       10.073627    3.240461    0.173081
     26          6           0        9.992906    4.606493    0.908273
     27          6           0        8.699189    4.422715    1.704654
     28          6           0        8.393600    2.957918    1.490867
     29          6           0       11.242781    4.843840    1.821426
     30          6           0        7.534464    5.311915    1.331667
     31          6           0        6.726978    5.915674    2.494447
     32          7           0        7.445323    0.023920    1.274930
     33          6           0        6.911100    0.931282    2.163505
     34          6           0        5.791629    0.328802    2.948401
     35          6           0        5.872790   -0.973858    2.499216
     36          6           0        6.888818   -1.141719    1.550636
     37          6           0        4.794619    1.012196    3.828141
     38          6           0        5.250284   -2.277274    2.678282
     39          8           0        4.291751   -2.556876    3.389438
     40          6           0        5.939013   -3.294730    1.740047
     41          6           0        6.293020   -4.428613    2.555224
     42          8           0        7.247940   -4.506560    3.365271
     43          8           0        5.539535   -5.509668    2.211646
     44          6           0        5.921530   -6.810882    2.715256
     45          1           0       11.217485   -2.518135   -2.690509
     46          1           0       11.714277    3.714365   -1.019833
     47          1           0        7.132414    2.895244    3.121702
     48          1           0        8.208614   -4.801987    0.233904
     49          1           0        9.095562   -4.230674   -2.521269
     50          1           0       10.955800   -5.638185   -1.656525
     51          1           0        9.943091   -5.576251   -0.239588
     52          1           0       11.203067   -4.483126   -0.392482
     53          1           0        6.679319   -4.017545   -2.284531
     54          1           0        5.875245   -4.278134   -0.892499
     55          1           0        7.592541   -6.598122   -1.482714
     56          1           0        6.674281   -5.914296   -2.974338
     57          1           0       14.086282   -0.565983   -3.804272
     58          1           0       12.700049   -0.697633   -4.869835
     59          1           0       13.007946   -1.840853   -3.618486
     60          1           0       13.216558    1.942903   -4.994640
     61          1           0       14.608403    1.429509   -3.988869
     62          1           0       14.341343    3.218265   -4.584613
     63          1           0        9.898890    5.363110    0.128554
     64          1           0        8.783055    4.526363    2.786093
     65          1           0       10.976904    4.826357    2.877944
     66          1           0       11.676332    5.829248    1.650737
     67          1           0       11.921638    4.020802    1.597607
     68          1           0        6.836720    4.806580    0.664674
     69          1           0        7.954361    5.995501    0.594478
     70          1           0        6.306506    6.852015    2.128902
     71          1           0        7.296196    5.981042    3.422224
     72          1           0        5.973033    5.143385    2.645421
     73          1           0        3.829103    1.192961    3.355328
     74          1           0        5.317496    1.878826    4.231676
     75          1           0        4.692761    0.448458    4.756294
     76          1           0        5.131459   -3.668099    1.110387
     77          1           0        6.870107   -6.830185    3.252507
     78          1           0        5.883782   -7.556371    1.921420
     79          1           0        5.195887   -7.201586    3.429105
     80         12           0       -8.279796    0.985670   -0.370538
     81          6           0      -10.558287   -1.586389   -0.545463
     82          6           0       -5.726740   -1.410148   -0.393873
     83          6           0       -5.980102    3.442387   -0.105327
     84          6           0      -10.801682    3.222033    0.024464
     85          7           0       -8.199900   -1.287289   -0.193821
     86          6           0       -9.289421   -2.100680   -0.529379
     87          6           0       -8.854795   -3.540494   -0.867385
     88          6           0       -7.296474   -3.422994   -0.687162
     89          6           0       -6.999428   -1.957155   -0.454642
     90          6           0       -6.755622   -4.306804    0.429665
     91          6           0       -9.246051   -4.162504   -2.254499
     92          6           0      -10.299345   -5.398652   -2.240677
     93          1           0       -9.687325   -6.656066   -2.865848
     94          7           0       -6.200337    1.025202   -0.162633
     95          6           0       -5.329063   -0.063313   -0.329842
     96          6           0       -3.937263    0.381397   -0.456753
     97          6           0       -3.937544    1.870517   -0.292533
     98          6           0       -5.414721    2.213504   -0.240089
     99          6           0       -2.780003   -0.570823   -0.663127
    100          6           0       -2.849133    2.835946   -0.243523
    101          8           0       -3.093524    4.026464    0.001865
    102          6           0       -1.390247    2.449478   -0.412658
    103          7           0       -8.410924    2.953700   -0.007566
    104          6           0       -7.324268    3.845825   -0.066580
    105          6           0       -7.714547    5.378599   -0.030073
    106          6           0       -9.320942    5.228857    0.044756
    107          6           0       -9.520385    3.696989   -0.000519
    108          6           0       -7.088722    6.198340    1.203464
    109          6           0      -10.029122    5.981306   -1.133874
    110          6           0      -11.319978    6.681323   -0.844686
    111          7           0      -10.310009    0.818021   -0.174385
    112          6           0      -11.242006    1.854522   -0.069612
    113          6           0      -12.570153    1.358849   -0.193493
    114          6           0      -12.337669   -0.035566   -0.487689
    115          6           0      -10.962744   -0.279446   -0.378751
    116          6           0      -13.869664    2.048154   -0.181506
    117          6           0      -13.002147   -1.287162   -0.675493
    118          8           0      -14.179234   -1.642281   -0.801821
    119          6           0      -11.843351   -2.379619   -0.572027
    120          6           0      -12.097963   -3.235217    0.617110
    121          8           0      -11.612932   -3.172132    1.677709
    122          8           0      -12.956773   -4.279661    0.282715
    123          6           0      -12.834424   -5.462493    1.109199
    124          1           0       -4.936069   -2.157074   -0.491125
    125          1           0       -5.343073    4.328929   -0.081630
    126          1           0      -11.614045    3.951307   -0.000099
    127          1           0       -9.231037   -4.206680   -0.091770
    128          1           0       -6.759843   -3.797184   -1.559448
    129          1           0       -6.365352   -3.668737    1.222096
    130          1           0       -5.940129   -4.836553   -0.061233
    131          1           0       -7.440892   -5.063530    0.811010
    132          1           0       -8.328942   -4.499045   -2.738624
    133          1           0       -9.725748   -3.424523   -2.897594
    134          1           0      -11.077770   -5.039925   -2.914312
    135          1           0      -10.637391   -5.599141   -1.224245
    136          1           0       -2.621905   -1.078053    0.289426
    137          1           0       -1.901591    0.019602   -0.919112
    138          1           0       -2.999735   -1.376534   -1.363921
    139          1           0       -0.820125    3.286932   -0.009976
    140          1           0       -1.109130    2.229912   -1.443171
    141          1           0       -1.006648    1.652918    0.224566
    142          1           0       -7.496072    5.837653   -0.993705
    143          1           0       -9.782651    5.666680    0.930056
    144          1           0       -7.840965    6.899173    1.566094
    145          1           0       -6.265586    6.874407    0.975426
    146          1           0       -6.757202    5.554978    2.018741
    147          1           0      -10.183863    5.367303   -2.020941
    148          1           0       -9.442562    6.822161   -1.503526
    149          1           0      -12.067010    6.116275   -1.401920
    150          1           0      -11.516111    7.672111   -1.254542
    151          1           0      -11.528818    6.642161    0.224904
    152          1           0      -13.717609    3.071880   -0.524611
    153          1           0      -14.148383    2.064939    0.872054
    154          1           0      -14.601121    1.420630   -0.691062
    155          1           0      -11.843610   -3.009238   -1.461439
    156          1           0      -13.349159   -5.190129    2.029964
    157          1           0      -11.766705   -5.581185    1.292870
    158          1           0      -13.324935   -6.323179    0.653634
 ---------------------------------------------------------------------

 SCF Done:  E(RwB97XD) =  -4070.60466998     A.U. after   19 cycles

 Excitation energies and oscillator strengths:

 Excited State   1:      Singlet-A      1.6214 eV  764.67 nm  f=0.5234  <S**2>=0.000
     309 -> 315        0.15975
     311 -> 313        0.67826
     312 -> 314        0.10435
     309 <- 315        0.10419
 This state for optimization and/or second-order correction.
 Total Energy, E(TD-HF/TD-DFT) =  -4070.54508440
 Copying the excited state density for this state as the 1-particle RhoCI density.

 Excited State   2:      Singlet-A      1.6947 eV  731.61 nm  f=0.2933  <S**2>=0.000
     310 -> 316        0.20236
     311 -> 313       -0.10389
     312 -> 314        0.67132
     310 <- 316        0.12116

 Excited State   3:      Singlet-A      2.1355 eV  580.59 nm  f=0.1158  <S**2>=0.000
     309 -> 313        0.64266
     311 -> 315       -0.25990

 Excited State   4:      Singlet-A      2.2628 eV  547.94 nm  f=0.0695  <S**2>=0.000
     310 -> 314        0.61603
     312 -> 316       -0.33963

 Excited State   5:      Singlet-A      3.2920 eV  376.62 nm  f=0.0000  <S**2>=0.000
     312 -> 313        0.70608

 The electronic state is 1-A.
 Alpha  occ. eigenvalues --  -46.95050 -46.94228 -19.30643 -19.27303 -19.24363
 Alpha  occ. eigenvalues --  -19.24253 -19.24050 -19.23919 -19.23873 -19.22886
 Alpha  occ. eigenvalues --  -14.47109 -14.46668 -14.46531 -14.45920 -14.44867
 Alpha  occ. eigenvalues --  -14.44592 -14.44404 -14.43061 -10.43227 -10.41815
 Alpha  occ. eigenvalues --  -10.39398 -10.39272 -10.38726 -10.38110 -10.35861
 Alpha  occ. eigenvalues --  -10.35274 -10.35181 -10.35097 -10.35077 -10.35010
 Alpha  occ. eigenvalues --  -10.34790 -10.34783 -10.34774 -10.34667 -10.34662
 Alpha  occ. eigenvalues --  -10.34656 -10.34637 -10.34297 -10.34264 -10.34144
 Alpha  occ. eigenvalues --  -10.33458 -10.33398 -10.33269 -10.33160 -10.32801
 Alpha  occ. eigenvalues --  -10.32661 -10.32589 -10.32388 -10.32349 -10.32265
 Alpha  occ. eigenvalues --  -10.32251 -10.32227 -10.32198 -10.31938 -10.31721
 Alpha  occ. eigenvalues --  -10.31706 -10.31676 -10.31631 -10.31557 -10.31530
 Alpha  occ. eigenvalues --  -10.31486 -10.31358 -10.31285 -10.31271 -10.31222
 Alpha  occ. eigenvalues --  -10.31169 -10.31098 -10.30509 -10.30491 -10.30420
 Alpha  occ. eigenvalues --  -10.30317 -10.30310 -10.30285 -10.30122 -10.30060
 Alpha  occ. eigenvalues --  -10.30041 -10.29985 -10.29985 -10.29890 -10.29801
 Alpha  occ. eigenvalues --  -10.29761 -10.29736 -10.29621 -10.29101 -10.28862
 Alpha  occ. eigenvalues --  -10.28398  -3.21087  -3.20396  -1.94687  -1.94204
 Alpha  occ. eigenvalues --   -1.94068  -1.93960  -1.93534  -1.93391  -1.18802
 Alpha  occ. eigenvalues --   -1.18544  -1.11964  -1.11751  -1.11453  -1.10224
 Alpha  occ. eigenvalues --   -1.09825  -1.08385  -1.07961  -1.06828  -1.06542
 Alpha  occ. eigenvalues --   -1.05372  -1.05301  -1.04441  -1.03982  -1.02626
 Alpha  occ. eigenvalues --   -0.95386  -0.94456  -0.92113  -0.91422  -0.91035
 Alpha  occ. eigenvalues --   -0.90618  -0.90427  -0.90307  -0.89742  -0.89197
 Alpha  occ. eigenvalues --   -0.89196  -0.89051  -0.88789  -0.88569  -0.86847
 Alpha  occ. eigenvalues --   -0.86141  -0.86071  -0.85293  -0.85012  -0.84713
 Alpha  occ. eigenvalues --   -0.84264  -0.83751  -0.83407  -0.83069  -0.82718
 Alpha  occ. eigenvalues --   -0.82106  -0.80828  -0.80677  -0.79834  -0.79592
 Alpha  occ. eigenvalues --   -0.79253  -0.78681  -0.78527  -0.77378  -0.77121
 Alpha  occ. eigenvalues --   -0.77084  -0.75197  -0.74977  -0.74128  -0.73596
 Alpha  occ. eigenvalues --   -0.71610  -0.71440  -0.71263  -0.70543  -0.70270
 Alpha  occ. eigenvalues --   -0.69817  -0.69475  -0.68731  -0.68503  -0.67586
 Alpha  occ. eigenvalues --   -0.67532  -0.67326  -0.67161  -0.66920  -0.66773
 Alpha  occ. eigenvalues --   -0.65817  -0.64757  -0.62763  -0.62577  -0.62136
 Alpha  occ. eigenvalues --   -0.62111  -0.61706  -0.61262  -0.60955  -0.60920
 Alpha  occ. eigenvalues --   -0.60597  -0.60353  -0.60171  -0.59838  -0.59575
 Alpha  occ. eigenvalues --   -0.58668  -0.58421  -0.57921  -0.57726  -0.57415
 Alpha  occ. eigenvalues --   -0.57165  -0.56596  -0.56174  -0.56008  -0.55784
 Alpha  occ. eigenvalues --   -0.55594  -0.55490  -0.55318  -0.55160  -0.55100
 Alpha  occ. eigenvalues --   -0.54849  -0.54514  -0.54165  -0.54115  -0.54006
 Alpha  occ. eigenvalues --   -0.53963  -0.53863  -0.53445  -0.53345  -0.53198
 Alpha  occ. eigenvalues --   -0.53023  -0.52911  -0.52631  -0.52594  -0.52401
 Alpha  occ. eigenvalues --   -0.52399  -0.52083  -0.52016  -0.51878  -0.51806
 Alpha  occ. eigenvalues --   -0.51605  -0.51494  -0.51197  -0.50842  -0.50814
 Alpha  occ. eigenvalues --   -0.50525  -0.50483  -0.50445  -0.50382  -0.50062
 Alpha  occ. eigenvalues --   -0.49952  -0.49920  -0.49866  -0.49478  -0.49377
 Alpha  occ. eigenvalues --   -0.49175  -0.49154  -0.48864  -0.48689  -0.48648
 Alpha  occ. eigenvalues --   -0.48376  -0.48304  -0.48174  -0.47981  -0.47831
 Alpha  occ. eigenvalues --   -0.47707  -0.47307  -0.47247  -0.47201  -0.47133
 Alpha  occ. eigenvalues --   -0.46806  -0.46667  -0.46545  -0.46077  -0.46067
 Alpha  occ. eigenvalues --   -0.45996  -0.45810  -0.45541  -0.45525  -0.45406
 Alpha  occ. eigenvalues --   -0.45257  -0.45205  -0.44916  -0.44777  -0.44689
 Alpha  occ. eigenvalues --   -0.44544  -0.44460  -0.44193  -0.43896  -0.43896
 Alpha  occ. eigenvalues --   -0.43864  -0.43685  -0.43547  -0.43401  -0.43243
 Alpha  occ. eigenvalues --   -0.43192  -0.43007  -0.42940  -0.42836  -0.42509
 Alpha  occ. eigenvalues --   -0.42261  -0.41992  -0.41977  -0.41742  -0.40938
 Alpha  occ. eigenvalues --   -0.40889  -0.40535  -0.40046  -0.39723  -0.39529
 Alpha  occ. eigenvalues --   -0.39428  -0.39162  -0.38272  -0.38093  -0.37964
 Alpha  occ. eigenvalues --   -0.37901  -0.36795  -0.36356  -0.36097  -0.35973
 Alpha  occ. eigenvalues --   -0.35710  -0.35379  -0.35313  -0.33981  -0.33587
 Alpha  occ. eigenvalues --   -0.33436  -0.33168  -0.32967  -0.32771  -0.32650
 Alpha  occ. eigenvalues --   -0.32115  -0.31757  -0.31295  -0.26228  -0.26211
 Alpha  occ. eigenvalues --   -0.23193  -0.22929
 Alpha virt. eigenvalues --   -0.07554  -0.06716  -0.00156  -0.00103   0.01877
 Alpha virt. eigenvalues --    0.02578   0.04385   0.04409   0.05314   0.05895
 Alpha virt. eigenvalues --    0.06452   0.07626   0.07922   0.07973   0.08643

 Mulliken charges:
               1
     1  Mg   0.974208
     2  C    0.002528
     3  C   -0.074202
     4  C   -0.058740
     5  C   -0.108610
     6  N   -0.330633
     7  C   -0.063690
     8  C    0.015869
     9  C   -0.121962
    10  C    0.063989
    11  C    0.011106
    12  C    0.012143
    13  C   -0.119667
    14  H    0.034482
    15  N   -0.516011
    16  C    0.190331
    17  C   -0.128745
    18  C   -0.091519
    19  C    0.167441
    20  C    0.036422
    21  C    0.055370
    22  O   -0.254388
    23  C    0.008735
    24  N   -0.326287
    25  C   -0.014129
    26  C   -0.060079
    27  C   -0.104726
    28  C    0.037417
    29  C    0.034126
    30  C    0.005040
    31  C   -0.035070
    32  N   -0.421023
    33  C    0.132786
    34  C   -0.209610
    35  C   -0.009548
    36  C    0.152775
    37  C    0.108914
    38  C    0.072574
    39  O   -0.210025
    40  C   -0.031801
    41  C    0.264812
    42  O   -0.283049
    43  O   -0.351945
    44  C    0.134648
    45  H   -0.012164
    46  H    0.031057
    47  H    0.004091
    48  H    0.034166
    49  H    0.037455
    50  H    0.041322
    51  H    0.017765
    52  H    0.036290
    53  H    0.013799
    54  H    0.024651
    55  H    0.057192
    56  H    0.056624
    57  H    0.040777
    58  H    0.054174
    59  H    0.039154
    60  H    0.053102
    61  H    0.060578
    62  H    0.062280
    63  H    0.044003
    64  H    0.028478
    65  H    0.033911
    66  H    0.048417
    67  H    0.054514
    68  H    0.022585
    69  H    0.009122
    70  H    0.052828
    71  H    0.038847
    72  H    0.040829
    73  H    0.075730
    74  H    0.018083
    75  H    0.049986
    76  H    0.079305
    77  H    0.067367
    78  H    0.047253
    79  H    0.046173
    80  Mg   0.967108
    81  C    0.011729
    82  C   -0.102868
    83  C   -0.069974
    84  C   -0.098642
    85  N   -0.364101
    86  C   -0.034291
    87  C   -0.002616
    88  C   -0.138215
    89  C    0.092991
    90  C    0.019291
    91  C   -0.009114
    92  C   -0.148353
    93  H    0.036111
    94  N   -0.481827
    95  C    0.200882
    96  C   -0.179655
    97  C   -0.027859
    98  C    0.193789
    99  C    0.079717
   100  C    0.021731
   101  O   -0.253439
   102  C   -0.034588
   103  N   -0.410753
   104  C    0.038881
   105  C   -0.045401
   106  C   -0.088356
   107  C    0.134134
   108  C   -0.000812
   109  C   -0.040713
   110  C   -0.058017
   111  N   -0.418600
   112  C    0.119478
   113  C   -0.179294
   114  C   -0.042668
   115  C    0.138602
   116  C    0.103191
   117  C    0.092842
   118  O   -0.218000
   119  C   -0.114311
   120  C    0.257069
   121  O   -0.187296
   122  O   -0.389731
   123  C    0.148274
   124  H   -0.009932
   125  H    0.025610
   126  H   -0.022164
   127  H    0.032366
   128  H    0.032298
   129  H    0.050936
   130  H    0.027480
   131  H    0.046166
   132  H    0.042711
   133  H    0.040435
   134  H    0.074042
   135  H    0.060520
   136  H    0.061090
   137  H    0.036691
   138  H    0.053674
   139  H    0.049799
   140  H    0.072552
   141  H    0.055585
   142  H    0.051688
   143  H    0.039551
   144  H    0.033822
   145  H    0.045690
   146  H    0.057609
   147  H    0.033580
   148  H    0.029384
   149  H    0.026169
   150  H    0.038577
   151  H    0.035152
   152  H    0.041249
   153  H    0.054288
   154  H    0.066968
   155  H    0.052070
   156  H    0.050838
   157  H    0.037200
   158  H    0.059978
 Sum of Mulliken charges =  -0.00000

 Dipole moment (field-independent basis, Debye):
    X=              6.8067    Y=              0.4078    Z=             -6.8244  Tot=              9.6472
 Quadrupole moment (field-independent basis, Debye-Ang):
   XX=           -598.9452   YY=           -458.4737   ZZ=           -511.1099
   XY=            -48.9535   XZ=            -22.4959   YZ=             24.9507

 Normal termination of Gaussian 16 at Mon Sep 20 04:27:32 2021.
