 Gaussian 16, Revision A.03,
 Gaussian 16:  ES64L-G16RevA.03 25-Dec-2016

 --------------------------------
 #p wB97XD/Def2SVP td=(nstates=5)
 --------------------------------

 --------------------------------
 TDDFT excited states in gaussian
 --------------------------------
 Symbolic Z-matrix:
 Charge =  0 Multiplicity = 1

                         Standard orientation:
 ---------------------------------------------------------------------
 Center     Atomic      Atomic             Coordinates (Angstroms)
 Number     Number       Type             X           Y           Z
 ---------------------------------------------------------------------
      1         12           0       -4.373841   -0.551241    0.847143
      2          6           0       -5.615805    2.179156   -0.852391
      3          6           0       -2.240687    1.753186    2.569689
      4          6           0       -2.870696   -3.066399    2.285094
      5          6           0       -6.246053   -2.689954   -1.124134
      6          7           0       -3.851837    1.742365    0.670054
      7          6           0       -4.656495    2.608406    0.077266
      8          6           0       -4.440720    4.042818    0.637175
      9          6           0       -3.012422    3.871905    1.263035
     10          6           0       -2.976222    2.361789    1.547390
     11          6           0       -1.871526    4.323463    0.283400
     12          6           0       -5.563730    4.271337    1.673243
     13          6           0       -5.665503    5.679963    2.273946
     14          1           0       -4.557550    6.688318    2.044891
     15          7           0       -2.885727   -0.729012    2.287919
     16          6           0       -2.163472    0.358680    2.888931
     17          6           0       -1.384090   -0.228640    3.970167
     18          6           0       -1.653143   -1.633016    3.960731
     19          6           0       -2.482628   -1.891543    2.784658
     20          6           0       -0.479897    0.584353    4.969997
     21          6           0       -1.182334   -2.690490    5.013174
     22          8           0       -1.399551   -3.848882    4.784772
     23          6           0       -0.449798   -2.264447    6.243878
     24          7           0       -4.606739   -2.613330    0.672843
     25          6           0       -3.863149   -3.489448    1.385405
     26          6           0       -4.141556   -4.948701    1.026847
     27          6           0       -5.320919   -4.813378    0.035973
     28          6           0       -5.400238   -3.244490   -0.157235
     29          6           0       -2.924954   -5.747498    0.430393
     30          6           0       -6.604012   -5.523996    0.383899
     31          6           0       -7.219378   -5.425714    1.800668
     32          7           0       -5.667576   -0.391263   -0.693219
     33          6           0       -6.369108   -1.325036   -1.400759
     34          6           0       -7.259727   -0.607001   -2.287931
     35          6           0       -7.051532    0.804723   -2.115844
     36          6           0       -6.038413    0.859226   -1.119789
     37          6           0       -8.219140   -1.268990   -3.227043
     38          6           0       -7.382583    2.117868   -2.557158
     39          8           0       -8.162701    2.550187   -3.433425
     40          6           0       -6.213931    3.033197   -1.896469
     41          6           0       -6.871518    4.356830   -1.502554
     42          8           0       -7.827423    4.471553   -0.835209
     43          8           0       -6.174476    5.366816   -2.102289
     44          6           0       -6.367792    6.714139   -1.606927
     45          1           0       -1.548493    2.452961    3.041628
     46          1           0       -2.367340   -3.943586    2.696998
     47          1           0       -6.849341   -3.309498   -1.789838
     48          1           0       -4.380863    4.790141   -0.153907
     49          1           0       -3.067725    4.459088    2.180008
     50          1           0       -1.482773    5.289526    0.603051
     51          1           0       -2.294882    4.371949   -0.720038
     52          1           0       -1.004990    3.662215    0.290477
     53          1           0       -5.355775    3.621620    2.522980
     54          1           0       -6.527814    3.906893    1.319853
     55          1           0       -6.047221    5.684222    3.295158
     56          1           0       -6.554935    6.103224    1.806812
     57          1           0        0.525514    0.170131    5.050922
     58          1           0       -1.022749    0.589250    5.915053
     59          1           0       -0.451915    1.631167    4.665112
     60          1           0       -0.722126   -3.051608    6.947306
     61          1           0       -0.852141   -1.349601    6.677434
     62          1           0        0.589897   -1.942201    6.187161
     63          1           0       -4.452398   -5.412242    1.962853
     64          1           0       -5.063947   -5.125158   -0.976355
     65          1           0       -3.356040   -6.427778   -0.303621
     66          1           0       -2.551348   -6.282724    1.303597
     67          1           0       -2.150654   -5.061971    0.086133
     68          1           0       -6.248802   -6.553886    0.395179
     69          1           0       -7.446946   -5.408554   -0.298273
     70          1           0       -7.321255   -6.340331    2.383286
     71          1           0       -8.267237   -5.128615    1.758596
     72          1           0       -6.619116   -4.744903    2.404403
     73          1           0       -8.686408   -0.458210   -3.785241
     74          1           0       -9.012040   -1.762554   -2.663477
     75          1           0       -7.798604   -2.067615   -3.837437
     76          1           0       -5.454465    3.116028   -2.674208
     77          1           0       -6.598667    7.075829   -2.609016
     78          1           0       -5.509991    7.110513   -1.063219
     79          1           0       -7.252728    6.842647   -0.983106
     80         12           0        4.256382   -0.910171   -0.950575
     81          6           0        6.624391    1.779763   -0.179738
     82          6           0        1.834606    1.601365   -1.271708
     83          6           0        2.018870   -3.256122   -1.293558
     84          6           0        6.824328   -3.175843   -0.765348
     85          7           0        4.186705    1.365372   -0.549757
     86          6           0        5.294256    2.295607   -0.368384
     87          6           0        4.858085    3.773874   -0.280637
     88          6           0        3.240525    3.580978   -0.444315
     89          6           0        3.022179    2.089404   -0.765402
     90          6           0        2.443651    4.052865    0.756362
     91          6           0        5.592377    4.627973   -1.358067
     92          6           0        5.040587    6.005486   -1.571308
     93          1           0        5.983871    7.180735   -1.700437
     94          7           0        2.169701   -0.870110   -1.225244
     95          6           0        1.344588    0.254236   -1.341951
     96          6           0       -0.031990   -0.169344   -1.591549
     97          6           0       -0.008641   -1.624000   -1.610671
     98          6           0        1.429659   -2.016406   -1.373155
     99          6           0       -1.236454    0.801044   -1.876334
    100          6           0       -1.098285   -2.623438   -1.761628
    101          8           0       -0.938674   -3.836444   -1.791467
    102          6           0       -2.479299   -2.176609   -2.009648
    103          7           0        4.401861   -2.863816   -1.109091
    104          6           0        3.332199   -3.661258   -1.123444
    105          6           0        3.705946   -5.161543   -1.165622
    106          6           0        5.192822   -5.081653   -1.442857
    107          6           0        5.540252   -3.603031   -1.015542
    108          6           0        3.378265   -5.900321    0.126803
    109          6           0        5.792249   -5.390489   -2.790348
    110          6           0        5.351702   -4.456184   -3.896926
    111          7           0        6.278222   -0.794208   -0.464298
    112          6           0        7.226704   -1.830420   -0.535710
    113          6           0        8.524532   -1.298354   -0.200443
    114          6           0        8.278769    0.097670   -0.143177
    115          6           0        6.905241    0.368438   -0.292670
    116          6           0        9.845069   -2.009868   -0.150672
    117          6           0        9.017842    1.388906    0.010415
    118          8           0       10.243070    1.630118    0.057022
    119          6           0        7.947652    2.478182    0.020205
    120          6           0        8.062704    3.313890    1.296790
    121          8           0        7.900603    2.982951    2.508434
    122          8           0        8.243371    4.607991    0.906888
    123          6           0        8.296375    5.606550    1.998642
    124          1           0        1.138347    2.387418   -1.568101
    125          1           0        1.279751   -4.058410   -1.342477
    126          1           0        7.684186   -3.841613   -0.664949
    127          1           0        5.227284    4.120038    0.684701
    128          1           0        2.919780    4.072629   -1.362761
    129          1           0        1.744879    4.822164    0.426487
    130          1           0        3.162767    4.493052    1.446253
    131          1           0        2.046608    3.292618    1.428682
    132          1           0        5.643592    3.995023   -2.244664
    133          1           0        6.634796    4.738141   -1.058940
    134          1           0        4.383225    6.400730   -0.797210
    135          1           0        4.526172    6.038999   -2.531271
    136          1           0       -1.555780    0.552843   -2.888937
    137          1           0       -0.961527    1.855243   -1.845517
    138          1           0       -1.996657    0.565351   -1.131484
    139          1           0       -2.790639   -1.338720   -1.385519
    140          1           0       -3.077109   -3.054593   -1.767507
    141          1           0       -2.439423   -1.764376   -3.017442
    142          1           0        3.126941   -5.610192   -1.972899
    143          1           0        5.763363   -5.770271   -0.819014
    144          1           0        2.977653   -6.880559   -0.128954
    145          1           0        2.631432   -5.363106    0.710417
    146          1           0        4.295062   -6.137809    0.667617
    147          1           0        5.601378   -6.441830   -3.007390
    148          1           0        6.867066   -5.209952   -2.789784
    149          1           0        5.072678   -4.996411   -4.800838
    150          1           0        6.147571   -3.787552   -4.225750
    151          1           0        4.488084   -3.839577   -3.647487
    152          1           0       10.570363   -1.477049   -0.765126
    153          1           0        9.926423   -3.055282   -0.448214
    154          1           0       10.179878   -1.979037    0.886386
    155          1           0        8.162696    3.170386   -0.794366
    156          1           0        7.334057    6.111083    2.082665
    157          1           0        9.139015    6.197629    1.639885
    158          1           0        8.638070    5.176330    2.940928
 ---------------------------------------------------------------------

 SCF Done:  E(RwB97XD) =  -4070.63482586     A.U. after   19 cycles

 Excitation energies and oscillator strengths:

 Excited State   1:      Singlet-A      1.6028 eV  773.56 nm  f=0.4648  <S**2>=0.000
     309 -> 316        0.16681
     311 -> 313        0.67675
     312 -> 313        0.10500
     309 <- 316        0.11237
 This state for optimization and/or second-order correction.
 Total Energy, E(TD-HF/TD-DFT) =  -4070.57592478
 Copying the excited state density for this state as the 1-particle RhoCI density.

 Excited State   2:      Singlet-A      1.6638 eV  745.20 nm  f=0.3259  <S**2>=0.000
     310 -> 315        0.19875
     311 -> 314       -0.10299
     312 -> 314        0.66838
     310 <- 315        0.12009

 Excited State   3:      Singlet-A      2.1127 eV  586.85 nm  f=0.0660  <S**2>=0.000
     309 -> 313        0.62953
     310 -> 314       -0.15665
     311 -> 316       -0.24543

 Excited State   4:      Singlet-A      2.1600 eV  574.01 nm  f=0.1149  <S**2>=0.000
     309 -> 313        0.15331
     310 -> 314        0.61150
     312 -> 315       -0.28998

 Excited State   5:      Singlet-A      2.4290 eV  510.44 nm  f=0.0002  <S**2>=0.000
     311 -> 313       -0.10882
     312 -> 313        0.68875

 The electronic state is 1-A.
 Alpha  occ. eigenvalues --  -46.95049 -46.94167 -19.31122 -19.30028 -19.25562
 Alpha  occ. eigenvalues --  -19.24745 -19.24459 -19.24252 -19.24173 -19.23551
 Alpha  occ. eigenvalues --  -14.47232 -14.46826 -14.46825 -14.46580 -14.44671
 Alpha  occ. eigenvalues --  -14.44318 -14.44294 -14.43487 -10.43956 -10.43155
 Alpha  occ. eigenvalues --  -10.39487 -10.39380 -10.38979 -10.38709 -10.36089
 Alpha  occ. eigenvalues --  -10.35800 -10.35695 -10.35587 -10.35576 -10.35227
 Alpha  occ. eigenvalues --  -10.35170 -10.34944 -10.34871 -10.34851 -10.34839
 Alpha  occ. eigenvalues --  -10.34785 -10.34739 -10.34629 -10.33995 -10.33758
 Alpha  occ. eigenvalues --  -10.33308 -10.33244 -10.33192 -10.33120 -10.33108
 Alpha  occ. eigenvalues --  -10.33084 -10.33070 -10.33062 -10.32899 -10.32715
 Alpha  occ. eigenvalues --  -10.32655 -10.32642 -10.32471 -10.32441 -10.32278
 Alpha  occ. eigenvalues --  -10.32167 -10.32113 -10.32095 -10.31744 -10.31698
 Alpha  occ. eigenvalues --  -10.31621 -10.31612 -10.31597 -10.31458 -10.31113
 Alpha  occ. eigenvalues --  -10.31049 -10.31026 -10.30942 -10.30932 -10.30923
 Alpha  occ. eigenvalues --  -10.30841 -10.30511 -10.30393 -10.30182 -10.30149
 Alpha  occ. eigenvalues --  -10.29973 -10.29885 -10.29854 -10.29834 -10.29604
 Alpha  occ. eigenvalues --  -10.29482 -10.29276 -10.29197 -10.29100 -10.28742
 Alpha  occ. eigenvalues --  -10.28400  -3.21128  -3.20323  -1.94732  -1.94267
 Alpha  occ. eigenvalues --   -1.94083  -1.93923  -1.93461  -1.93300  -1.20167
 Alpha  occ. eigenvalues --   -1.18320  -1.13873  -1.12962  -1.12400  -1.10626
 Alpha  occ. eigenvalues --   -1.10058  -1.08089  -1.07494  -1.07104  -1.06551
 Alpha  occ. eigenvalues --   -1.05509  -1.04858  -1.04464  -1.04411  -1.02715
 Alpha  occ. eigenvalues --   -0.95422  -0.94328  -0.91588  -0.91190  -0.90901
 Alpha  occ. eigenvalues --   -0.90868  -0.90850  -0.90709  -0.89601  -0.89352
 Alpha  occ. eigenvalues --   -0.89011  -0.88710  -0.87889  -0.87847  -0.86804
 Alpha  occ. eigenvalues --   -0.86381  -0.85982  -0.85724  -0.84974  -0.84569
 Alpha  occ. eigenvalues --   -0.84337  -0.83868  -0.83682  -0.83469  -0.82573
 Alpha  occ. eigenvalues --   -0.82122  -0.80475  -0.80208  -0.79389  -0.79247
 Alpha  occ. eigenvalues --   -0.79189  -0.78823  -0.78228  -0.77995  -0.77489
 Alpha  occ. eigenvalues --   -0.77432  -0.74976  -0.74791  -0.74282  -0.74036
 Alpha  occ. eigenvalues --   -0.72285  -0.72192  -0.71504  -0.71236  -0.70485
 Alpha  occ. eigenvalues --   -0.69732  -0.69243  -0.68481  -0.67557  -0.67133
 Alpha  occ. eigenvalues --   -0.67044  -0.66734  -0.66622  -0.66416  -0.66376
 Alpha  occ. eigenvalues --   -0.65884  -0.64691  -0.64006  -0.62704  -0.62308
 Alpha  occ. eigenvalues --   -0.61946  -0.61581  -0.61216  -0.61170  -0.61140
 Alpha  occ. eigenvalues --   -0.60486  -0.60423  -0.60093  -0.59772  -0.59495
 Alpha  occ. eigenvalues --   -0.58486  -0.58367  -0.58329  -0.57992  -0.57958
 Alpha  occ. eigenvalues --   -0.57616  -0.57464  -0.57269  -0.56855  -0.56485
 Alpha  occ. eigenvalues --   -0.56348  -0.56018  -0.55914  -0.55475  -0.55242
 Alpha  occ. eigenvalues --   -0.55152  -0.54810  -0.54708  -0.54451  -0.54390
 Alpha  occ. eigenvalues --   -0.54213  -0.54193  -0.53957  -0.53190  -0.53114
 Alpha  occ. eigenvalues --   -0.52944  -0.52854  -0.52768  -0.52425  -0.52308
 Alpha  occ. eigenvalues --   -0.52126  -0.52028  -0.51805  -0.51758  -0.51708
 Alpha  occ. eigenvalues --   -0.51661  -0.51411  -0.51190  -0.50987  -0.50827
 Alpha  occ. eigenvalues --   -0.50812  -0.50608  -0.50502  -0.50469  -0.50320
 Alpha  occ. eigenvalues --   -0.50244  -0.50176  -0.49734  -0.49686  -0.49598
 Alpha  occ. eigenvalues --   -0.49136  -0.49052  -0.48985  -0.48828  -0.48708
 Alpha  occ. eigenvalues --   -0.48472  -0.48164  -0.48121  -0.48063  -0.47889
 Alpha  occ. eigenvalues --   -0.47791  -0.47697  -0.47497  -0.47434  -0.47311
 Alpha  occ. eigenvalues --   -0.46884  -0.46746  -0.46572  -0.46372  -0.46241
 Alpha  occ. eigenvalues --   -0.46162  -0.45910  -0.45607  -0.45469  -0.45419
 Alpha  occ. eigenvalues --   -0.45303  -0.45112  -0.44962  -0.44777  -0.44718
 Alpha  occ. eigenvalues --   -0.44635  -0.44443  -0.44353  -0.44259  -0.44202
 Alpha  occ. eigenvalues --   -0.44095  -0.43852  -0.43812  -0.43749  -0.43632
 Alpha  occ. eigenvalues --   -0.43348  -0.42908  -0.42699  -0.42587  -0.42436
 Alpha  occ. eigenvalues --   -0.42011  -0.41898  -0.41312  -0.41220  -0.41052
 Alpha  occ. eigenvalues --   -0.40853  -0.40469  -0.40246  -0.39913  -0.39517
 Alpha  occ. eigenvalues --   -0.39376  -0.39204  -0.38927  -0.38777  -0.38568
 Alpha  occ. eigenvalues --   -0.38243  -0.38077  -0.37542  -0.36393  -0.36252
 Alpha  occ. eigenvalues --   -0.36165  -0.35930  -0.35358  -0.33958  -0.33779
 Alpha  occ. eigenvalues --   -0.33519  -0.33276  -0.32810  -0.32631  -0.32367
 Alpha  occ. eigenvalues --   -0.32357  -0.31829  -0.31345  -0.26252  -0.26106
 Alpha  occ. eigenvalues --   -0.23341  -0.23236
 Alpha virt. eigenvalues --   -0.07704  -0.07148  -0.00343   0.00171   0.01898
 Alpha virt. eigenvalues --    0.02249   0.04183   0.04410   0.05819   0.06169
 Alpha virt. eigenvalues --    0.06562   0.07546   0.07629   0.07831   0.08104

 Mulliken charges:
               1
     1  Mg   0.911698
     2  C   -0.027018
     3  C   -0.072634
     4  C   -0.081016
     5  C   -0.110840
     6  N   -0.295447
     7  C   -0.040335
     8  C   -0.082786
     9  C   -0.088756
    10  C    0.013919
    11  C    0.034114
    12  C   -0.000744
    13  C   -0.089452
    14  H    0.043353
    15  N   -0.474885
    16  C    0.176828
    17  C   -0.188136
    18  C   -0.078039
    19  C    0.190649
    20  C    0.063064
    21  C    0.065999
    22  O   -0.211828
    23  C   -0.007917
    24  N   -0.334348
    25  C    0.009237
    26  C   -0.101723
    27  C   -0.045935
    28  C    0.070279
    29  C    0.035061
    30  C   -0.009178
    31  C   -0.072526
    32  N   -0.480396
    33  C    0.140612
    34  C   -0.185416
    35  C   -0.029573
    36  C    0.176222
    37  C    0.068321
    38  C    0.153061
    39  O   -0.233216
    40  C   -0.147100
    41  C    0.243244
    42  O   -0.184931
    43  O   -0.369347
    44  C    0.110150
    45  H    0.003263
    46  H    0.012893
    47  H   -0.004564
    48  H    0.018967
    49  H    0.024376
    50  H    0.041338
    51  H    0.043187
    52  H    0.037737
    53  H    0.027812
    54  H    0.067236
    55  H    0.043914
    56  H    0.038839
    57  H    0.062623
    58  H    0.058394
    59  H    0.029218
    60  H    0.059045
    61  H    0.020508
    62  H    0.071714
    63  H    0.046372
    64  H    0.031496
    65  H    0.043941
    66  H    0.040706
    67  H    0.068184
    68  H    0.030994
    69  H    0.039660
    70  H    0.033088
    71  H    0.032247
    72  H    0.039417
    73  H    0.062143
    74  H    0.043964
    75  H    0.047990
    76  H    0.081947
    77  H    0.070551
    78  H    0.061936
    79  H    0.063877
    80  Mg   0.975025
    81  C   -0.026160
    82  C   -0.093137
    83  C   -0.091079
    84  C   -0.077621
    85  N   -0.366075
    86  C   -0.006662
    87  C   -0.064316
    88  C   -0.113572
    89  C    0.088183
    90  C    0.050593
    91  C   -0.005744
    92  C   -0.128273
    93  H    0.029516
    94  N   -0.468677
    95  C    0.163531
    96  C   -0.167805
    97  C   -0.051026
    98  C    0.155561
    99  C    0.075734
   100  C    0.028378
   101  O   -0.248814
   102  C    0.014936
   103  N   -0.422728
   104  C    0.104514
   105  C   -0.088387
   106  C   -0.066085
   107  C    0.109864
   108  C    0.042278
   109  C    0.010246
   110  C   -0.067751
   111  N   -0.449588
   112  C    0.078480
   113  C   -0.151859
   114  C   -0.101810
   115  C    0.166778
   116  C    0.064885
   117  C    0.158245
   118  O   -0.236679
   119  C   -0.063455
   120  C    0.278997
   121  O   -0.287702
   122  O   -0.366098
   123  C    0.125335
   124  H   -0.006304
   125  H    0.021063
   126  H    0.001282
   127  H    0.051064
   128  H    0.036066
   129  H    0.046278
   130  H    0.021165
   131  H    0.046483
   132  H    0.035499
   133  H    0.058405
   134  H    0.051304
   135  H    0.055752
   136  H    0.059452
   137  H    0.036048
   138  H    0.086268
   139  H    0.029345
   140  H    0.067817
   141  H    0.064284
   142  H    0.040901
   143  H    0.013933
   144  H    0.035288
   145  H    0.050743
   146  H    0.036618
   147  H    0.035073
   148  H    0.029065
   149  H    0.029050
   150  H    0.035024
   151  H    0.040698
   152  H    0.061448
   153  H    0.026505
   154  H    0.055107
   155  H    0.079628
   156  H    0.065178
   157  H    0.061226
   158  H    0.075957
 Sum of Mulliken charges =  -0.00000

 Dipole moment (field-independent basis, Debye):
    X=             -1.4265    Y=              1.2186    Z=              1.0472  Tot=              2.1486
 Quadrupole moment (field-independent basis, Debye-Ang):
   XX=           -607.5162   YY=           -456.4547   ZZ=           -510.9255
   XY=              9.8066   XZ=            -31.3357   YZ=             22.8943

 Normal termination of Gaussian 16 at Sat Sep 18 23:25:47 2021.
