 Gaussian 16, Revision A.03,
 Gaussian 16:  ES64L-G16RevA.03 25-Dec-2016

 --------------------------------
 #p wB97XD/Def2SVP td=(nstates=5)
 --------------------------------

 --------------------------------
 TDDFT excited states in gaussian
 --------------------------------
 Symbolic Z-matrix:
 Charge =  0 Multiplicity = 1

                         Standard orientation:
 ---------------------------------------------------------------------
 Center     Atomic      Atomic             Coordinates (Angstroms)
 Number     Number       Type             X           Y           Z
 ---------------------------------------------------------------------
      1         12           0       -5.024165   -0.646073    0.380853
      2          6           0       -3.028425    2.069028    1.075732
      3          6           0       -7.691732    1.568394   -0.107832
      4          6           0       -7.074710   -3.258687   -0.222386
      5          6           0       -2.499100   -2.747645    1.232142
      6          7           0       -5.358001    1.581217    0.743738
      7          6           0       -4.298808    2.495938    0.795286
      8          6           0       -4.760659    3.934572    0.489937
      9          6           0       -6.293652    3.697728    0.228237
     10          6           0       -6.504261    2.198855    0.231399
     11          6           0       -7.188787    4.409520    1.234732
     12          6           0       -4.077595    4.737162   -0.673391
     13          6           0       -3.184292    6.028024   -0.257013
     14          1           0       -3.724035    7.307896   -0.902846
     15          7           0       -7.072117   -0.842110    0.011532
     16          6           0       -7.965672    0.200621   -0.282093
     17          6           0       -9.227622   -0.314251   -0.823729
     18          6           0       -9.132579   -1.809292   -0.807445
     19          6           0       -7.696059   -2.061073   -0.388569
     20          6           0      -10.372875    0.579685   -1.245438
     21          6           0      -10.101222   -2.841359   -1.147535
     22          8           0       -9.820785   -4.034280   -0.958934
     23          6           0      -11.493503   -2.531760   -1.669086
     24          7           0       -4.811388   -2.630533    0.577653
     25          6           0       -5.756716   -3.577284    0.141524
     26          6           0       -5.249508   -5.075874    0.137263
     27          6           0       -3.740445   -4.833625    0.659348
     28          6           0       -3.678951   -3.297281    0.815270
     29          6           0       -6.099098   -6.071586    1.071072
     30          6           0       -2.680535   -5.397358   -0.348452
     31          6           0       -1.452149   -6.042407    0.212743
     32          7           0       -3.141691   -0.373118    1.135924
     33          6           0       -2.178216   -1.353168    1.391169
     34          6           0       -0.916126   -0.762718    1.680151
     35          6           0       -1.191180    0.638730    1.467354
     36          6           0       -2.562787    0.780061    1.221420
     37          6           0        0.392517   -1.364403    1.979223
     38          6           0       -0.619638    1.943505    1.586502
     39          8           0        0.511056    2.385283    1.818803
     40          6           0       -1.860886    2.940358    1.474410
     41          6           0       -2.008545    3.666554    2.763501
     42          8           0       -2.747540    3.449895    3.641596
     43          8           0       -1.192620    4.795431    2.775400
     44          6           0       -1.637178    5.864037    3.645796
     45          1           0       -8.494637    2.269567   -0.344927
     46          1           0       -7.610540   -4.180817   -0.456670
     47          1           0       -1.644946   -3.415790    1.360133
     48          1           0       -4.665160    4.528815    1.398065
     49          1           0       -6.614140    4.135676   -0.717470
     50          1           0       -7.712944    3.660142    1.827251
     51          1           0       -7.891830    4.939565    0.593306
     52          1           0       -6.701178    5.159016    1.857744
     53          1           0       -4.862100    5.068433   -1.354228
     54          1           0       -3.379348    4.110992   -1.228962
     55          1           0       -2.226283    5.800372   -0.724781
     56          1           0       -3.145685    6.130271    0.827265
     57          1           0      -10.822332    0.961724   -0.328013
     58          1           0      -11.094354   -0.031863   -1.785083
     59          1           0      -10.052131    1.473703   -1.780621
     60          1           0      -12.069347   -3.444980   -1.517577
     61          1           0      -11.512659   -2.212389   -2.711596
     62          1           0      -12.103350   -1.840712   -1.087493
     63          1           0       -5.163224   -5.432907   -0.888471
     64          1           0       -3.489435   -5.340939    1.591146
     65          1           0       -5.407192   -6.760346    1.556264
     66          1           0       -6.766913   -6.767737    0.565091
     67          1           0       -6.691586   -5.549740    1.822825
     68          1           0       -2.355427   -4.675872   -1.097850
     69          1           0       -3.068635   -6.225300   -0.941431
     70          1           0       -0.640510   -5.369952   -0.064552
     71          1           0       -1.064154   -6.964340   -0.220397
     72          1           0       -1.536656   -6.114484    1.297563
     73          1           0        0.431634   -2.348957    1.512339
     74          1           0        0.384516   -1.485612    3.062366
     75          1           0        1.170864   -0.636555    1.749281
     76          1           0       -1.684957    3.667736    0.682296
     77          1           0       -1.359909    5.519988    4.641634
     78          1           0       -2.721837    5.892210    3.543002
     79          1           0       -1.126022    6.801344    3.424221
     80         12           0        5.080861   -0.583564   -0.441038
     81          6           0        2.871799    1.996937   -1.151979
     82          6           0        7.575905    1.646554   -0.022166
     83          6           0        7.152155   -3.166431    0.052336
     84          6           0        2.464658   -2.828830   -1.054417
     85          7           0        5.125688    1.600212   -0.561849
     86          6           0        4.139743    2.441529   -0.762720
     87          6           0        4.735574    3.919176   -0.640178
     88          6           0        6.155786    3.612080   -1.065792
     89          6           0        6.345776    2.178525   -0.475750
     90          6           0        6.296008    3.743550   -2.597707
     91          6           0        4.409560    4.538705    0.786411
     92          6           0        4.498185    6.066450    0.853587
     93          1           0        5.100614    6.817131   -0.321463
     94          7           0        7.016849   -0.732252    0.127638
     95          6           0        7.877000    0.344860    0.327905
     96          6           0        9.126891   -0.187590    0.948732
     97          6           0        9.044823   -1.644604    0.918815
     98          6           0        7.722459   -1.857966    0.272858
     99          6           0       10.248864    0.704875    1.424032
    100          6           0       10.040395   -2.769987    1.463441
    101          8           0        9.791715   -3.979922    1.430289
    102          6           0       11.343457   -2.284622    2.063492
    103          7           0        4.882690   -2.637248   -0.599033
    104          6           0        5.868991   -3.498798   -0.365184
    105          6           0        5.460933   -4.977125   -0.650400
    106          6           0        3.936855   -4.819757   -0.750183
    107          6           0        3.705774   -3.341285   -0.747145
    108          6           0        6.127534   -5.603928   -1.906765
    109          6           0        3.019822   -5.678476    0.229859
    110          6           0        2.407947   -4.972606    1.395018
    111          7           0        3.130616   -0.507814   -1.189309
    112          6           0        2.180393   -1.463554   -1.321782
    113          6           0        0.939763   -0.957434   -1.790415
    114          6           0        1.155191    0.455727   -1.738748
    115          6           0        2.471288    0.611566   -1.367904
    116          6           0       -0.347985   -1.593645   -2.245562
    117          6           0        0.594653    1.761841   -1.918377
    118          8           0       -0.507881    2.131260   -2.260771
    119          6           0        1.609041    2.832621   -1.404262
    120          6           0        1.776443    3.877462   -2.418858
    121          8           0        2.214331    3.642613   -3.534868
    122          8           0        1.219366    5.128926   -2.051054
    123          6           0        1.255615    6.179347   -3.080673
    124          1           0        8.369022    2.393157    0.039276
    125          1           0        7.862818   -3.985176    0.176994
    126          1           0        1.687998   -3.560381   -1.285498
    127          1           0        4.218109    4.583030   -1.331419
    128          1           0        6.914424    4.218205   -0.571267
    129          1           0        6.952206    4.609346   -2.692787
    130          1           0        5.344644    3.927997   -3.098427
    131          1           0        6.856475    2.866841   -2.921544
    132          1           0        5.101145    4.145687    1.532164
    133          1           0        3.365104    4.284482    0.968421
    134          1           0        5.061798    6.304464    1.755166
    135          1           0        3.485315    6.431855    1.021140
    136          1           0        9.868839    1.651363    1.810230
    137          1           0       11.037033    0.936289    0.708290
    138          1           0       10.724256    0.229448    2.281849
    139          1           0       11.747538   -1.629096    1.292425
    140          1           0       12.086778   -3.064415    2.226766
    141          1           0       11.151913   -1.805101    3.023566
    142          1           0        5.727649   -5.630169    0.180418
    143          1           0        3.692102   -5.049471   -1.786568
    144          1           0        5.327680   -6.150769   -2.406654
    145          1           0        6.984869   -6.253946   -1.738971
    146          1           0        6.531724   -4.789746   -2.508356
    147          1           0        3.575757   -6.567248    0.528613
    148          1           0        2.136913   -6.010581   -0.315813
    149          1           0        1.331944   -4.935357    1.223284
    150          1           0        2.612644   -3.904087    1.472397
    151          1           0        2.549968   -5.472522    2.353211
    152          1           0       -0.282175   -2.681395   -2.288141
    153          1           0       -0.664553   -1.123358   -3.176991
    154          1           0       -1.198459   -1.508309   -1.568823
    155          1           0        1.269845    3.301048   -0.480724
    156          1           0        0.986890    7.176189   -2.731980
    157          1           0        0.535145    5.824202   -3.817990
    158          1           0        2.250635    6.116746   -3.519689
 ---------------------------------------------------------------------

 SCF Done:  E(RwB97XD) =  -4070.63101280     A.U. after   20 cycles

 Excitation energies and oscillator strengths:

 Excited State   1:      Singlet-A      1.5889 eV  780.30 nm  f=0.8285  <S**2>=0.000
     309 -> 315        0.13873
     311 -> 313        0.62026
     312 -> 314       -0.27565
 This state for optimization and/or second-order correction.
 Total Energy, E(TD-HF/TD-DFT) =  -4070.57262063
 Copying the excited state density for this state as the 1-particle RhoCI density.

 Excited State   2:      Singlet-A      1.6990 eV  729.74 nm  f=0.1180  <S**2>=0.000
     310 -> 316        0.16688
     311 -> 313        0.28268
     312 -> 314        0.61887
     310 <- 316        0.10413

 Excited State   3:      Singlet-A      2.1124 eV  586.94 nm  f=0.0227  <S**2>=0.000
     309 -> 313        0.58019
     310 -> 314        0.26685
     311 -> 315       -0.22441

 Excited State   4:      Singlet-A      2.1587 eV  574.36 nm  f=0.2024  <S**2>=0.000
     309 -> 313       -0.26789
     310 -> 314        0.58961
     311 -> 315        0.11402
     312 -> 316       -0.23165

 Excited State   5:      Singlet-A      2.6149 eV  474.14 nm  f=0.0004  <S**2>=0.000
     312 -> 313        0.69097

 The electronic state is 1-A.
 Alpha  occ. eigenvalues --  -46.93949 -46.93670 -19.28810 -19.27233 -19.25245
 Alpha  occ. eigenvalues --  -19.24235 -19.23963 -19.23688 -19.23080 -19.22731
 Alpha  occ. eigenvalues --  -14.46897 -14.46249 -14.46156 -14.45617 -14.44626
 Alpha  occ. eigenvalues --  -14.44336 -14.42815 -14.42779 -10.42232 -10.41668
 Alpha  occ. eigenvalues --  -10.40966 -10.39092 -10.38170 -10.37751 -10.35670
 Alpha  occ. eigenvalues --  -10.34992 -10.34903 -10.34885 -10.34875 -10.34841
 Alpha  occ. eigenvalues --  -10.34696 -10.34549 -10.34460 -10.34316 -10.34297
 Alpha  occ. eigenvalues --  -10.34254 -10.34209 -10.33991 -10.33844 -10.33493
 Alpha  occ. eigenvalues --  -10.33171 -10.32942 -10.32842 -10.32800 -10.32455
 Alpha  occ. eigenvalues --  -10.32385 -10.32213 -10.31767 -10.31758 -10.31748
 Alpha  occ. eigenvalues --  -10.31652 -10.31585 -10.31536 -10.31514 -10.31293
 Alpha  occ. eigenvalues --  -10.31255 -10.31244 -10.31194 -10.31053 -10.31050
 Alpha  occ. eigenvalues --  -10.31021 -10.30959 -10.30792 -10.30769 -10.30693
 Alpha  occ. eigenvalues --  -10.30616 -10.30539 -10.30250 -10.30229 -10.30224
 Alpha  occ. eigenvalues --  -10.30190 -10.30176 -10.30139 -10.29881 -10.29578
 Alpha  occ. eigenvalues --  -10.29527 -10.29450 -10.29431 -10.29416 -10.29395
 Alpha  occ. eigenvalues --  -10.29380 -10.29203 -10.29065 -10.28330 -10.28169
 Alpha  occ. eigenvalues --  -10.27757  -3.20120  -3.19838  -1.93681  -1.93447
 Alpha  occ. eigenvalues --   -1.93257  -1.93116  -1.92933  -1.92863  -1.18691
 Alpha  occ. eigenvalues --   -1.16231  -1.12442  -1.11569  -1.11526  -1.10369
 Alpha  occ. eigenvalues --   -1.09750  -1.08544  -1.07111  -1.06302  -1.06268
 Alpha  occ. eigenvalues --   -1.05792  -1.05175  -1.04839  -1.03678  -1.02381
 Alpha  occ. eigenvalues --   -0.94174  -0.93496  -0.90922  -0.90825  -0.90335
 Alpha  occ. eigenvalues --   -0.89970  -0.89923  -0.89665  -0.88910  -0.88871
 Alpha  occ. eigenvalues --   -0.88833  -0.88699  -0.88358  -0.87786  -0.85780
 Alpha  occ. eigenvalues --   -0.85638  -0.85273  -0.85211  -0.84244  -0.84140
 Alpha  occ. eigenvalues --   -0.84065  -0.83468  -0.82500  -0.82464  -0.81871
 Alpha  occ. eigenvalues --   -0.81591  -0.80483  -0.80230  -0.79133  -0.78912
 Alpha  occ. eigenvalues --   -0.78210  -0.78138  -0.77250  -0.76954  -0.76831
 Alpha  occ. eigenvalues --   -0.76644  -0.74734  -0.74413  -0.73394  -0.72748
 Alpha  occ. eigenvalues --   -0.71046  -0.70999  -0.70572  -0.70294  -0.69493
 Alpha  occ. eigenvalues --   -0.69345  -0.69083  -0.68168  -0.67457  -0.66802
 Alpha  occ. eigenvalues --   -0.66645  -0.66594  -0.66242  -0.65739  -0.65611
 Alpha  occ. eigenvalues --   -0.65369  -0.62865  -0.62633  -0.62334  -0.61970
 Alpha  occ. eigenvalues --   -0.61109  -0.61013  -0.60688  -0.60667  -0.60118
 Alpha  occ. eigenvalues --   -0.59983  -0.59613  -0.59528  -0.59415  -0.58894
 Alpha  occ. eigenvalues --   -0.58221  -0.57480  -0.57251  -0.57212  -0.57053
 Alpha  occ. eigenvalues --   -0.56964  -0.56372  -0.55699  -0.55315  -0.55308
 Alpha  occ. eigenvalues --   -0.55051  -0.54976  -0.54919  -0.54706  -0.54592
 Alpha  occ. eigenvalues --   -0.54392  -0.54321  -0.54017  -0.53993  -0.53839
 Alpha  occ. eigenvalues --   -0.53636  -0.53453  -0.53325  -0.53103  -0.52872
 Alpha  occ. eigenvalues --   -0.52637  -0.52402  -0.52261  -0.52137  -0.52100
 Alpha  occ. eigenvalues --   -0.51941  -0.51867  -0.51734  -0.51481  -0.51369
 Alpha  occ. eigenvalues --   -0.51232  -0.51165  -0.50738  -0.50648  -0.50625
 Alpha  occ. eigenvalues --   -0.50497  -0.50378  -0.50253  -0.50172  -0.50007
 Alpha  occ. eigenvalues --   -0.49799  -0.49608  -0.49378  -0.49031  -0.48817
 Alpha  occ. eigenvalues --   -0.48684  -0.48562  -0.48331  -0.48113  -0.47944
 Alpha  occ. eigenvalues --   -0.47820  -0.47731  -0.47625  -0.47478  -0.47410
 Alpha  occ. eigenvalues --   -0.47148  -0.47040  -0.46907  -0.46622  -0.46429
 Alpha  occ. eigenvalues --   -0.46383  -0.46216  -0.45951  -0.45744  -0.45592
 Alpha  occ. eigenvalues --   -0.45457  -0.45366  -0.45267  -0.45070  -0.45042
 Alpha  occ. eigenvalues --   -0.44954  -0.44759  -0.44611  -0.44562  -0.44509
 Alpha  occ. eigenvalues --   -0.44256  -0.44043  -0.43704  -0.43552  -0.43374
 Alpha  occ. eigenvalues --   -0.43153  -0.43123  -0.43008  -0.42876  -0.42632
 Alpha  occ. eigenvalues --   -0.42589  -0.42524  -0.42285  -0.42230  -0.41957
 Alpha  occ. eigenvalues --   -0.41701  -0.41316  -0.41225  -0.40748  -0.40596
 Alpha  occ. eigenvalues --   -0.40069  -0.39673  -0.39570  -0.39297  -0.39237
 Alpha  occ. eigenvalues --   -0.39105  -0.38899  -0.38030  -0.37836  -0.37716
 Alpha  occ. eigenvalues --   -0.37287  -0.36718  -0.36086  -0.35975  -0.35822
 Alpha  occ. eigenvalues --   -0.35418  -0.35086  -0.35017  -0.33873  -0.33347
 Alpha  occ. eigenvalues --   -0.33252  -0.32982  -0.32297  -0.31967  -0.31845
 Alpha  occ. eigenvalues --   -0.31700  -0.31430  -0.30952  -0.25965  -0.25338
 Alpha  occ. eigenvalues --   -0.22959  -0.22809
 Alpha virt. eigenvalues --   -0.07356  -0.06751   0.00059   0.01114   0.02031
 Alpha virt. eigenvalues --    0.02383   0.04349   0.05086   0.05786   0.07155
 Alpha virt. eigenvalues --    0.07444   0.07922   0.08444   0.08480   0.08811

 Mulliken charges:
               1
     1  Mg   0.967978
     2  C    0.027126
     3  C   -0.102551
     4  C   -0.070992
     5  C   -0.103138
     6  N   -0.365171
     7  C   -0.033732
     8  C   -0.004829
     9  C   -0.137646
    10  C    0.094791
    11  C    0.019541
    12  C   -0.015502
    13  C   -0.152627
    14  H    0.029211
    15  N   -0.481801
    16  C    0.200947
    17  C   -0.179578
    18  C   -0.028646
    19  C    0.194735
    20  C    0.079691
    21  C    0.021545
    22  O   -0.253638
    23  C   -0.033797
    24  N   -0.411203
    25  C    0.039942
    26  C   -0.045683
    27  C   -0.087200
    28  C    0.136399
    29  C   -0.000571
    30  C   -0.035633
    31  C   -0.067985
    32  N   -0.419846
    33  C    0.112226
    34  C   -0.179563
    35  C   -0.029738
    36  C    0.142749
    37  C    0.115576
    38  C    0.094846
    39  O   -0.233050
    40  C   -0.110175
    41  C    0.256137
    42  O   -0.187849
    43  O   -0.390971
    44  C    0.148695
    45  H   -0.011076
    46  H    0.025038
    47  H   -0.026554
    48  H    0.029905
    49  H    0.033352
    50  H    0.048743
    51  H    0.026604
    52  H    0.045316
    53  H    0.040672
    54  H    0.062716
    55  H    0.083138
    56  H    0.055352
    57  H    0.057936
    58  H    0.036376
    59  H    0.054799
    60  H    0.050025
    61  H    0.073264
    62  H    0.053047
    63  H    0.051818
    64  H    0.038846
    65  H    0.032895
    66  H    0.045882
    67  H    0.057553
    68  H    0.031949
    69  H    0.028800
    70  H    0.029151
    71  H    0.039027
    72  H    0.039269
    73  H    0.033140
    74  H    0.049814
    75  H    0.071129
    76  H    0.059732
    77  H    0.049101
    78  H    0.038634
    79  H    0.058284
    80  Mg   0.984913
    81  C   -0.011193
    82  C   -0.087561
    83  C   -0.084085
    84  C   -0.120171
    85  N   -0.312159
    86  C   -0.018623
    87  C   -0.088812
    88  C   -0.106007
    89  C    0.035946
    90  C    0.057178
    91  C    0.012368
    92  C   -0.108540
    93  H    0.029410
    94  N   -0.477292
    95  C    0.189752
    96  C   -0.157756
    97  C   -0.110067
    98  C    0.128158
    99  C    0.048907
   100  C    0.101363
   101  O   -0.228665
   102  C   -0.029444
   103  N   -0.380536
   104  C    0.082119
   105  C   -0.097334
   106  C   -0.032345
   107  C    0.057184
   108  C    0.021572
   109  C   -0.003679
   110  C   -0.044875
   111  N   -0.373822
   112  C    0.111919
   113  C   -0.172041
   114  C   -0.015400
   115  C    0.097435
   116  C    0.086142
   117  C    0.094607
   118  O   -0.216517
   119  C   -0.026272
   120  C    0.242468
   121  O   -0.253552
   122  O   -0.400516
   123  C    0.147867
   124  H    0.004300
   125  H    0.016307
   126  H   -0.015593
   127  H    0.019395
   128  H    0.003591
   129  H    0.034390
   130  H    0.070038
   131  H    0.035343
   132  H    0.033194
   133  H    0.065865
   134  H    0.043681
   135  H    0.055491
   136  H    0.041443
   137  H    0.064962
   138  H    0.030563
   139  H    0.058907
   140  H    0.055226
   141  H    0.081377
   142  H    0.036429
   143  H    0.029447
   144  H    0.036675
   145  H    0.044926
   146  H    0.041556
   147  H    0.033282
   148  H    0.021867
   149  H    0.005148
   150  H    0.054117
   151  H    0.040253
   152  H    0.010283
   153  H    0.061120
   154  H    0.049757
   155  H    0.086307
   156  H    0.063600
   157  H    0.053241
   158  H    0.048769
 Sum of Mulliken charges =  -0.00000

 Dipole moment (field-independent basis, Debye):
    X=              0.3620    Y=              1.4433    Z=             -0.5503  Tot=              1.5865
 Quadrupole moment (field-independent basis, Debye-Ang):
   XX=           -434.3326   YY=           -470.2440   ZZ=           -527.0498
   XY=             -3.8146   XZ=             25.3980   YZ=              3.4407

 Normal termination of Gaussian 16 at Mon Sep 20 15:34:15 2021.
