 Gaussian 16, Revision A.03,
 Gaussian 16:  ES64L-G16RevA.03 25-Dec-2016

 --------------------------------
 #p wB97XD/Def2SVP td=(nstates=5)
 --------------------------------

 --------------------------------
 TDDFT excited states in gaussian
 --------------------------------
 Symbolic Z-matrix:
 Charge =  0 Multiplicity = 1

                         Standard orientation:
 ---------------------------------------------------------------------
 Center     Atomic      Atomic             Coordinates (Angstroms)
 Number     Number       Type             X           Y           Z
 ---------------------------------------------------------------------
      1         12           0      -26.791440   -0.603847    0.336345
      2          6           0      -27.834297    2.431790   -0.995839
      3          6           0      -24.701934   -1.012619   -2.274475
      4          6           0      -26.377925   -3.844687    1.211041
      5          6           0      -29.557985   -0.493940    2.547205
      6          7           0      -26.331577    0.654060   -1.317622
      7          6           0      -26.719834    1.933401   -1.650892
      8          6           0      -26.018619    2.391357   -2.959351
      9          6           0      -25.512240    1.028738   -3.525059
     10          6           0      -25.403112    0.182555   -2.265134
     11          6           0      -26.473912    0.350315   -4.563099
     12          6           0      -25.044604    3.527971   -2.598795
     13          6           0      -25.045154    4.657492   -3.557197
     14          1           0      -24.507074    5.911283   -3.033179
     15          7           0      -25.526542   -2.098713   -0.308335
     16          6           0      -24.692675   -2.033664   -1.378347
     17          6           0      -23.759903   -3.129383   -1.295812
     18          6           0      -24.261931   -3.978450   -0.244533
     19          6           0      -25.502463   -3.349018    0.217602
     20          6           0      -22.631195   -3.324934   -2.243543
     21          6           0      -23.791846   -5.381587    0.260200
     22          8           0      -24.338846   -5.974825    1.192052
     23          6           0      -22.544026   -6.025232   -0.276673
     24          7           0      -28.069536   -2.061676    1.456466
     25          6           0      -27.544994   -3.344874    1.771503
     26          6           0      -28.330720   -4.068097    2.814759
     27          6           0      -29.175384   -2.862139    3.340257
     28          6           0      -28.866355   -1.685637    2.418153
     29          6           0      -29.163616   -5.277328    2.269516
     30          6           0      -28.851381   -2.473359    4.829020
     31          6           0      -27.352341   -2.251241    5.154475
     32          7           0      -28.321442    0.719644    0.804052
     33          6           0      -29.345418    0.655181    1.761671
     34          6           0      -30.076692    1.861561    1.651627
     35          6           0      -29.494778    2.576380    0.612087
     36          6           0      -28.460084    1.839773    0.137386
     37          6           0      -31.209729    2.273550    2.536583
     38          6           0      -29.635844    3.724179   -0.154567
     39          8           0      -30.482619    4.632338   -0.070513
     40          6           0      -28.556728    3.760072   -1.278419
     41          6           0      -27.756975    5.064190   -0.969816
     42          8           0      -27.011870    5.238962    0.010779
     43          8           0      -28.030697    5.984301   -1.976024
     44          6           0      -27.587576    7.401642   -1.782781
     45          1           0      -24.140511   -1.072060   -3.209289
     46          1           0      -26.306791   -4.811471    1.715174
     47          1           0      -30.288007   -0.313445    3.339075
     48          1           0      -26.734139    2.877710   -3.621514
     49          1           0      -24.507328    1.160531   -3.925066
     50          1           0      -27.355951    0.924470   -4.848184
     51          1           0      -26.922071   -0.547335   -4.139017
     52          1           0      -25.925828    0.186779   -5.490752
     53          1           0      -24.048726    3.095698   -2.685469
     54          1           0      -25.278590    3.853732   -1.584909
     55          1           0      -26.094165    4.846878   -3.785410
     56          1           0      -24.563794    4.329069   -4.478145
     57          1           0      -22.384248   -2.400788   -2.765758
     58          1           0      -22.834297   -4.219605   -2.833074
     59          1           0      -21.726622   -3.554326   -1.680206
     60          1           0      -22.699224   -7.091841   -0.112726
     61          1           0      -21.671057   -5.721636    0.301587
     62          1           0      -22.422622   -5.854448   -1.346794
     63          1           0      -27.726694   -4.444532    3.641509
     64          1           0      -30.233039   -3.113530    3.254750
     65          1           0      -29.306603   -5.151870    1.195903
     66          1           0      -30.157320   -5.420351    2.694307
     67          1           0      -28.713595   -6.262450    2.395792
     68          1           0      -29.321405   -3.241153    5.443807
     69          1           0      -29.452823   -1.578678    4.989646
     70          1           0      -27.147964   -1.247649    5.528016
     71          1           0      -26.801649   -2.445922    4.233762
     72          1           0      -26.981100   -2.937899    5.914664
     73          1           0      -32.048010    2.471271    1.868592
     74          1           0      -30.885303    3.144736    3.105671
     75          1           0      -31.569993    1.508029    3.223926
     76          1           0      -29.066658    3.876860   -2.234309
     77          1           0      -28.091940    7.754576   -0.883536
     78          1           0      -27.799911    8.112694   -2.581107
     79          1           0      -26.526855    7.188543   -1.649976
     80         12           0       27.648368    0.587890    0.050171
     81          6           0       24.483747   -0.595502   -1.146142
     82          6           0       25.997686    1.447309    3.059443
     83          6           0       30.656752    0.986545    1.482297
     84          6           0       29.140375   -0.924194   -2.670288
     85          7           0       25.470636    0.460423    0.887414
     86          6           0       24.440217   -0.092932    0.180158
     87          6           0       23.248335   -0.307951    1.099414
     88          6           0       23.710508    0.613796    2.304472
     89          6           0       25.155650    0.890328    2.133849
     90          6           0       22.941712    1.961792    2.512092
     91          6           0       23.024540   -1.835329    1.340601
     92          6           0       21.562316   -2.439673    1.266794
     93          1           0       20.946134   -3.100094    2.513202
     94          7           0       28.256488    1.290140    1.855541
     95          6           0       27.446753    1.611776    2.976637
     96          6           0       28.264427    2.107445    4.068368
     97          6           0       29.629837    1.957566    3.591134
     98          6           0       29.533308    1.400182    2.255042
     99          6           0       27.681415    2.477501    5.368107
    100          6           0       30.854095    2.373416    4.425169
    101          8           0       30.620382    2.763232    5.606392
    102          6           0       32.318815    2.353000    3.938888
    103          7           0       29.683003   -0.123626   -0.351512
    104          6           0       30.750041    0.320862    0.284245
    105          6           0       31.966368   -0.230823   -0.386597
    106          6           0       31.437515   -0.779892   -1.738618
    107          6           0       29.953219   -0.687347   -1.560623
    108          6           0       33.249952    0.684714   -0.580216
    109          6           0       31.923382   -2.273789   -2.114300
    110          6           0       32.823942   -2.466730   -3.358974
    111          7           0       27.005455   -0.338701   -1.648777
    112          6           0       27.702980   -0.894621   -2.653763
    113          6           0       26.847121   -1.452726   -3.635551
    114          6           0       25.568002   -1.309749   -3.092900
    115          6           0       25.706928   -0.655547   -1.842708
    116          6           0       27.143555   -2.062789   -4.946352
    117          6           0       24.205556   -1.640722   -3.376211
    118          8           0       23.760731   -2.263104   -4.314464
    119          6           0       23.395631   -1.193144   -2.001221
    120          6           0       22.367278   -0.198705   -2.329603
    121          8           0       22.515801    0.765035   -3.091616
    122          8           0       21.244120   -0.538732   -1.606126
    123          6           0       20.074700    0.321256   -1.779840
    124          1           0       25.546632    1.736791    4.009805
    125          1           0       31.651242    0.996484    1.932451
    126          1           0       29.540803   -1.207320   -3.646157
    127          1           0       22.409722    0.213541    0.637313
    128          1           0       23.623432   -0.128651    3.098620
    129          1           0       23.679968    2.764317    2.479194
    130          1           0       22.439575    2.045920    3.475623
    131          1           0       22.227341    2.222280    1.730520
    132          1           0       23.402545   -1.907787    2.360144
    133          1           0       23.644041   -2.507390    0.747181
    134          1           0       21.601378   -3.152651    0.443446
    135          1           0       20.905072   -1.680009    0.844752
    136          1           0       27.080463    1.625404    5.686605
    137          1           0       26.981950    3.303355    5.240110
    138          1           0       28.353333    2.850370    6.141594
    139          1           0       32.635179    1.311982    3.871304
    140          1           0       32.809639    3.111879    4.547342
    141          1           0       32.242308    2.775918    2.936628
    142          1           0       32.329924   -1.038322    0.247705
    143          1           0       31.690492    0.032184   -2.420378
    144          1           0       34.083351   -0.018262   -0.579773
    145          1           0       33.286897    1.404501    0.237341
    146          1           0       33.149785    1.151831   -1.560100
    147          1           0       30.989521   -2.825965   -2.218386
    148          1           0       32.367388   -2.706218   -1.217755
    149          1           0       32.467914   -3.256330   -4.019353
    150          1           0       33.835898   -2.693609   -3.022414
    151          1           0       32.962356   -1.557763   -3.944695
    152          1           0       26.262368   -2.092781   -5.586436
    153          1           0       27.438653   -3.046989   -4.582065
    154          1           0       28.102061   -1.672999   -5.288800
    155          1           0       23.048067   -2.063364   -1.445582
    156          1           0       19.828275    0.459902   -2.832774
    157          1           0       20.250327    1.283924   -1.297452
    158          1           0       19.217015   -0.158666   -1.308450
 ---------------------------------------------------------------------

 SCF Done:  E(RwB97XD) =  -4070.59694760     A.U. after   19 cycles

 Excitation energies and oscillator strengths:

 Excited State   1:      Singlet-A      1.6038 eV  773.05 nm  f=0.3763  <S**2>=0.000
     309 -> 316        0.16816
     312 -> 313        0.68666
     309 <- 316        0.11353
 This state for optimization and/or second-order correction.
 Total Energy, E(TD-HF/TD-DFT) =  -4070.53800753
 Copying the excited state density for this state as the 1-particle RhoCI density.

 Excited State   2:      Singlet-A      1.6376 eV  757.10 nm  f=0.3904  <S**2>=0.000
     310 -> 315        0.19097
     311 -> 314        0.68324
     310 <- 315        0.12122

 Excited State   3:      Singlet-A      2.1619 eV  573.48 nm  f=0.1248  <S**2>=0.000
     309 -> 313        0.64151
     312 -> 316       -0.27559

 Excited State   4:      Singlet-A      2.1989 eV  563.85 nm  f=0.1291  <S**2>=0.000
     310 -> 314        0.63870
     311 -> 315       -0.29221

 Excited State   5:      Singlet-A      3.2511 eV  381.36 nm  f=0.0002  <S**2>=0.000
     305 -> 313        0.18496
     305 -> 318       -0.10991
     305 -> 319        0.12711
     306 -> 313        0.55394
     308 -> 313       -0.31507

 The electronic state is 1-A.
 Alpha  occ. eigenvalues --  -46.95261 -46.94671 -19.31522 -19.29990 -19.25541
 Alpha  occ. eigenvalues --  -19.24984 -19.24827 -19.23740 -19.23194 -19.22755
 Alpha  occ. eigenvalues --  -14.46560 -14.46557 -14.46075 -14.45980 -14.44568
 Alpha  occ. eigenvalues --  -14.44440 -14.43920 -14.43114 -10.43968 -10.43943
 Alpha  occ. eigenvalues --  -10.39512 -10.39261 -10.39238 -10.37671 -10.36214
 Alpha  occ. eigenvalues --  -10.35729 -10.35227 -10.35013 -10.34799 -10.34686
 Alpha  occ. eigenvalues --  -10.34557 -10.34411 -10.34404 -10.34338 -10.34338
 Alpha  occ. eigenvalues --  -10.34233 -10.34217 -10.33787 -10.33370 -10.33163
 Alpha  occ. eigenvalues --  -10.33112 -10.32975 -10.32803 -10.32733 -10.32405
 Alpha  occ. eigenvalues --  -10.32342 -10.32340 -10.32268 -10.32210 -10.31974
 Alpha  occ. eigenvalues --  -10.31863 -10.31820 -10.31802 -10.31683 -10.31645
 Alpha  occ. eigenvalues --  -10.31634 -10.31605 -10.31590 -10.31571 -10.31558
 Alpha  occ. eigenvalues --  -10.31451 -10.31249 -10.31248 -10.31205 -10.31120
 Alpha  occ. eigenvalues --  -10.31057 -10.30913 -10.30789 -10.30680 -10.30570
 Alpha  occ. eigenvalues --  -10.30529 -10.30492 -10.30331 -10.30291 -10.30246
 Alpha  occ. eigenvalues --  -10.30139 -10.29964 -10.29909 -10.29784 -10.29689
 Alpha  occ. eigenvalues --  -10.29671 -10.29638 -10.29400 -10.28993 -10.28631
 Alpha  occ. eigenvalues --  -10.27818  -3.21258  -3.20700  -1.94837  -1.94370
 Alpha  occ. eigenvalues --   -1.94269  -1.94242  -1.93829  -1.93673  -1.18745
 Alpha  occ. eigenvalues --   -1.16599  -1.13102  -1.11662  -1.10389  -1.10192
 Alpha  occ. eigenvalues --   -1.09467  -1.08868  -1.07483  -1.06861  -1.06769
 Alpha  occ. eigenvalues --   -1.05924  -1.05767  -1.05523  -1.04408  -1.04234
 Alpha  occ. eigenvalues --   -0.95176  -0.94549  -0.91257  -0.91017  -0.90917
 Alpha  occ. eigenvalues --   -0.90455  -0.90219  -0.90017  -0.89902  -0.89707
 Alpha  occ. eigenvalues --   -0.89430  -0.89076  -0.88473  -0.87985  -0.86603
 Alpha  occ. eigenvalues --   -0.86490  -0.85775  -0.85444  -0.84621  -0.84056
 Alpha  occ. eigenvalues --   -0.83933  -0.83518  -0.83346  -0.82938  -0.82459
 Alpha  occ. eigenvalues --   -0.82348  -0.80202  -0.80151  -0.79605  -0.78985
 Alpha  occ. eigenvalues --   -0.78858  -0.78837  -0.78237  -0.77958  -0.77391
 Alpha  occ. eigenvalues --   -0.77300  -0.75241  -0.75214  -0.74209  -0.74000
 Alpha  occ. eigenvalues --   -0.71742  -0.71705  -0.71395  -0.70748  -0.70448
 Alpha  occ. eigenvalues --   -0.69518  -0.68759  -0.68486  -0.68082  -0.67637
 Alpha  occ. eigenvalues --   -0.67327  -0.67129  -0.66792  -0.66588  -0.66451
 Alpha  occ. eigenvalues --   -0.66040  -0.64972  -0.63595  -0.62157  -0.61942
 Alpha  occ. eigenvalues --   -0.61873  -0.61756  -0.61520  -0.61133  -0.60915
 Alpha  occ. eigenvalues --   -0.60434  -0.60415  -0.59608  -0.59560  -0.58961
 Alpha  occ. eigenvalues --   -0.58194  -0.57944  -0.57916  -0.57615  -0.57563
 Alpha  occ. eigenvalues --   -0.57266  -0.56969  -0.56865  -0.56724  -0.56485
 Alpha  occ. eigenvalues --   -0.55678  -0.55439  -0.55305  -0.54964  -0.54906
 Alpha  occ. eigenvalues --   -0.54894  -0.54766  -0.54588  -0.54379  -0.54073
 Alpha  occ. eigenvalues --   -0.53854  -0.53656  -0.53633  -0.53394  -0.53365
 Alpha  occ. eigenvalues --   -0.53194  -0.52541  -0.52418  -0.52274  -0.52262
 Alpha  occ. eigenvalues --   -0.52005  -0.51913  -0.51556  -0.51541  -0.51364
 Alpha  occ. eigenvalues --   -0.51335  -0.51093  -0.50817  -0.50741  -0.50684
 Alpha  occ. eigenvalues --   -0.50449  -0.50418  -0.50026  -0.49902  -0.49870
 Alpha  occ. eigenvalues --   -0.49667  -0.49636  -0.49615  -0.49556  -0.49411
 Alpha  occ. eigenvalues --   -0.49321  -0.49000  -0.48997  -0.48589  -0.48516
 Alpha  occ. eigenvalues --   -0.48401  -0.48204  -0.48103  -0.47905  -0.47888
 Alpha  occ. eigenvalues --   -0.47643  -0.47557  -0.47394  -0.47390  -0.46978
 Alpha  occ. eigenvalues --   -0.46543  -0.46490  -0.46403  -0.46074  -0.45698
 Alpha  occ. eigenvalues --   -0.45682  -0.45586  -0.45548  -0.45379  -0.45374
 Alpha  occ. eigenvalues --   -0.45223  -0.45116  -0.45033  -0.45000  -0.44923
 Alpha  occ. eigenvalues --   -0.44784  -0.44597  -0.44300  -0.44257  -0.43857
 Alpha  occ. eigenvalues --   -0.43753  -0.43508  -0.43504  -0.43157  -0.43094
 Alpha  occ. eigenvalues --   -0.43054  -0.42806  -0.42797  -0.42605  -0.42256
 Alpha  occ. eigenvalues --   -0.42154  -0.42153  -0.41863  -0.41053  -0.40879
 Alpha  occ. eigenvalues --   -0.40674  -0.40230  -0.40180  -0.39967  -0.39785
 Alpha  occ. eigenvalues --   -0.39605  -0.39285  -0.38886  -0.38563  -0.38538
 Alpha  occ. eigenvalues --   -0.38082  -0.37766  -0.37163  -0.36164  -0.36116
 Alpha  occ. eigenvalues --   -0.36103  -0.35468  -0.35306  -0.33569  -0.33535
 Alpha  occ. eigenvalues --   -0.33164  -0.32735  -0.32339  -0.32252  -0.32047
 Alpha  occ. eigenvalues --   -0.31913  -0.31566  -0.31536  -0.26156  -0.26099
 Alpha  occ. eigenvalues --   -0.23129  -0.22998
 Alpha virt. eigenvalues --   -0.07353  -0.07306   0.00164   0.00434   0.02371
 Alpha virt. eigenvalues --    0.02607   0.04466   0.04486   0.05402   0.05463
 Alpha virt. eigenvalues --    0.06386   0.07137   0.07428   0.07560   0.08500

 Mulliken charges:
               1
     1  Mg   0.956037
     2  C   -0.066635
     3  C   -0.119060
     4  C   -0.020972
     5  C   -0.102738
     6  N   -0.406712
     7  C    0.019861
     8  C   -0.101587
     9  C   -0.087872
    10  C    0.033972
    11  C    0.034873
    12  C    0.039846
    13  C   -0.123685
    14  H    0.052822
    15  N   -0.463970
    16  C    0.229645
    17  C   -0.175649
    18  C   -0.078341
    19  C    0.188238
    20  C    0.069350
    21  C    0.055799
    22  O   -0.248562
    23  C   -0.006153
    24  N   -0.316776
    25  C   -0.057195
    26  C   -0.058209
    27  C   -0.099772
    28  C    0.111905
    29  C    0.018233
    30  C   -0.021954
    31  C   -0.053799
    32  N   -0.435146
    33  C    0.116934
    34  C   -0.197905
    35  C    0.054038
    36  C    0.194393
    37  C    0.092926
    38  C    0.016725
    39  O   -0.242771
    40  C   -0.028818
    41  C    0.287613
    42  O   -0.268765
    43  O   -0.389793
    44  C    0.142360
    45  H   -0.000925
    46  H    0.018639
    47  H    0.002530
    48  H    0.020119
    49  H    0.019445
    50  H    0.035609
    51  H    0.053067
    52  H    0.043474
    53  H    0.021630
    54  H    0.065567
    55  H    0.039950
    56  H    0.040166
    57  H    0.041087
    58  H    0.067665
    59  H    0.043091
    60  H    0.054704
    61  H    0.075048
    62  H    0.027149
    63  H    0.045811
    64  H    0.030933
    65  H    0.039598
    66  H    0.032772
    67  H    0.042651
    68  H    0.031250
    69  H    0.022902
    70  H    0.046441
    71  H    0.045719
    72  H    0.042263
    73  H    0.058150
    74  H    0.068000
    75  H    0.019636
    76  H    0.066936
    77  H    0.068312
    78  H    0.069557
    79  H    0.058323
    80  Mg   0.980402
    81  C   -0.124055
    82  C   -0.080714
    83  C   -0.101737
    84  C   -0.096400
    85  N   -0.314517
    86  C   -0.024862
    87  C   -0.047727
    88  C   -0.085450
    89  C    0.061076
    90  C    0.030206
    91  C   -0.009344
    92  C   -0.101213
    93  H    0.050318
    94  N   -0.481309
    95  C    0.127593
    96  C   -0.142716
    97  C   -0.097835
    98  C    0.230273
    99  C    0.077003
   100  C    0.025806
   101  O   -0.277699
   102  C    0.020178
   103  N   -0.347043
   104  C    0.019175
   105  C   -0.090672
   106  C   -0.108982
   107  C    0.094241
   108  C    0.033643
   109  C    0.010058
   110  C   -0.047594
   111  N   -0.436697
   112  C    0.106439
   113  C   -0.206177
   114  C   -0.066828
   115  C    0.192865
   116  C    0.118076
   117  C    0.144199
   118  O   -0.188441
   119  C   -0.050708
   120  C    0.292290
   121  O   -0.254423
   122  O   -0.371170
   123  C    0.136644
   124  H   -0.000097
   125  H   -0.036538
   126  H    0.002979
   127  H    0.018550
   128  H    0.029558
   129  H    0.037181
   130  H    0.045339
   131  H    0.037054
   132  H    0.031078
   133  H    0.053649
   134  H    0.048090
   135  H    0.042425
   136  H    0.047771
   137  H    0.033326
   138  H    0.069383
   139  H    0.083949
   140  H    0.065102
   141  H    0.043335
   142  H    0.038414
   143  H    0.032683
   144  H    0.040670
   145  H    0.041135
   146  H    0.031831
   147  H    0.033600
   148  H    0.025562
   149  H    0.046670
   150  H    0.035601
   151  H    0.033281
   152  H    0.080970
   153  H    0.046775
   154  H    0.029922
   155  H    0.059549
   156  H    0.065639
   157  H    0.052750
   158  H    0.056644
 Sum of Mulliken charges =  -0.00000

 Dipole moment (field-independent basis, Debye):
    X=              3.6613    Y=             -2.3470    Z=             -2.0644  Tot=              4.8141
 Quadrupole moment (field-independent basis, Debye-Ang):
   XX=           -527.8545   YY=           -524.7829   ZZ=           -521.4897
   XY=             28.7131   XZ=              5.0373   YZ=            -17.6383

 Normal termination of Gaussian 16 at Sun Sep 19 08:41:44 2021.
