 Gaussian 16, Revision A.03,
 Gaussian 16:  ES64L-G16RevA.03 25-Dec-2016

 --------------------------------
 #p wB97XD/Def2SVP td=(nstates=5)
 --------------------------------

 --------------------------------
 TDDFT excited states in gaussian
 --------------------------------
 Symbolic Z-matrix:
 Charge =  0 Multiplicity = 1

                         Standard orientation:
 ---------------------------------------------------------------------
 Center     Atomic      Atomic             Coordinates (Angstroms)
 Number     Number       Type             X           Y           Z
 ---------------------------------------------------------------------
      1         12           0      -30.224301    0.265695   -0.670311
      2          6           0      -30.688100   -1.798844    2.164917
      3          6           0      -28.507436    2.503423    1.318815
      4          6           0      -30.048522    2.357294   -3.330374
      5          6           0      -32.156552   -1.932328   -2.600209
      6          7           0      -29.805226    0.300112    1.503443
      7          6           0      -29.887008   -0.735899    2.430823
      8          6           0      -29.204409   -0.338681    3.803300
      9          6           0      -28.786461    1.131851    3.536150
     10          6           0      -29.086946    1.377872    2.040629
     11          6           0      -29.431287    2.259999    4.425316
     12          6           0      -28.105772   -1.331487    4.364580
     13          6           0      -28.401456   -1.914650    5.713231
     14          1           0      -27.159992   -2.116028    6.669632
     15          7           0      -29.407295    2.122057   -0.905715
     16          6           0      -28.676641    2.876667   -0.010476
     17          6           0      -28.292870    4.132280   -0.636460
     18          6           0      -28.715996    4.140436   -1.995759
     19          6           0      -29.417023    2.812823   -2.149772
     20          6           0      -27.405587    5.197389    0.038772
     21          6           0      -28.501220    5.184881   -3.086404
     22          8           0      -28.839939    5.034717   -4.242299
     23          6           0      -27.717590    6.544810   -2.875450
     24          7           0      -31.088883    0.254233   -2.676775
     25          6           0      -30.863263    1.217621   -3.560438
     26          6           0      -31.541240    0.917937   -4.944869
     27          6           0      -32.055514   -0.564022   -4.756324
     28          6           0      -31.733128   -0.797575   -3.249405
     29          6           0      -32.584616    2.005941   -5.330954
     30          6           0      -31.406403   -1.523634   -5.733940
     31          6           0      -32.368749   -2.546020   -6.335889
     32          7           0      -31.367971   -1.447190   -0.358285
     33          6           0      -32.017765   -2.289826   -1.239697
     34          6           0      -32.623003   -3.330023   -0.466272
     35          6           0      -32.116012   -3.231130    0.853162
     36          6           0      -31.336717   -2.041656    0.900325
     37          6           0      -33.534447   -4.379504   -0.979340
     38          6           0      -32.053803   -3.900411    2.164227
     39          8           0      -32.646639   -4.866106    2.636322
     40          6           0      -31.006372   -2.909111    3.091518
     41          6           0      -31.679129   -2.473819    4.275499
     42          8           0      -32.118848   -1.357771    4.448281
     43          8           0      -31.642822   -3.449997    5.245411
     44          6           0      -32.379410   -3.063305    6.474478
     45          1           0      -27.854995    3.177193    1.878447
     46          1           0      -30.064934    3.012059   -4.203545
     47          1           0      -32.669493   -2.604241   -3.292438
     48          1           0      -30.041954   -0.221063    4.490050
     49          1           0      -27.709777    1.253107    3.655474
     50          1           0      -28.635935    2.972165    4.647374
     51          1           0      -29.835466    1.799236    5.326336
     52          1           0      -30.243714    2.803690    3.942765
     53          1           0      -27.170038   -0.772348    4.356983
     54          1           0      -28.055817   -2.168397    3.667817
     55          1           0      -28.851434   -2.901356    5.595933
     56          1           0      -29.127855   -1.220181    6.134373
     57          1           0      -26.474003    5.185241   -0.525893
     58          1           0      -27.122716    4.844977    1.030969
     59          1           0      -27.794832    6.216242    0.030326
     60          1           0      -26.718899    6.302190   -2.510736
     61          1           0      -28.310268    7.298407   -2.356025
     62          1           0      -27.738345    7.021941   -3.854796
     63          1           0      -30.835127    0.872706   -5.773758
     64          1           0      -33.140468   -0.514833   -4.850904
     65          1           0      -33.515504    1.506518   -5.601016
     66          1           0      -32.230943    2.690645   -6.102210
     67          1           0      -32.787646    2.639035   -4.468754
     68          1           0      -30.566942   -2.057712   -5.289986
     69          1           0      -30.904194   -1.037626   -6.571851
     70          1           0      -33.334322   -2.530703   -5.830281
     71          1           0      -31.916438   -3.523873   -6.168234
     72          1           0      -32.447849   -2.456709   -7.419456
     73          1           0      -33.785851   -4.350984   -2.039523
     74          1           0      -34.346552   -4.453410   -0.255061
     75          1           0      -32.889650   -5.257975   -1.013977
     76          1           0      -30.121826   -3.486207    3.362539
     77          1           0      -33.424645   -2.868709    6.233220
     78          1           0      -31.834316   -2.219762    6.897964
     79          1           0      -32.406308   -3.856560    7.220536
     80         12           0       31.047613   -0.662900    0.355687
     81          6           0       28.334401    1.422198    1.203875
     82          6           0       28.818817   -2.714456   -1.203399
     83          6           0       33.705102   -2.246358   -1.097539
     84          6           0       33.149535    1.929295    1.605674
     85          7           0       28.803413   -0.565038   -0.086816
     86          6           0       27.861262    0.257889    0.460536
     87          6           0       26.449225   -0.034672   -0.075597
     88          6           0       26.708512   -1.563956   -0.495816
     89          6           0       28.211929   -1.627404   -0.602142
     90          6           0       26.165906   -2.634458    0.488630
     91          6           0       26.021297    0.846324   -1.334208
     92          6           0       24.541644    1.060526   -1.613228
     93          1           0       23.834521    0.427700   -2.830616
     94          7           0       31.320566   -2.326381   -0.979199
     95          6           0       30.257722   -3.088625   -1.368515
     96          6           0       30.682938   -4.259635   -1.998153
     97          6           0       32.126885   -4.191900   -1.973500
     98          6           0       32.479983   -2.877989   -1.365299
     99          6           0       29.762967   -5.346628   -2.540838
    100          6           0       33.002259   -5.295732   -2.522452
    101          8           0       32.469525   -6.323440   -3.015122
    102          6           0       34.568183   -5.297773   -2.419485
    103          7           0       33.071967   -0.184328    0.305445
    104          6           0       34.000463   -1.039118   -0.348041
    105          6           0       35.402124   -0.682836    0.062697
    106          6           0       35.289385    0.761025    0.598248
    107          6           0       33.773218    0.846449    0.939994
    108          6           0       36.121579   -1.516661    1.146906
    109          6           0       35.667612    1.864847   -0.523629
    110          6           0       37.132744    2.218831   -0.729365
    111          7           0       30.767556    1.201433    1.395108
    112          6           0       31.703279    2.123117    1.840237
    113          6           0       31.100207    3.245624    2.375636
    114          6           0       29.726295    3.005527    2.202638
    115          6           0       29.584641    1.755166    1.577495
    116          6           0       31.822289    4.408603    2.979434
    117          6           0       28.478474    3.479442    2.497209
    118          8           0       28.141061    4.429747    3.175346
    119          6           0       27.542111    2.604087    1.637908
    120          6           0       27.080391    3.505093    0.531661
    121          8           0       27.812530    4.059386   -0.227816
    122          8           0       25.693093    3.653783    0.577895
    123          6           0       25.224033    4.629220   -0.343777
    124          1           0       28.133746   -3.499383   -1.531272
    125          1           0       34.598072   -2.817396   -1.361892
    126          1           0       33.852542    2.609403    2.090688
    127          1           0       25.702880   -0.076942    0.716974
    128          1           0       26.175274   -1.717678   -1.433556
    129          1           0       25.222571   -2.922740    0.023977
    130          1           0       25.950972   -2.219816    1.473431
    131          1           0       26.820534   -3.504847    0.536109
    132          1           0       26.386049    0.393242   -2.256088
    133          1           0       26.562813    1.788534   -1.247176
    134          1           0       24.443267    2.145105   -1.678150
    135          1           0       23.999251    0.752723   -0.719410
    136          1           0       30.061830   -6.392951   -2.469317
    137          1           0       29.661902   -4.964388   -3.556336
    138          1           0       28.834666   -5.366076   -1.969852
    139          1           0       34.862048   -5.313260   -1.370308
    140          1           0       34.834133   -4.382840   -2.948526
    141          1           0       35.086817   -6.065647   -2.993342
    142          1           0       35.990214   -0.655456   -0.854063
    143          1           0       35.915251    0.927378    1.475091
    144          1           0       36.312632   -0.993062    2.083461
    145          1           0       36.861111   -2.186028    0.706937
    146          1           0       35.369361   -2.243498    1.453046
    147          1           0       35.105060    2.716106   -0.140760
    148          1           0       35.272375    1.577811   -1.498235
    149          1           0       37.378489    2.120301   -1.786376
    150          1           0       37.752229    1.533899   -0.149729
    151          1           0       37.331262    3.258142   -0.466311
    152          1           0       31.394208    5.297632    2.517228
    153          1           0       32.883071    4.422826    2.726118
    154          1           0       31.680690    4.482568    4.057802
    155          1           0       26.699749    2.302650    2.259580
    156          1           0       25.163455    5.598842    0.149699
    157          1           0       24.183981    4.484081   -0.638354
    158          1           0       25.867937    4.719836   -1.216913
 ---------------------------------------------------------------------

 SCF Done:  E(RwB97XD) =  -4070.58532806     A.U. after   20 cycles

 Excitation energies and oscillator strengths:

 Excited State   1:      Singlet-A      1.6461 eV  753.18 nm  f=0.4002  <S**2>=0.000
     309 -> 315       -0.19123
     311 -> 313        0.68054
     309 <- 315       -0.11798
 This state for optimization and/or second-order correction.
 Total Energy, E(TD-HF/TD-DFT) =  -4070.52483371
 Copying the excited state density for this state as the 1-particle RhoCI density.

 Excited State   2:      Singlet-A      1.7609 eV  704.10 nm  f=0.3730  <S**2>=0.000
     310 -> 316       -0.17859
     312 -> 314        0.68335
     310 <- 316       -0.10771

 Excited State   3:      Singlet-A      2.0912 eV  592.88 nm  f=0.1261  <S**2>=0.000
     309 -> 313        0.64853
     311 -> 315        0.26306

 Excited State   4:      Singlet-A      2.2096 eV  561.12 nm  f=0.1120  <S**2>=0.000
     310 -> 314        0.63747
     312 -> 316        0.28424

 Excited State   5:      Singlet-A      3.1710 eV  390.99 nm  f=0.0098  <S**2>=0.000
     306 -> 313       -0.26141
     307 -> 313        0.60995
     307 -> 317       -0.13667

 The electronic state is 1-A.
 Alpha  occ. eigenvalues --  -46.96670 -46.94588 -19.30653 -19.29488 -19.25866
 Alpha  occ. eigenvalues --  -19.24968 -19.24361 -19.24083 -19.23187 -19.22945
 Alpha  occ. eigenvalues --  -14.47801 -14.47293 -14.46898 -14.46340 -14.45019
 Alpha  occ. eigenvalues --  -14.44427 -14.43837 -14.43282 -10.43581 -10.42074
 Alpha  occ. eigenvalues --  -10.40459 -10.39972 -10.39040 -10.37375 -10.36670
 Alpha  occ. eigenvalues --  -10.36492 -10.36387 -10.36175 -10.35708 -10.35364
 Alpha  occ. eigenvalues --  -10.35289 -10.35012 -10.34963 -10.34764 -10.34748
 Alpha  occ. eigenvalues --  -10.34465 -10.34306 -10.34150 -10.33998 -10.33750
 Alpha  occ. eigenvalues --  -10.33342 -10.33102 -10.33083 -10.32668 -10.32592
 Alpha  occ. eigenvalues --  -10.32494 -10.32393 -10.32390 -10.32388 -10.32129
 Alpha  occ. eigenvalues --  -10.32112 -10.32092 -10.32055 -10.32016 -10.31921
 Alpha  occ. eigenvalues --  -10.31912 -10.31885 -10.31858 -10.31730 -10.31669
 Alpha  occ. eigenvalues --  -10.31669 -10.31644 -10.31550 -10.31517 -10.31399
 Alpha  occ. eigenvalues --  -10.31324 -10.31171 -10.30887 -10.30695 -10.30660
 Alpha  occ. eigenvalues --  -10.30597 -10.30492 -10.30449 -10.30367 -10.30305
 Alpha  occ. eigenvalues --  -10.30250 -10.30133 -10.29982 -10.29880 -10.29812
 Alpha  occ. eigenvalues --  -10.29688 -10.29482 -10.29086 -10.28920 -10.28847
 Alpha  occ. eigenvalues --  -10.28214  -3.22441  -3.20552  -1.96022  -1.95550
 Alpha  occ. eigenvalues --   -1.95400  -1.94150  -1.93668  -1.93533  -1.19821
 Alpha  occ. eigenvalues --   -1.17958  -1.13799  -1.12284  -1.11763  -1.11439
 Alpha  occ. eigenvalues --   -1.09559  -1.09549  -1.07800  -1.06735  -1.06086
 Alpha  occ. eigenvalues --   -1.05999  -1.04546  -1.03967  -1.03925  -1.02944
 Alpha  occ. eigenvalues --   -0.96395  -0.93758  -0.90989  -0.90887  -0.90654
 Alpha  occ. eigenvalues --   -0.90579  -0.90296  -0.90014  -0.89546  -0.89263
 Alpha  occ. eigenvalues --   -0.89049  -0.88826  -0.87887  -0.87476  -0.86322
 Alpha  occ. eigenvalues --   -0.86282  -0.85552  -0.85504  -0.84855  -0.84417
 Alpha  occ. eigenvalues --   -0.83838  -0.83001  -0.82672  -0.82664  -0.82322
 Alpha  occ. eigenvalues --   -0.82058  -0.80454  -0.80040  -0.79329  -0.78917
 Alpha  occ. eigenvalues --   -0.78832  -0.78357  -0.77927  -0.77668  -0.77659
 Alpha  occ. eigenvalues --   -0.76682  -0.75629  -0.74262  -0.74215  -0.73292
 Alpha  occ. eigenvalues --   -0.71498  -0.71097  -0.70743  -0.70437  -0.70413
 Alpha  occ. eigenvalues --   -0.69432  -0.69185  -0.69149  -0.68275  -0.67532
 Alpha  occ. eigenvalues --   -0.67345  -0.66746  -0.66733  -0.66606  -0.66351
 Alpha  occ. eigenvalues --   -0.66259  -0.64828  -0.63127  -0.62526  -0.62181
 Alpha  occ. eigenvalues --   -0.62092  -0.61607  -0.61212  -0.61158  -0.61053
 Alpha  occ. eigenvalues --   -0.60772  -0.60108  -0.59945  -0.59752  -0.59010
 Alpha  occ. eigenvalues --   -0.58516  -0.57949  -0.57715  -0.57667  -0.57304
 Alpha  occ. eigenvalues --   -0.57098  -0.56718  -0.56133  -0.55831  -0.55619
 Alpha  occ. eigenvalues --   -0.55530  -0.55238  -0.55170  -0.55143  -0.54952
 Alpha  occ. eigenvalues --   -0.54757  -0.54547  -0.54499  -0.54239  -0.54050
 Alpha  occ. eigenvalues --   -0.53805  -0.53614  -0.53377  -0.53318  -0.53172
 Alpha  occ. eigenvalues --   -0.53044  -0.52811  -0.52779  -0.52568  -0.52505
 Alpha  occ. eigenvalues --   -0.52088  -0.52048  -0.51802  -0.51685  -0.51523
 Alpha  occ. eigenvalues --   -0.51455  -0.51357  -0.51357  -0.50954  -0.50761
 Alpha  occ. eigenvalues --   -0.50635  -0.50565  -0.50438  -0.49964  -0.49915
 Alpha  occ. eigenvalues --   -0.49892  -0.49677  -0.49475  -0.49299  -0.49177
 Alpha  occ. eigenvalues --   -0.48985  -0.48694  -0.48564  -0.48365  -0.48333
 Alpha  occ. eigenvalues --   -0.48278  -0.48125  -0.47992  -0.47918  -0.47743
 Alpha  occ. eigenvalues --   -0.47467  -0.47257  -0.47101  -0.47025  -0.46754
 Alpha  occ. eigenvalues --   -0.46687  -0.46660  -0.46534  -0.46415  -0.45963
 Alpha  occ. eigenvalues --   -0.45877  -0.45839  -0.45737  -0.45478  -0.45307
 Alpha  occ. eigenvalues --   -0.45193  -0.45192  -0.45158  -0.44983  -0.44917
 Alpha  occ. eigenvalues --   -0.44575  -0.44460  -0.44301  -0.44193  -0.44177
 Alpha  occ. eigenvalues --   -0.43893  -0.43471  -0.43406  -0.43313  -0.43195
 Alpha  occ. eigenvalues --   -0.43135  -0.42936  -0.42464  -0.42414  -0.42223
 Alpha  occ. eigenvalues --   -0.42203  -0.41937  -0.41565  -0.41380  -0.41311
 Alpha  occ. eigenvalues --   -0.40601  -0.40461  -0.39844  -0.39652  -0.39600
 Alpha  occ. eigenvalues --   -0.39207  -0.39154  -0.38920  -0.38896  -0.38653
 Alpha  occ. eigenvalues --   -0.38226  -0.37838  -0.37514  -0.37081  -0.36166
 Alpha  occ. eigenvalues --   -0.35783  -0.35692  -0.35333  -0.33916  -0.33676
 Alpha  occ. eigenvalues --   -0.33496  -0.32883  -0.32483  -0.32182  -0.32179
 Alpha  occ. eigenvalues --   -0.32001  -0.31658  -0.30753  -0.26257  -0.26020
 Alpha  occ. eigenvalues --   -0.23858  -0.23155
 Alpha virt. eigenvalues --   -0.07975  -0.06838  -0.00603   0.00150   0.01985
 Alpha virt. eigenvalues --    0.02092   0.04211   0.04544   0.04676   0.06016
 Alpha virt. eigenvalues --    0.06731   0.06922   0.07418   0.07911   0.07971

 Mulliken charges:
               1
     1  Mg   0.955469
     2  C    0.013786
     3  C   -0.100451
     4  C   -0.065590
     5  C   -0.066938
     6  N   -0.380675
     7  C   -0.011803
     8  C   -0.052150
     9  C   -0.156837
    10  C    0.113136
    11  C    0.022938
    12  C    0.049917
    13  C   -0.135386
    14  H    0.029590
    15  N   -0.510054
    16  C    0.184582
    17  C   -0.168146
    18  C   -0.051406
    19  C    0.184818
    20  C    0.065972
    21  C    0.037429
    22  O   -0.218191
    23  C   -0.019099
    24  N   -0.318038
    25  C    0.037653
    26  C   -0.121218
    27  C   -0.060543
    28  C    0.021288
    29  C    0.018072
    30  C    0.000708
    31  C   -0.057003
    32  N   -0.464068
    33  C    0.166404
    34  C   -0.208669
    35  C   -0.042160
    36  C    0.161399
    37  C    0.091200
    38  C    0.152402
    39  O   -0.199072
    40  C   -0.162973
    41  C    0.269652
    42  O   -0.250525
    43  O   -0.372333
    44  C    0.150419
    45  H   -0.008602
    46  H    0.020395
    47  H   -0.018285
    48  H    0.051673
    49  H    0.032777
    50  H    0.036890
    51  H    0.043464
    52  H    0.050788
    53  H    0.038818
    54  H    0.034399
    55  H    0.066003
    56  H    0.050622
    57  H    0.052508
    58  H    0.034047
    59  H    0.066390
    60  H    0.061621
    61  H    0.055636
    62  H    0.047383
    63  H    0.040341
    64  H    0.034392
    65  H    0.035219
    66  H    0.050598
    67  H    0.041482
    68  H    0.030945
    69  H    0.027953
    70  H    0.041063
    71  H    0.031083
    72  H    0.041228
    73  H    0.019060
    74  H    0.070173
    75  H    0.044827
    76  H    0.079922
    77  H    0.060098
    78  H    0.049479
    79  H    0.052103
    80  Mg   0.948279
    81  C    0.000584
    82  C   -0.064762
    83  C   -0.087417
    84  C   -0.085809
    85  N   -0.297883
    86  C   -0.038020
    87  C   -0.036669
    88  C   -0.151797
    89  C    0.082338
    90  C    0.029906
    91  C   -0.001042
    92  C   -0.097683
    93  H    0.043743
    94  N   -0.425910
    95  C    0.122514
    96  C   -0.157895
    97  C   -0.085156
    98  C    0.169096
    99  C    0.086492
   100  C    0.032047
   101  O   -0.271711
   102  C   -0.011362
   103  N   -0.428198
   104  C    0.087146
   105  C   -0.091938
   106  C   -0.113501
   107  C    0.082565
   108  C    0.055256
   109  C   -0.033213
   110  C   -0.022709
   111  N   -0.388377
   112  C    0.120851
   113  C   -0.174829
   114  C    0.039010
   115  C    0.121166
   116  C    0.098373
   117  C    0.025955
   118  O   -0.206355
   119  C   -0.074448
   120  C    0.253956
   121  O   -0.209738
   122  O   -0.358072
   123  C    0.118692
   124  H   -0.004365
   125  H   -0.015927
   126  H    0.009988
   127  H    0.028206
   128  H    0.041453
   129  H    0.039136
   130  H    0.042957
   131  H    0.043394
   132  H    0.044051
   133  H    0.047760
   134  H    0.049658
   135  H    0.043066
   136  H    0.069578
   137  H    0.065452
   138  H    0.029161
   139  H    0.067703
   140  H    0.050334
   141  H    0.051449
   142  H    0.031772
   143  H    0.027936
   144  H    0.049155
   145  H    0.044402
   146  H    0.015820
   147  H    0.024915
   148  H    0.036999
   149  H    0.036031
   150  H    0.032858
   151  H    0.043094
   152  H    0.055728
   153  H    0.023774
   154  H    0.063713
   155  H    0.047888
   156  H    0.048932
   157  H    0.048426
   158  H    0.062021
 Sum of Mulliken charges =  -0.00000

 Dipole moment (field-independent basis, Debye):
    X=              4.8422    Y=              2.8082    Z=             -0.3261  Tot=              5.6071
 Quadrupole moment (field-independent basis, Debye-Ang):
   XX=           -592.3687   YY=           -547.9889   ZZ=           -506.6943
   XY=           -120.3984   XZ=             70.4626   YZ=             -3.4823

 Normal termination of Gaussian 16 at Mon Sep 20 13:41:16 2021.
