 Gaussian 16, Revision A.03,
 Gaussian 16:  ES64L-G16RevA.03 25-Dec-2016

 --------------------------------
 #p wB97XD/Def2SVP td=(nstates=5)
 --------------------------------

 --------------------------------
 TDDFT excited states in gaussian
 --------------------------------
 Symbolic Z-matrix:
 Charge =  0 Multiplicity = 1

                         Standard orientation:
 ---------------------------------------------------------------------
 Center     Atomic      Atomic             Coordinates (Angstroms)
 Number     Number       Type             X           Y           Z
 ---------------------------------------------------------------------
      1         12           0      -29.408871    0.253962    0.272795
      2          6           0      -27.633767   -1.803378   -1.969806
      3          6           0      -29.127434    2.822244   -1.930707
      4          6           0      -31.014148    2.215461    2.512338
      5          6           0      -29.251526   -2.290844    2.630281
      6          7           0      -28.419445    0.513847   -1.644970
      7          6           0      -27.851776   -0.493773   -2.429584
      8          6           0      -27.546110    0.050333   -3.792702
      9          6           0      -27.579717    1.579017   -3.556548
     10          6           0      -28.446945    1.650422   -2.273269
     11          6           0      -26.217483    2.301001   -3.309875
     12          6           0      -28.507349   -0.415252   -4.950374
     13          6           0      -27.807019   -0.873537   -6.189858
     14          1           0      -28.367518   -0.356309   -7.527879
     15          7           0      -30.057951    2.165293    0.225231
     16          6           0      -29.930731    3.080580   -0.832886
     17          6           0      -30.579144    4.287895   -0.507454
     18          6           0      -31.175268    4.150896    0.833514
     19          6           0      -30.781475    2.829951    1.232982
     20          6           0      -30.541938    5.550265   -1.318231
     21          6           0      -31.971882    5.163225    1.765976
     22          8           0      -32.391993    4.814424    2.843725
     23          6           0      -32.316500    6.565690    1.285455
     24          7           0      -29.943852    0.027002    2.328943
     25          6           0      -30.584148    1.006529    3.018179
     26          6           0      -30.841498    0.540359    4.530402
     27          6           0      -30.544380   -1.021944    4.475236
     28          6           0      -29.857428   -1.125146    3.047284
     29          6           0      -29.996927    1.251362    5.623696
     30          6           0      -31.821903   -1.926590    4.598526
     31          6           0      -31.668766   -2.928847    5.664229
     32          7           0      -28.574860   -1.637824    0.363124
     33          6           0      -28.687273   -2.607119    1.358719
     34          6           0      -28.055992   -3.824782    0.928095
     35          6           0      -27.610181   -3.544871   -0.347553
     36          6           0      -27.951662   -2.267644   -0.663230
     37          6           0      -28.053638   -5.113641    1.790876
     38          6           0      -26.891210   -4.080640   -1.488849
     39          8           0      -26.308502   -5.139221   -1.573319
     40          6           0      -26.857151   -2.928896   -2.611695
     41          6           0      -25.452613   -2.603138   -2.919943
     42          8           0      -24.610474   -2.204898   -2.073003
     43          8           0      -25.235654   -2.846791   -4.244473
     44          6           0      -23.800653   -2.934153   -4.624156
     45          1           0      -28.960840    3.610605   -2.667669
     46          1           0      -31.515834    2.783329    3.298441
     47          1           0      -29.147999   -3.053029    3.404751
     48          1           0      -26.522648   -0.130469   -4.123462
     49          1           0      -28.032043    2.136299   -4.377057
     50          1           0      -25.381122    1.867292   -3.859610
     51          1           0      -26.035934    2.274089   -2.235126
     52          1           0      -26.211264    3.375568   -3.490755
     53          1           0      -29.162689    0.436714   -5.130434
     54          1           0      -29.191394   -1.195110   -4.614433
     55          1           0      -27.892388   -1.955468   -6.087452
     56          1           0      -26.780703   -0.506669   -6.186046
     57          1           0      -31.465164    5.804691   -1.839293
     58          1           0      -29.829556    5.429131   -2.133288
     59          1           0      -30.255053    6.476546   -0.821158
     60          1           0      -32.975731    6.981151    2.046643
     61          1           0      -32.697206    6.558650    0.263706
     62          1           0      -31.399744    7.122084    1.088116
     63          1           0      -31.858575    0.795323    4.828585
     64          1           0      -29.824421   -1.260496    5.259502
     65          1           0      -29.241718    1.955559    5.273056
     66          1           0      -29.452098    0.556063    6.262791
     67          1           0      -30.700426    1.792176    6.257272
     68          1           0      -31.943395   -2.482444    3.668066
     69          1           0      -32.738969   -1.387670    4.835659
     70          1           0      -32.192194   -2.572774    6.551939
     71          1           0      -30.669645   -3.271181    5.931466
     72          1           0      -32.095838   -3.875271    5.332397
     73          1           0      -28.817326   -5.022324    2.563606
     74          1           0      -27.049207   -5.362421    2.136454
     75          1           0      -28.398921   -5.888744    1.107714
     76          1           0      -27.373912   -3.238252   -3.520542
     77          1           0      -23.702880   -3.262580   -5.658759
     78          1           0      -23.405871   -3.762424   -4.035354
     79          1           0      -23.352626   -1.970620   -4.379698
     80         12           0       29.173022    0.682230   -0.655964
     81          6           0       27.392021   -2.315483    0.007520
     82          6           0       26.192959    2.402580   -0.084349
     83          6           0       31.034153    3.340164   -0.101235
     84          6           0       32.166466   -1.414968   -0.868136
     85          7           0       27.040648    0.072126    0.160473
     86          6           0       26.539264   -1.185075    0.075772
     87          6           0       25.026686   -1.131741    0.194601
     88          6           0       24.655484    0.226784   -0.400242
     89          6           0       26.033189    0.987067   -0.044012
     90          6           0       24.393297    0.318478   -1.904633
     91          6           0       24.600160   -1.402893    1.703041
     92          6           0       23.468146   -2.347769    1.806391
     93          1           0       22.366841   -2.031924    2.837089
     94          7           0       28.711590    2.662696   -0.101689
     95          6           0       27.400279    3.189170    0.004521
     96          6           0       27.548483    4.596674    0.276802
     97          6           0       28.918360    4.963066    0.199183
     98          6           0       29.650513    3.659492    0.016115
     99          6           0       26.325945    5.472231    0.533190
    100          6           0       29.475321    6.314595    0.415336
    101          8           0       28.708839    7.234074    0.674551
    102          6           0       30.917984    6.699722    0.446110
    103          7           0       31.388314    0.872722   -0.410888
    104          6           0       31.819453    2.149692   -0.395633
    105          6           0       33.348279    2.209628   -0.565755
    106          6           0       33.739026    0.679837   -0.974697
    107          6           0       32.366195   -0.017705   -0.792235
    108          6           0       33.862348    3.364367   -1.538318
    109          6           0       34.908381    0.043467   -0.160000
    110          6           0       34.536318   -0.901183    1.033340
    111          7           0       29.699019   -1.341494   -0.489487
    112          6           0       30.936276   -2.023456   -0.668328
    113          6           0       30.658328   -3.524458   -0.727587
    114          6           0       29.310315   -3.611561   -0.418543
    115          6           0       28.784806   -2.274714   -0.305341
    116          6           0       31.566168   -4.743498   -0.980553
    117          6           0       28.221964   -4.521802   -0.252559
    118          8           0       28.176240   -5.745127   -0.392129
    119          6           0       27.063349   -3.687824    0.163775
    120          6           0       26.895478   -4.048549    1.657526
    121          8           0       27.561630   -3.632746    2.603210
    122          8           0       25.862536   -5.023190    1.739884
    123          6           0       25.597107   -5.608123    2.991179
    124          1           0       25.279129    2.996010   -0.010360
    125          1           0       31.548412    4.302967   -0.077308
    126          1           0       32.972144   -2.122943   -1.069955
    127          1           0       24.518071   -1.851984   -0.446053
    128          1           0       23.798233    0.780959   -0.019720
    129          1           0       24.169196   -0.640257   -2.371407
    130          1           0       25.135924    0.940624   -2.404773
    131          1           0       23.457867    0.878141   -1.939250
    132          1           0       24.269106   -0.462572    2.143969
    133          1           0       25.429549   -1.652667    2.364812
    134          1           0       23.983739   -3.281310    2.028843
    135          1           0       22.985259   -2.408976    0.831225
    136          1           0       26.077012    6.112233   -0.313067
    137          1           0       26.482263    6.026620    1.457409
    138          1           0       25.446278    4.851761    0.704983
    139          1           0       31.319280    6.593674   -0.562066
    140          1           0       31.546117    6.138058    1.138630
    141          1           0       31.043263    7.775024    0.567180
    142          1           0       33.698354    2.375591    0.452848
    143          1           0       33.932501    0.647896   -2.046382
    144          1           0       33.137685    4.176062   -1.600970
    145          1           0       34.230304    3.098111   -2.529895
    146          1           0       34.826955    3.624721   -1.099793
    147          1           0       35.605031    0.790607    0.219346
    148          1           0       35.402494   -0.567932   -0.914691
    149          1           0       35.404965   -0.649945    1.642422
    150          1           0       34.520448   -1.976153    0.852325
    151          1           0       33.618016   -0.519591    1.480141
    152          1           0       31.218047   -5.318903   -1.837644
    153          1           0       31.255661   -5.314284   -0.105921
    154          1           0       32.599037   -4.400130   -0.926643
    155          1           0       26.173194   -4.006125   -0.378937
    156          1           0       24.803220   -6.356019    2.984491
    157          1           0       25.294528   -4.808053    3.665600
    158          1           0       26.538489   -6.070868    3.288792
 ---------------------------------------------------------------------

 SCF Done:  E(RwB97XD) =  -4070.58409911     A.U. after   19 cycles

 Excitation energies and oscillator strengths:

 Excited State   1:      Singlet-A      1.6241 eV  763.42 nm  f=0.3508  <S**2>=0.000
     309 -> 315        0.20435
     312 -> 314        0.67801
     309 <- 315        0.12289
 This state for optimization and/or second-order correction.
 Total Energy, E(TD-HF/TD-DFT) =  -4070.52441611
 Copying the excited state density for this state as the 1-particle RhoCI density.

 Excited State   2:      Singlet-A      1.6894 eV  733.88 nm  f=0.3956  <S**2>=0.000
     310 -> 316        0.18339
     311 -> 313        0.68255
     310 <- 316        0.11555

 Excited State   3:      Singlet-A      2.1337 eV  581.09 nm  f=0.0544  <S**2>=0.000
     309 -> 314        0.61276
     312 -> 315       -0.34221

 Excited State   4:      Singlet-A      2.1431 eV  578.52 nm  f=0.1540  <S**2>=0.000
     310 -> 313        0.65152
     311 -> 316       -0.25248

 Excited State   5:      Singlet-A      3.1997 eV  387.49 nm  f=0.0021  <S**2>=0.000
     305 -> 313        0.29666
     307 -> 313        0.62301

 The electronic state is 1-A.
 Alpha  occ. eigenvalues --  -46.97657 -46.93543 -19.30873 -19.29952 -19.26345
 Alpha  occ. eigenvalues --  -19.24933 -19.24475 -19.24068 -19.23994 -19.22574
 Alpha  occ. eigenvalues --  -14.46989 -14.46676 -14.46517 -14.46088 -14.44839
 Alpha  occ. eigenvalues --  -14.44347 -14.43967 -14.43150 -10.44503 -10.43279
 Alpha  occ. eigenvalues --  -10.40357 -10.39038 -10.38586 -10.38061 -10.35910
 Alpha  occ. eigenvalues --  -10.35851 -10.35460 -10.35460 -10.35359 -10.35070
 Alpha  occ. eigenvalues --  -10.35049 -10.34866 -10.34772 -10.34733 -10.34688
 Alpha  occ. eigenvalues --  -10.34651 -10.34419 -10.34118 -10.34006 -10.33574
 Alpha  occ. eigenvalues --  -10.33493 -10.33150 -10.33079 -10.32836 -10.32614
 Alpha  occ. eigenvalues --  -10.32574 -10.32456 -10.32443 -10.32262 -10.32181
 Alpha  occ. eigenvalues --  -10.32167 -10.32152 -10.32035 -10.31943 -10.31848
 Alpha  occ. eigenvalues --  -10.31828 -10.31817 -10.31780 -10.31697 -10.31671
 Alpha  occ. eigenvalues --  -10.31646 -10.31614 -10.31477 -10.31458 -10.31195
 Alpha  occ. eigenvalues --  -10.31176 -10.31072 -10.31041 -10.31027 -10.30670
 Alpha  occ. eigenvalues --  -10.30627 -10.30421 -10.30350 -10.30223 -10.30169
 Alpha  occ. eigenvalues --  -10.29972 -10.29954 -10.29852 -10.29627 -10.29605
 Alpha  occ. eigenvalues --  -10.29512 -10.29182 -10.29181 -10.29043 -10.28438
 Alpha  occ. eigenvalues --  -10.28339  -3.23362  -3.19677  -1.96878  -1.96524
 Alpha  occ. eigenvalues --   -1.96273  -1.93278  -1.92795  -1.92678  -1.17989
 Alpha  occ. eigenvalues --   -1.17932  -1.13957  -1.12545  -1.11850  -1.11547
 Alpha  occ. eigenvalues --   -1.10859  -1.08515  -1.06951  -1.06209  -1.05443
 Alpha  occ. eigenvalues --   -1.05348  -1.04867  -1.04569  -1.03508  -1.03296
 Alpha  occ. eigenvalues --   -0.96405  -0.94542  -0.91072  -0.91031  -0.90624
 Alpha  occ. eigenvalues --   -0.90553  -0.89936  -0.89682  -0.89207  -0.88962
 Alpha  occ. eigenvalues --   -0.88788  -0.88381  -0.87766  -0.87506  -0.86693
 Alpha  occ. eigenvalues --   -0.86215  -0.85702  -0.85570  -0.84812  -0.84611
 Alpha  occ. eigenvalues --   -0.84051  -0.83556  -0.83142  -0.82808  -0.82633
 Alpha  occ. eigenvalues --   -0.82236  -0.80230  -0.79986  -0.79242  -0.79193
 Alpha  occ. eigenvalues --   -0.78802  -0.78688  -0.77963  -0.77648  -0.77151
 Alpha  occ. eigenvalues --   -0.76828  -0.74865  -0.74744  -0.73827  -0.72915
 Alpha  occ. eigenvalues --   -0.71837  -0.70718  -0.70603  -0.70025  -0.69521
 Alpha  occ. eigenvalues --   -0.69252  -0.68819  -0.68526  -0.67460  -0.67306
 Alpha  occ. eigenvalues --   -0.67100  -0.66915  -0.66695  -0.66585  -0.66550
 Alpha  occ. eigenvalues --   -0.66051  -0.64218  -0.63934  -0.62339  -0.62096
 Alpha  occ. eigenvalues --   -0.61922  -0.61764  -0.61270  -0.61254  -0.60861
 Alpha  occ. eigenvalues --   -0.60268  -0.60150  -0.59691  -0.59591  -0.59011
 Alpha  occ. eigenvalues --   -0.58185  -0.58095  -0.57935  -0.57644  -0.57618
 Alpha  occ. eigenvalues --   -0.57420  -0.56890  -0.56851  -0.56508  -0.55718
 Alpha  occ. eigenvalues --   -0.55636  -0.55535  -0.55388  -0.55298  -0.54973
 Alpha  occ. eigenvalues --   -0.54572  -0.54568  -0.54503  -0.54090  -0.53891
 Alpha  occ. eigenvalues --   -0.53826  -0.53747  -0.53607  -0.53514  -0.53331
 Alpha  occ. eigenvalues --   -0.53246  -0.52971  -0.52811  -0.52479  -0.52445
 Alpha  occ. eigenvalues --   -0.52086  -0.52056  -0.51899  -0.51745  -0.51397
 Alpha  occ. eigenvalues --   -0.51361  -0.51349  -0.51165  -0.51109  -0.50904
 Alpha  occ. eigenvalues --   -0.50648  -0.50423  -0.50177  -0.49892  -0.49701
 Alpha  occ. eigenvalues --   -0.49583  -0.49398  -0.49169  -0.49113  -0.48772
 Alpha  occ. eigenvalues --   -0.48757  -0.48572  -0.48387  -0.48065  -0.48010
 Alpha  occ. eigenvalues --   -0.47899  -0.47826  -0.47796  -0.47778  -0.47678
 Alpha  occ. eigenvalues --   -0.47360  -0.47319  -0.47229  -0.47059  -0.46991
 Alpha  occ. eigenvalues --   -0.46694  -0.46588  -0.46486  -0.46404  -0.46365
 Alpha  occ. eigenvalues --   -0.46287  -0.46022  -0.45797  -0.45441  -0.45354
 Alpha  occ. eigenvalues --   -0.45259  -0.45210  -0.44987  -0.44866  -0.44789
 Alpha  occ. eigenvalues --   -0.44574  -0.44343  -0.44302  -0.43968  -0.43876
 Alpha  occ. eigenvalues --   -0.43790  -0.43490  -0.43306  -0.43139  -0.42959
 Alpha  occ. eigenvalues --   -0.42882  -0.42871  -0.42349  -0.42326  -0.41968
 Alpha  occ. eigenvalues --   -0.41951  -0.41061  -0.41047  -0.40735  -0.40497
 Alpha  occ. eigenvalues --   -0.40276  -0.40175  -0.39901  -0.39879  -0.39758
 Alpha  occ. eigenvalues --   -0.39627  -0.38768  -0.38595  -0.38407  -0.38313
 Alpha  occ. eigenvalues --   -0.37921  -0.37718  -0.37177  -0.36236  -0.36224
 Alpha  occ. eigenvalues --   -0.36105  -0.35611  -0.35379  -0.33746  -0.33530
 Alpha  occ. eigenvalues --   -0.33485  -0.32981  -0.32834  -0.32711  -0.32163
 Alpha  occ. eigenvalues --   -0.32141  -0.31752  -0.31628  -0.25962  -0.25885
 Alpha  occ. eigenvalues --   -0.23342  -0.22830
 Alpha virt. eigenvalues --   -0.07373  -0.06879  -0.00727   0.00638   0.01855
 Alpha virt. eigenvalues --    0.02780   0.02929   0.04317   0.04869   0.06472
 Alpha virt. eigenvalues --    0.06693   0.06855   0.07573   0.08044   0.08415

 Mulliken charges:
               1
     1  Mg   0.978429
     2  C   -0.032788
     3  C   -0.099749
     4  C   -0.063598
     5  C   -0.089412
     6  N   -0.322211
     7  C    0.015308
     8  C   -0.082416
     9  C   -0.128368
    10  C    0.030529
    11  C    0.020664
    12  C    0.044917
    13  C   -0.121186
    14  H    0.030808
    15  N   -0.522979
    16  C    0.241954
    17  C   -0.149361
    18  C   -0.081287
    19  C    0.154498
    20  C    0.042031
    21  C    0.076238
    22  O   -0.213763
    23  C   -0.007690
    24  N   -0.358981
    25  C    0.071787
    26  C   -0.108356
    27  C   -0.079752
    28  C    0.063423
    29  C    0.008319
    30  C    0.027457
    31  C   -0.074067
    32  N   -0.443733
    33  C    0.130285
    34  C   -0.214737
    35  C    0.007969
    36  C    0.121078
    37  C    0.094278
    38  C    0.108416
    39  O   -0.190847
    40  C   -0.041964
    41  C    0.275587
    42  O   -0.281929
    43  O   -0.372046
    44  C    0.141505
    45  H   -0.011129
    46  H    0.021704
    47  H   -0.003627
    48  H    0.026681
    49  H    0.025658
    50  H    0.045044
    51  H    0.043255
    52  H    0.033148
    53  H    0.030104
    54  H    0.030097
    55  H    0.065270
    56  H    0.054091
    57  H    0.051084
    58  H    0.023038
    59  H    0.045309
    60  H    0.070864
    61  H    0.046640
    62  H    0.048695
    63  H    0.037849
    64  H    0.037786
    65  H    0.044163
    66  H    0.029745
    67  H    0.037023
    68  H    0.035364
    69  H    0.037545
    70  H    0.038911
    71  H    0.028200
    72  H    0.026668
    73  H    0.030847
    74  H    0.066462
    75  H    0.049381
    76  H    0.057592
    77  H    0.060433
    78  H    0.064180
    79  H    0.067665
    80  Mg   0.936653
    81  C    0.010957
    82  C   -0.075360
    83  C   -0.029799
    84  C   -0.064700
    85  N   -0.298268
    86  C   -0.021697
    87  C   -0.051820
    88  C   -0.134220
    89  C    0.044086
    90  C    0.038283
    91  C    0.033632
    92  C   -0.117051
    93  H    0.034912
    94  N   -0.490191
    95  C    0.145821
    96  C   -0.165540
    97  C   -0.025104
    98  C    0.111797
    99  C    0.096314
   100  C   -0.006965
   101  O   -0.246474
   102  C    0.014026
   103  N   -0.325674
   104  C    0.062820
   105  C   -0.098258
   106  C   -0.020479
   107  C    0.007672
   108  C    0.005924
   109  C   -0.047104
   110  C   -0.048012
   111  N   -0.422791
   112  C    0.106832
   113  C   -0.210690
   114  C   -0.023496
   115  C    0.161702
   116  C    0.090938
   117  C    0.075701
   118  O   -0.216268
   119  C   -0.055021
   120  C    0.276471
   121  O   -0.229432
   122  O   -0.374830
   123  C    0.144804
   124  H    0.004544
   125  H   -0.047419
   126  H   -0.000881
   127  H    0.012678
   128  H    0.029592
   129  H    0.042144
   130  H    0.047016
   131  H    0.028404
   132  H    0.032671
   133  H    0.056505
   134  H    0.045330
   135  H    0.046274
   136  H    0.058316
   137  H    0.061349
   138  H    0.009470
   139  H    0.040868
   140  H    0.071651
   141  H    0.046906
   142  H    0.050768
   143  H    0.037812
   144  H    0.052385
   145  H    0.033869
   146  H    0.031537
   147  H    0.040208
   148  H    0.030984
   149  H    0.035593
   150  H    0.046439
   151  H    0.060460
   152  H    0.072933
   153  H    0.067995
   154  H    0.038971
   155  H    0.061020
   156  H    0.058050
   157  H    0.041815
   158  H    0.053636
 Sum of Mulliken charges =  -0.00000

 Dipole moment (field-independent basis, Debye):
    X=              0.3682    Y=              3.4575    Z=             -5.5781  Tot=              6.5730
 Quadrupole moment (field-independent basis, Debye-Ang):
   XX=           -265.9267   YY=           -548.7938   ZZ=           -485.5753
   XY=            -86.2377   XZ=            -54.1222   YZ=            -29.0404

 Normal termination of Gaussian 16 at Sat Sep 18 17:38:34 2021.
