 Gaussian 16, Revision A.03,
 Gaussian 16:  ES64L-G16RevA.03 25-Dec-2016

 --------------------------------
 #p wB97XD/Def2SVP td=(nstates=5)
 --------------------------------

 --------------------------------
 TDDFT excited states in gaussian
 --------------------------------
 Symbolic Z-matrix:
 Charge =  0 Multiplicity = 1

                         Standard orientation:
 ---------------------------------------------------------------------
 Center     Atomic      Atomic             Coordinates (Angstroms)
 Number     Number       Type             X           Y           Z
 ---------------------------------------------------------------------
      1         12           0       32.962029    0.511891   -0.490560
      2          6           0       31.357769   -2.382525    0.460752
      3          6           0       30.405095    2.301898    0.895895
      4          6           0       35.052444    3.061451   -0.284110
      5          6           0       35.522821   -1.483993   -1.827076
      6          7           0       31.339415   -0.054348    0.962559
      7          6           0       30.744247   -1.274555    0.992270
      8          6           0       29.421274   -1.257959    1.699295
      9          6           0       28.990301    0.219166    1.424685
     10          6           0       30.301187    0.860790    0.994582
     11          6           0       27.825168    0.333905    0.400327
     12          6           0       29.569873   -1.545455    3.277017
     13          6           0       28.372712   -2.372843    3.939382
     14          1           0       27.753270   -1.513678    5.013703
     15          7           0       32.679361    2.471676    0.031539
     16          6           0       31.625035    3.040428    0.656419
     17          6           0       31.884964    4.448787    0.926886
     18          6           0       33.224114    4.689314    0.556681
     19          6           0       33.709913    3.364754    0.077705
     20          6           0       30.808628    5.352098    1.576350
     21          6           0       33.938579    5.974873    0.867753
     22          8           0       33.334390    6.879463    1.382451
     23          6           0       35.438512    6.225359    0.620665
     24          7           0       35.002130    0.836822   -1.104709
     25          6           0       35.597773    1.925781   -0.896884
     26          6           0       37.046530    1.877510   -1.214816
     27          6           0       37.229899    0.399309   -1.739456
     28          6           0       35.873581   -0.129264   -1.558462
     29          6           0       37.466264    3.032791   -2.185366
     30          6           0       38.321934   -0.406956   -0.895023
     31          6           0       38.934959   -1.696502   -1.548162
     32          7           0       33.373592   -1.493657   -0.750892
     33          6           0       34.404679   -2.142290   -1.405906
     34          6           0       34.138753   -3.551173   -1.496969
     35          6           0       32.888207   -3.696820   -0.800366
     36          6           0       32.541301   -2.459639   -0.292778
     37          6           0       34.970259   -4.600804   -2.161216
     38          6           0       31.891428   -4.642997   -0.434525
     39          8           0       31.741787   -5.861831   -0.589782
     40          6           0       30.960309   -3.873009    0.559536
     41          6           0       29.557744   -4.215369    0.181670
     42          8           0       28.889639   -5.125638    0.691823
     43          8           0       29.146769   -3.412968   -0.846708
     44          6           0       27.763756   -3.802113   -1.241303
     45          1           0       29.587617    2.967555    1.181971
     46          1           0       35.733846    3.903281   -0.148631
     47          1           0       36.373327   -2.104891   -2.118790
     48          1           0       28.810135   -1.954285    1.126455
     49          1           0       28.594004    0.649781    2.344409
     50          1           0       26.951674    0.757307    0.895306
     51          1           0       27.547447   -0.681966    0.117398
     52          1           0       28.196523    0.897009   -0.455320
     53          1           0       29.787786   -0.682556    3.906137
     54          1           0       30.464393   -2.136813    3.469877
     55          1           0       28.870425   -3.208671    4.431315
     56          1           0       27.616688   -2.834381    3.304053
     57          1           0       31.102772    5.811425    2.519992
     58          1           0       29.843770    4.863529    1.716647
     59          1           0       30.575019    6.130710    0.850966
     60          1           0       35.710878    6.201778   -0.433988
     61          1           0       36.092761    5.555683    1.179436
     62          1           0       35.640868    7.174086    1.118660
     63          1           0       37.518309    1.984714   -0.238160
     64          1           0       37.426003    0.245734   -2.800344
     65          1           0       38.232266    3.612764   -1.671078
     66          1           0       36.618719    3.659774   -2.462826
     67          1           0       38.049026    2.703208   -3.045380
     68          1           0       37.901685   -0.712008    0.063560
     69          1           0       39.113922    0.313011   -0.694114
     70          1           0       40.005105   -1.777998   -1.736566
     71          1           0       38.522125   -1.852946   -2.543815
     72          1           0       38.683356   -2.574873   -0.953781
     73          1           0       35.805070   -4.251674   -2.768600
     74          1           0       34.193580   -5.091139   -2.746724
     75          1           0       35.209190   -5.221166   -1.297313
     76          1           0       31.137721   -4.103467    1.610562
     77          1           0       27.787359   -4.780328   -1.720493
     78          1           0       27.369856   -3.191834   -2.054047
     79          1           0       27.139507   -3.746290   -0.349264
     80         12           0      -33.142045   -0.461947   -0.767006
     81          6           0      -30.229547    1.356636    0.132200
     82          6           0      -31.642629   -3.273637    0.651894
     83          6           0      -36.172376   -1.726207   -0.532741
     84          6           0      -34.525007    2.744623   -1.866684
     85          7           0      -31.195297   -0.825622    0.522850
     86          6           0      -30.111873   -0.010732    0.487352
     87          6           0      -28.896242   -0.769062    0.989382
     88          6           0      -29.175966   -2.219942    0.597051
     89          6           0      -30.786505   -2.134451    0.640162
     90          6           0      -28.724818   -2.703627   -0.782389
     91          6           0      -28.679528   -0.465846    2.535969
     92          6           0      -27.264575   -0.189362    2.862146
     93          1           0      -26.697516   -0.803694    4.156755
     94          7           0      -33.880239   -2.275665    0.012661
     95          6           0      -33.074609   -3.342789    0.481916
     96          6           0      -33.974934   -4.422983    0.797776
     97          6           0      -35.295300   -4.084945    0.398784
     98          6           0      -35.201491   -2.649432   -0.047725
     99          6           0      -33.451442   -5.717473    1.411930
    100          6           0      -36.498245   -4.929137    0.553119
    101          8           0      -36.379393   -6.039104    1.057080
    102          6           0      -37.909265   -4.551721    0.241471
    103          7           0      -35.138714    0.496655   -1.080474
    104          6           0      -36.160692   -0.382079   -1.092895
    105          6           0      -37.438809    0.277893   -1.641253
    106          6           0      -36.900867    1.699100   -2.233677
    107          6           0      -35.426711    1.661918   -1.754089
    108          6           0      -38.283836   -0.638667   -2.635947
    109          6           0      -37.701954    2.961331   -1.785211
    110          6           0      -37.125012    3.808177   -0.599950
    111          7           0      -32.569279    1.553277   -0.870246
    112          6           0      -33.219305    2.703850   -1.400820
    113          6           0      -32.201766    3.840264   -1.484185
    114          6           0      -31.086656    3.317002   -0.849397
    115          6           0      -31.357505    1.940526   -0.520622
    116          6           0      -32.285535    5.275979   -2.037297
    117          6           0      -29.737706    3.596677   -0.471622
    118          8           0      -29.042704    4.593819   -0.673544
    119          6           0      -29.275918    2.398315    0.277994
    120          6           0      -29.226635    2.900983    1.738984
    121          8           0      -30.173725    3.044073    2.509384
    122          8           0      -27.875305    3.247141    2.017837
    123          6           0      -27.583814    3.849170    3.255146
    124          1           0      -31.198020   -4.210845    0.993481
    125          1           0      -37.103475   -2.294556   -0.578133
    126          1           0      -34.796366    3.703537   -2.311571
    127          1           0      -27.980522   -0.519166    0.453765
    128          1           0      -28.815314   -3.039486    1.217584
    129          1           0      -27.956351   -2.079645   -1.237774
    130          1           0      -29.574020   -2.966850   -1.413475
    131          1           0      -28.224577   -3.642548   -0.542312
    132          1           0      -28.969350   -1.348535    3.106128
    133          1           0      -29.367244    0.272703    2.948044
    134          1           0      -27.255692    0.899756    2.885817
    135          1           0      -26.648168   -0.551828    2.039627
    136          1           0      -33.416251   -6.541551    0.699626
    137          1           0      -34.039571   -5.944399    2.299947
    138          1           0      -32.427555   -5.582922    1.761017
    139          1           0      -38.003177   -4.452491   -0.840212
    140          1           0      -38.273508   -3.638785    0.714205
    141          1           0      -38.591043   -5.387176    0.395808
    142          1           0      -38.006207    0.494373   -0.736353
    143          1           0      -36.847381    1.622334   -3.319130
    144          1           0      -38.084658   -1.695712   -2.460181
    145          1           0      -38.270322   -0.415691   -3.703471
    146          1           0      -39.306301   -0.311516   -2.440777
    147          1           0      -38.740341    2.731505   -1.547777
    148          1           0      -37.659928    3.584232   -2.678376
    149          1           0      -38.094157    4.128022   -0.216406
    150          1           0      -36.523797    4.685416   -0.839889
    151          1           0      -36.636591    3.118670    0.088924
    152          1           0      -31.538592    5.440098   -2.813200
    153          1           0      -31.893746    5.774422   -1.151155
    154          1           0      -33.336544    5.494293   -2.225297
    155          1           0      -28.266512    2.137583   -0.040359
    156          1           0      -26.532848    4.101272    3.401997
    157          1           0      -27.868449    3.143281    4.034386
    158          1           0      -28.187810    4.756778    3.273621
 ---------------------------------------------------------------------

 SCF Done:  E(RwB97XD) =  -4070.55410626     A.U. after   19 cycles

 Excitation energies and oscillator strengths:

 Excited State   1:      Singlet-A      1.6240 eV  763.46 nm  f=0.3505  <S**2>=0.000
     310 -> 315        0.20434
     312 -> 314        0.67801
     310 <- 315        0.12289
 This state for optimization and/or second-order correction.
 Total Energy, E(TD-HF/TD-DFT) =  -4070.49442626
 Copying the excited state density for this state as the 1-particle RhoCI density.

 Excited State   2:      Singlet-A      1.6577 eV  747.95 nm  f=0.3614  <S**2>=0.000
     309 -> 316        0.16765
     311 -> 313        0.68564
     309 <- 316        0.10882

 Excited State   3:      Singlet-A      2.1336 eV  581.11 nm  f=0.0543  <S**2>=0.000
     310 -> 314        0.61277
     312 -> 315       -0.34220

 Excited State   4:      Singlet-A      2.1685 eV  571.76 nm  f=0.1042  <S**2>=0.000
     309 -> 313        0.63804
     311 -> 316       -0.28232

 Excited State   5:      Singlet-A      3.4146 eV  363.10 nm  f=0.0012  <S**2>=0.000
     303 -> 313       -0.19739
     308 -> 313        0.62682
     308 -> 318       -0.11498

 The electronic state is 1-A.
 Alpha  occ. eigenvalues --  -46.97657 -46.95571 -19.30739 -19.29955 -19.26348
 Alpha  occ. eigenvalues --  -19.24605 -19.23997 -19.23982 -19.22886 -19.22573
 Alpha  occ. eigenvalues --  -14.46992 -14.46684 -14.46518 -14.46505 -14.44966
 Alpha  occ. eigenvalues --  -14.44838 -14.44352 -14.43138 -10.44506 -10.42495
 Alpha  occ. eigenvalues --  -10.39794 -10.38588 -10.38061 -10.38020 -10.36453
 Alpha  occ. eigenvalues --  -10.35881 -10.35853 -10.35462 -10.35461 -10.35444
 Alpha  occ. eigenvalues --  -10.35361 -10.35162 -10.35050 -10.34868 -10.34776
 Alpha  occ. eigenvalues --  -10.34694 -10.34169 -10.34120 -10.33930 -10.33651
 Alpha  occ. eigenvalues --  -10.33575 -10.33493 -10.32838 -10.32733 -10.32575
 Alpha  occ. eigenvalues --  -10.32458 -10.32445 -10.32443 -10.32267 -10.32264
 Alpha  occ. eigenvalues --  -10.32253 -10.32176 -10.32170 -10.32114 -10.31945
 Alpha  occ. eigenvalues --  -10.31857 -10.31852 -10.31782 -10.31745 -10.31690
 Alpha  occ. eigenvalues --  -10.31648 -10.31615 -10.31511 -10.31460 -10.31389
 Alpha  occ. eigenvalues --  -10.31303 -10.31250 -10.31178 -10.31074 -10.31042
 Alpha  occ. eigenvalues --  -10.30892 -10.30671 -10.30669 -10.30659 -10.30599
 Alpha  occ. eigenvalues --  -10.30594 -10.30225 -10.30170 -10.30108 -10.30093
 Alpha  occ. eigenvalues --  -10.30015 -10.29627 -10.29513 -10.29183 -10.29044
 Alpha  occ. eigenvalues --  -10.28380  -3.23362  -3.21583  -1.96878  -1.96525
 Alpha  occ. eigenvalues --   -1.96272  -1.95159  -1.94721  -1.94544  -1.18084
 Alpha  occ. eigenvalues --   -1.17992  -1.14246  -1.11852  -1.11547  -1.10862
 Alpha  occ. eigenvalues --   -1.10264  -1.09059  -1.08602  -1.06690  -1.06211
 Alpha  occ. eigenvalues --   -1.05978  -1.05445  -1.04869  -1.04812  -1.03299
 Alpha  occ. eigenvalues --   -0.96407  -0.94424  -0.91609  -0.91033  -0.90625
 Alpha  occ. eigenvalues --   -0.90614  -0.90136  -0.89683  -0.89245  -0.89208
 Alpha  occ. eigenvalues --   -0.88938  -0.88790  -0.88526  -0.87507  -0.86695
 Alpha  occ. eigenvalues --   -0.86215  -0.85678  -0.85572  -0.84613  -0.84180
 Alpha  occ. eigenvalues --   -0.83747  -0.83557  -0.82830  -0.82809  -0.82284
 Alpha  occ. eigenvalues --   -0.82238  -0.80350  -0.79987  -0.79822  -0.79195
 Alpha  occ. eigenvalues --   -0.78803  -0.78719  -0.77965  -0.77873  -0.77447
 Alpha  occ. eigenvalues --   -0.77152  -0.74745  -0.74646  -0.74220  -0.73829
 Alpha  occ. eigenvalues --   -0.72386  -0.71838  -0.71331  -0.70720  -0.70138
 Alpha  occ. eigenvalues --   -0.69680  -0.69253  -0.68821  -0.68750  -0.67308
 Alpha  occ. eigenvalues --   -0.67307  -0.66916  -0.66864  -0.66696  -0.66551
 Alpha  occ. eigenvalues --   -0.66464  -0.64386  -0.64220  -0.62579  -0.61924
 Alpha  occ. eigenvalues --   -0.61766  -0.61571  -0.61271  -0.61188  -0.60863
 Alpha  occ. eigenvalues --   -0.60773  -0.60270  -0.59994  -0.59012  -0.58971
 Alpha  occ. eigenvalues --   -0.58586  -0.58110  -0.58097  -0.57937  -0.57649
 Alpha  occ. eigenvalues --   -0.57619  -0.56932  -0.56853  -0.56510  -0.56073
 Alpha  occ. eigenvalues --   -0.55638  -0.55549  -0.55299  -0.54975  -0.54932
 Alpha  occ. eigenvalues --   -0.54664  -0.54570  -0.54335  -0.54092  -0.53942
 Alpha  occ. eigenvalues --   -0.53892  -0.53613  -0.53609  -0.53333  -0.53248
 Alpha  occ. eigenvalues --   -0.53120  -0.53112  -0.52533  -0.52480  -0.52416
 Alpha  occ. eigenvalues --   -0.52172  -0.52087  -0.51901  -0.51849  -0.51662
 Alpha  occ. eigenvalues --   -0.51399  -0.51166  -0.51062  -0.50906  -0.50842
 Alpha  occ. eigenvalues --   -0.50604  -0.50424  -0.50242  -0.50178  -0.49706
 Alpha  occ. eigenvalues --   -0.49703  -0.49572  -0.49400  -0.49359  -0.49114
 Alpha  occ. eigenvalues --   -0.48887  -0.48774  -0.48742  -0.48208  -0.48164
 Alpha  occ. eigenvalues --   -0.48011  -0.47900  -0.47828  -0.47812  -0.47797
 Alpha  occ. eigenvalues --   -0.47681  -0.47362  -0.47330  -0.47231  -0.47085
 Alpha  occ. eigenvalues --   -0.47061  -0.46565  -0.46487  -0.46367  -0.46351
 Alpha  occ. eigenvalues --   -0.46250  -0.46135  -0.46024  -0.45939  -0.45799
 Alpha  occ. eigenvalues --   -0.45443  -0.45288  -0.45212  -0.45110  -0.44989
 Alpha  occ. eigenvalues --   -0.44878  -0.44522  -0.44345  -0.44082  -0.43970
 Alpha  occ. eigenvalues --   -0.43833  -0.43816  -0.43491  -0.43345  -0.43306
 Alpha  occ. eigenvalues --   -0.43111  -0.42962  -0.42872  -0.42665  -0.42327
 Alpha  occ. eigenvalues --   -0.41977  -0.41953  -0.41510  -0.41062  -0.40579
 Alpha  occ. eigenvalues --   -0.40499  -0.40226  -0.40176  -0.39881  -0.39629
 Alpha  occ. eigenvalues --   -0.39617  -0.38889  -0.38766  -0.38597  -0.38409
 Alpha  occ. eigenvalues --   -0.38315  -0.37720  -0.37180  -0.36974  -0.36225
 Alpha  occ. eigenvalues --   -0.35806  -0.35613  -0.35331  -0.33974  -0.33588
 Alpha  occ. eigenvalues --   -0.33532  -0.32982  -0.32792  -0.32712  -0.32141
 Alpha  occ. eigenvalues --   -0.32009  -0.31630  -0.31029  -0.26145  -0.25963
 Alpha  occ. eigenvalues --   -0.22985  -0.22832
 Alpha virt. eigenvalues --   -0.07115  -0.06881  -0.00728   0.00137   0.01854
 Alpha virt. eigenvalues --    0.02295   0.02929   0.04150   0.04316   0.05139
 Alpha virt. eigenvalues --    0.06851   0.06968   0.07571   0.08126   0.08413

 Mulliken charges:
               1
     1  Mg   0.966909
     2  C    0.016054
     3  C   -0.089298
     4  C   -0.073426
     5  C   -0.081654
     6  N   -0.340955
     7  C   -0.050158
     8  C   -0.024433
     9  C   -0.146468
    10  C    0.111103
    11  C    0.045258
    12  C    0.022904
    13  C   -0.129954
    14  H    0.028889
    15  N   -0.460544
    16  C    0.119066
    17  C   -0.139154
    18  C   -0.060672
    19  C    0.168614
    20  C    0.086608
    21  C    0.018635
    22  O   -0.211049
    23  C   -0.019587
    24  N   -0.295318
    25  C    0.031380
    26  C   -0.087960
    27  C   -0.051375
    28  C    0.005394
    29  C    0.018786
    30  C   -0.018464
    31  C   -0.065378
    32  N   -0.451087
    33  C    0.151162
    34  C   -0.200759
    35  C   -0.007520
    36  C    0.105990
    37  C    0.098577
    38  C    0.085779
    39  O   -0.226221
    40  C   -0.061185
    41  C    0.241332
    42  O   -0.258074
    43  O   -0.370116
    44  C    0.138487
    45  H    0.002871
    46  H   -0.045520
    47  H   -0.027252
    48  H    0.025995
    49  H    0.042455
    50  H    0.041617
    51  H    0.029811
    52  H    0.040815
    53  H    0.040690
    54  H    0.032345
    55  H    0.057550
    56  H    0.062918
    57  H    0.069831
    58  H    0.019232
    59  H    0.052874
    60  H    0.067209
    61  H    0.060679
    62  H    0.051526
    63  H    0.046690
    64  H    0.041949
    65  H    0.030586
    66  H    0.057219
    67  H    0.038729
    68  H    0.041069
    69  H    0.036550
    70  H    0.040106
    71  H    0.033027
    72  H    0.044197
    73  H    0.043270
    74  H    0.065007
    75  H    0.064729
    76  H    0.078458
    77  H    0.064888
    78  H    0.047290
    79  H    0.060469
    80  Mg   0.936462
    81  C    0.010719
    82  C   -0.075399
    83  C   -0.029902
    84  C   -0.064701
    85  N   -0.298238
    86  C   -0.021611
    87  C   -0.051854
    88  C   -0.134203
    89  C    0.044059
    90  C    0.038292
    91  C    0.033838
    92  C   -0.117089
    93  H    0.034905
    94  N   -0.490419
    95  C    0.145952
    96  C   -0.165550
    97  C   -0.025021
    98  C    0.111673
    99  C    0.096245
   100  C   -0.006987
   101  O   -0.246433
   102  C    0.014022
   103  N   -0.325659
   104  C    0.062996
   105  C   -0.098303
   106  C   -0.020456
   107  C    0.007640
   108  C    0.005955
   109  C   -0.047130
   110  C   -0.047933
   111  N   -0.422660
   112  C    0.106765
   113  C   -0.210724
   114  C   -0.023523
   115  C    0.161933
   116  C    0.090972
   117  C    0.075717
   118  O   -0.216288
   119  C   -0.054868
   120  C    0.276313
   121  O   -0.229403
   122  O   -0.374817
   123  C    0.144814
   124  H    0.004587
   125  H   -0.047378
   126  H   -0.000837
   127  H    0.012673
   128  H    0.029586
   129  H    0.042138
   130  H    0.047017
   131  H    0.028409
   132  H    0.032654
   133  H    0.056449
   134  H    0.045307
   135  H    0.046273
   136  H    0.058345
   137  H    0.061380
   138  H    0.009476
   139  H    0.040882
   140  H    0.071644
   141  H    0.046913
   142  H    0.050771
   143  H    0.037816
   144  H    0.052408
   145  H    0.033868
   146  H    0.031529
   147  H    0.040209
   148  H    0.030971
   149  H    0.035581
   150  H    0.046425
   151  H    0.060444
   152  H    0.072916
   153  H    0.067988
   154  H    0.038962
   155  H    0.061011
   156  H    0.058036
   157  H    0.041820
   158  H    0.053626
 Sum of Mulliken charges =  -0.00000

 Dipole moment (field-independent basis, Debye):
    X=              2.0330    Y=              5.3058    Z=             -6.1210  Tot=              8.3518
 Quadrupole moment (field-independent basis, Debye-Ang):
   XX=           -191.6079   YY=           -598.4055   ZZ=           -501.0162
   XY=            106.7585   XZ=             69.6003   YZ=              3.5151

 Normal termination of Gaussian 16 at Mon Sep 20 06:39:14 2021.
