 Gaussian 16, Revision A.03,
 Gaussian 16:  ES64L-G16RevA.03 25-Dec-2016

 --------------------------------
 #p wB97XD/Def2SVP td=(nstates=5)
 --------------------------------

 --------------------------------
 TDDFT excited states in gaussian
 --------------------------------
 Symbolic Z-matrix:
 Charge =  0 Multiplicity = 1

                         Standard orientation:
 ---------------------------------------------------------------------
 Center     Atomic      Atomic             Coordinates (Angstroms)
 Number     Number       Type             X           Y           Z
 ---------------------------------------------------------------------
      1         12           0      -21.347469   -0.873322   -0.238859
      2          6           0      -22.221196    2.536046    0.490078
      3          6           0      -18.139294    0.366770   -1.099477
      4          6           0      -20.326937   -4.091202   -1.133330
      5          6           0      -24.503513   -1.868941    0.217689
      6          7           0      -20.386590    1.335907   -0.476360
      7          6           0      -20.913060    2.487539   -0.007447
      8          6           0      -19.923206    3.677356   -0.277092
      9          6           0      -18.743982    2.913694   -0.979159
     10          6           0      -19.050253    1.411021   -0.783947
     11          6           0      -18.573510    3.331532   -2.481464
     12          6           0      -19.485110    4.402402    0.995169
     13          6           0      -19.466704    5.894461    0.931723
     14          1           0      -19.132376    6.684318    2.205398
     15          7           0      -19.492802   -1.785522   -0.797655
     16          6           0      -18.326213   -1.091677   -1.101435
     17          6           0      -17.301524   -2.060209   -1.437513
     18          6           0      -17.844545   -3.332154   -1.362314
     19          6           0      -19.316142   -3.110682   -1.160475
     20          6           0      -15.927685   -1.714011   -1.935332
     21          6           0      -17.209305   -4.755505   -1.641514
     22          8           0      -17.747594   -5.832260   -1.558102
     23          6           0      -15.718726   -4.845960   -1.886945
     24          7           0      -22.252654   -2.652072   -0.580562
     25          6           0      -21.707113   -3.859167   -0.932265
     26          6           0      -22.787863   -4.926335   -1.223785
     27          6           0      -24.084083   -4.296042   -0.557515
     28          6           0      -23.563835   -2.838897   -0.256310
     29          6           0      -22.912121   -5.271181   -2.742403
     30          6           0      -24.579819   -5.036685    0.721672
     31          6           0      -23.664961   -4.937770    1.940303
     32          7           0      -23.032729    0.050449    0.212233
     33          6           0      -24.322634   -0.500645    0.450422
     34          6           0      -25.270749    0.550059    0.814179
     35          6           0      -24.481760    1.711948    0.889095
     36          6           0      -23.146189    1.382467    0.536651
     37          6           0      -26.689349    0.367665    1.097585
     38          6           0      -24.583647    3.137175    1.185820
     39          8           0      -25.541597    3.781029    1.579858
     40          6           0      -23.127277    3.770400    0.853307
     41          6           0      -22.847995    4.478408    2.181245
     42          8           0      -22.558779    3.973001    3.280811
     43          8           0      -23.025277    5.777606    2.015567
     44          6           0      -22.540532    6.736563    3.089507
     45          1           0      -17.135075    0.750254   -1.290083
     46          1           0      -20.102562   -5.126627   -1.401204
     47          1           0      -25.495968   -2.275214    0.422233
     48          1           0      -20.511272    4.385266   -0.860198
     49          1           0      -17.794789    3.081725   -0.468572
     50          1           0      -17.583965    3.686650   -2.769199
     51          1           0      -19.366754    3.979184   -2.855321
     52          1           0      -18.611935    2.522992   -3.211801
     53          1           0      -18.405724    4.255160    0.954445
     54          1           0      -19.911364    3.973835    1.902891
     55          1           0      -20.319656    6.432726    0.515224
     56          1           0      -18.645630    6.097175    0.243998
     57          1           0      -15.728976   -0.646565   -1.843058
     58          1           0      -15.725934   -1.990660   -2.971327
     59          1           0      -15.100281   -2.163733   -1.386222
     60          1           0      -15.135772   -4.469160   -1.046607
     61          1           0      -15.617566   -4.273356   -2.808949
     62          1           0      -15.578061   -5.889513   -2.168625
     63          1           0      -22.383083   -5.831166   -0.769060
     64          1           0      -24.898487   -4.005211   -1.221407
     65          1           0      -22.568569   -6.279355   -2.973901
     66          1           0      -22.486197   -4.575764   -3.464800
     67          1           0      -23.989445   -5.183269   -2.884078
     68          1           0      -24.944587   -6.015558    0.410146
     69          1           0      -25.500384   -4.548008    1.040369
     70          1           0      -22.701767   -4.456383    1.775074
     71          1           0      -23.458470   -5.967244    2.231899
     72          1           0      -24.026765   -4.311602    2.755037
     73          1           0      -27.231590    1.280704    1.344251
     74          1           0      -26.720899   -0.328470    1.935645
     75          1           0      -27.134664   -0.127247    0.233368
     76          1           0      -23.183990    4.580217    0.125950
     77          1           0      -22.492909    7.714446    2.609857
     78          1           0      -21.523962    6.525019    3.419679
     79          1           0      -23.158647    6.731662    3.988040
     80         12           0       22.170151    0.381684    0.356705
     81          6           0       18.848206    1.519962    0.044331
     82          6           0       21.190483   -1.320638    3.140500
     83          6           0       25.140487   -1.303862    0.224459
     84          6           0       22.740522    1.837019   -2.845902
     85          7           0       20.165130    0.015244    1.399505
     86          6           0       18.980790    0.672207    1.225754
     87          6           0       17.880238    0.148308    2.164476
     88          6           0       18.851525   -0.437144    3.303058
     89          6           0       20.162132   -0.591821    2.572321
     90          6           0       19.011814    0.444460    4.570580
     91          6           0       16.964964   -0.998395    1.539398
     92          6           0       15.567437   -1.211638    2.100248
     93          1           0       15.190853   -2.468300    2.913581
     94          7           0       23.150240   -1.127486    1.533745
     95          6           0       22.600235   -1.564535    2.703660
     96          6           0       23.513857   -2.325257    3.435175
     97          6           0       24.716716   -2.334295    2.633160
     98          6           0       24.394317   -1.601806    1.375993
     99          6           0       23.240232   -2.952856    4.796665
    100          6           0       25.987483   -3.020434    3.080860
    101          8           0       26.018800   -3.602997    4.195469
    102          6           0       27.336534   -2.962375    2.281228
    103          7           0       23.653646    0.324950   -1.101235
    104          6           0       24.834300   -0.440476   -0.901252
    105          6           0       25.883570   -0.034255   -1.898406
    106          6           0       25.090401    0.652761   -3.031169
    107          6           0       23.776055    1.044130   -2.294843
    108          6           0       27.010533    0.935819   -1.477336
    109          6           0       24.761660   -0.357338   -4.252527
    110          6           0       25.818200   -0.565972   -5.326974
    111          7           0       21.058132    1.618406   -1.010224
    112          6           0       21.422166    2.131243   -2.246225
    113          6           0       20.373794    2.798202   -2.851576
    114          6           0       19.307430    2.639721   -1.949931
    115          6           0       19.776927    1.891102   -0.857495
    116          6           0       20.443996    3.500094   -4.171012
    117          6           0       18.020290    3.017392   -1.687138
    118          8           0       17.298492    3.800701   -2.272142
    119          6           0       17.599616    2.097711   -0.521530
    120          6           0       16.657106    1.105521   -1.134730
    121          8           0       16.940654    0.388070   -2.042992
    122          8           0       15.397557    1.206135   -0.541219
    123          6           0       14.425129    0.405443   -1.200195
    124          1           0       20.980145   -1.709622    4.139190
    125          1           0       26.176028   -1.651692    0.230130
    126          1           0       23.032118    2.370715   -3.752625
    127          1           0       17.325206    0.952768    2.645899
    128          1           0       18.400527   -1.370450    3.639021
    129          1           0       18.315731   -0.021127    5.268855
    130          1           0       18.692815    1.472982    4.402233
    131          1           0       20.020924    0.381926    4.978202
    132          1           0       17.436746   -1.972618    1.667857
    133          1           0       16.953170   -0.828286    0.462598
    134          1           0       14.923378   -1.159636    1.221220
    135          1           0       15.330672   -0.340126    2.710373
    136          1           0       24.036793   -2.999929    5.539970
    137          1           0       22.878798   -3.919405    4.446371
    138          1           0       22.500495   -2.361154    5.335946
    139          1           0       27.677974   -1.929303    2.221658
    140          1           0       27.054710   -3.399799    1.323652
    141          1           0       28.128240   -3.627987    2.624867
    142          1           0       26.301088   -0.959276   -2.294718
    143          1           0       25.609436    1.524247   -3.430355
    144          1           0       26.979426    1.916380   -1.952020
    145          1           0       27.951341    0.407417   -1.321758
    146          1           0       26.762609    1.185081   -0.445712
    147          1           0       23.874783    0.128399   -4.658980
    148          1           0       24.494061   -1.345161   -3.876955
    149          1           0       25.996214   -1.633985   -5.449580
    150          1           0       26.743992   -0.079053   -5.019255
    151          1           0       25.477003   -0.201041   -6.296089
    152          1           0       19.586769    3.145931   -4.742845
    153          1           0       21.324614    3.219905   -4.750352
    154          1           0       20.369336    4.583828   -4.079660
    155          1           0       17.081627    2.707800    0.217654
    156          1           0       13.915893    0.999417   -1.958633
    157          1           0       13.586365    0.126664   -0.561205
    158          1           0       14.861472   -0.471150   -1.675988
 ---------------------------------------------------------------------

 SCF Done:  E(RwB97XD) =  -4070.57056417     A.U. after   17 cycles

 Excitation energies and oscillator strengths:

 Excited State   1:      Singlet-A      1.5889 eV  780.33 nm  f=0.3734  <S**2>=0.000
     310 -> 316        0.18991
     312 -> 314        0.68305
     310 <- 316        0.12270
 This state for optimization and/or second-order correction.
 Total Energy, E(TD-HF/TD-DFT) =  -4070.51217458
 Copying the excited state density for this state as the 1-particle RhoCI density.

 Excited State   2:      Singlet-A      1.6461 eV  753.18 nm  f=0.3972  <S**2>=0.000
     309 -> 315        0.19122
     311 -> 313        0.68052
     309 <- 315        0.11798

 Excited State   3:      Singlet-A      2.0912 eV  592.88 nm  f=0.1262  <S**2>=0.000
     309 -> 313        0.64853
     311 -> 315       -0.26305

 Excited State   4:      Singlet-A      2.1588 eV  574.31 nm  f=0.0892  <S**2>=0.000
     310 -> 314        0.62442
     312 -> 316       -0.32206

 Excited State   5:      Singlet-A      3.1708 eV  391.02 nm  f=0.0098  <S**2>=0.000
     307 -> 313       -0.26185
     308 -> 313        0.60978
     308 -> 317        0.13691

 The electronic state is 1-A.
 Alpha  occ. eigenvalues --  -46.96682 -46.94615 -19.30664 -19.30130 -19.25876
 Alpha  occ. eigenvalues --  -19.24528 -19.24391 -19.23196 -19.22956 -19.22952
 Alpha  occ. eigenvalues --  -14.47809 -14.47300 -14.47059 -14.46124 -14.44719
 Alpha  occ. eigenvalues --  -14.44434 -14.44286 -14.43846 -10.43591 -10.42310
 Alpha  occ. eigenvalues --  -10.39564 -10.39407 -10.39048 -10.37384 -10.36501
 Alpha  occ. eigenvalues --  -10.36395 -10.35971 -10.35717 -10.35455 -10.35371
 Alpha  occ. eigenvalues --  -10.35256 -10.35124 -10.35118 -10.35021 -10.34778
 Alpha  occ. eigenvalues --  -10.34757 -10.34685 -10.34315 -10.34019 -10.34007
 Alpha  occ. eigenvalues --  -10.33929 -10.33352 -10.33114 -10.32921 -10.32884
 Alpha  occ. eigenvalues --  -10.32716 -10.32648 -10.32502 -10.32492 -10.32465
 Alpha  occ. eigenvalues --  -10.32456 -10.32401 -10.32401 -10.32397 -10.32385
 Alpha  occ. eigenvalues --  -10.32221 -10.32137 -10.32120 -10.32064 -10.31929
 Alpha  occ. eigenvalues --  -10.31893 -10.31739 -10.31677 -10.31641 -10.31558
 Alpha  occ. eigenvalues --  -10.31527 -10.31335 -10.31328 -10.30838 -10.30757
 Alpha  occ. eigenvalues --  -10.30668 -10.30500 -10.30457 -10.30375 -10.30257
 Alpha  occ. eigenvalues --  -10.30078 -10.30011 -10.29991 -10.29912 -10.29867
 Alpha  occ. eigenvalues --  -10.29821 -10.29590 -10.29490 -10.29449 -10.29202
 Alpha  occ. eigenvalues --  -10.28222  -3.22452  -3.20744  -1.96033  -1.95562
 Alpha  occ. eigenvalues --   -1.95410  -1.94321  -1.93884  -1.93717  -1.19832
 Alpha  occ. eigenvalues --   -1.18116  -1.13672  -1.12294  -1.12259  -1.11773
 Alpha  occ. eigenvalues --   -1.09556  -1.07808  -1.07461  -1.06743  -1.06008
 Alpha  occ. eigenvalues --   -1.05769  -1.05110  -1.04251  -1.03934  -1.03732
 Alpha  occ. eigenvalues --   -0.96403  -0.92809  -0.91086  -0.90896  -0.90663
 Alpha  occ. eigenvalues --   -0.90595  -0.90588  -0.89920  -0.89554  -0.89288
 Alpha  occ. eigenvalues --   -0.89058  -0.88884  -0.88386  -0.87895  -0.86331
 Alpha  occ. eigenvalues --   -0.86027  -0.85561  -0.85454  -0.84865  -0.84257
 Alpha  occ. eigenvalues --   -0.83847  -0.83429  -0.82960  -0.82682  -0.82331
 Alpha  occ. eigenvalues --   -0.82119  -0.80092  -0.80049  -0.79338  -0.79203
 Alpha  occ. eigenvalues --   -0.78925  -0.78869  -0.77937  -0.77885  -0.77677
 Alpha  occ. eigenvalues --   -0.77055  -0.75638  -0.74570  -0.74271  -0.73613
 Alpha  occ. eigenvalues --   -0.71959  -0.71507  -0.70719  -0.70446  -0.70422
 Alpha  occ. eigenvalues --   -0.69487  -0.69194  -0.68284  -0.68244  -0.67414
 Alpha  occ. eigenvalues --   -0.67354  -0.67055  -0.66741  -0.66586  -0.66268
 Alpha  occ. eigenvalues --   -0.66062  -0.64839  -0.63764  -0.62535  -0.62190
 Alpha  occ. eigenvalues --   -0.61616  -0.61590  -0.61281  -0.61220  -0.61062
 Alpha  occ. eigenvalues --   -0.60905  -0.60116  -0.59698  -0.59356  -0.58525
 Alpha  occ. eigenvalues --   -0.58177  -0.57725  -0.57631  -0.57402  -0.57315
 Alpha  occ. eigenvalues --   -0.57107  -0.57030  -0.56572  -0.55883  -0.55839
 Alpha  occ. eigenvalues --   -0.55539  -0.55266  -0.55152  -0.55140  -0.54822
 Alpha  occ. eigenvalues --   -0.54766  -0.54637  -0.54556  -0.54319  -0.54247
 Alpha  occ. eigenvalues --   -0.54045  -0.53815  -0.53449  -0.53387  -0.53181
 Alpha  occ. eigenvalues --   -0.52889  -0.52828  -0.52820  -0.52576  -0.52097
 Alpha  occ. eigenvalues --   -0.52049  -0.51811  -0.51735  -0.51694  -0.51547
 Alpha  occ. eigenvalues --   -0.51366  -0.51205  -0.51151  -0.50963  -0.50898
 Alpha  occ. eigenvalues --   -0.50770  -0.50553  -0.50446  -0.50353  -0.50062
 Alpha  occ. eigenvalues --   -0.49901  -0.49432  -0.49351  -0.49308  -0.49185
 Alpha  occ. eigenvalues --   -0.48995  -0.48663  -0.48574  -0.48569  -0.48374
 Alpha  occ. eigenvalues --   -0.48286  -0.48279  -0.48110  -0.48001  -0.47752
 Alpha  occ. eigenvalues --   -0.47736  -0.47417  -0.47266  -0.47198  -0.47033
 Alpha  occ. eigenvalues --   -0.46821  -0.46696  -0.46543  -0.46325  -0.46056
 Alpha  occ. eigenvalues --   -0.45880  -0.45848  -0.45746  -0.45583  -0.45454
 Alpha  occ. eigenvalues --   -0.45316  -0.45201  -0.45055  -0.44943  -0.44926
 Alpha  occ. eigenvalues --   -0.44892  -0.44585  -0.44498  -0.44470  -0.44185
 Alpha  occ. eigenvalues --   -0.44049  -0.43770  -0.43480  -0.43321  -0.43289
 Alpha  occ. eigenvalues --   -0.43204  -0.42945  -0.42817  -0.42422  -0.42258
 Alpha  occ. eigenvalues --   -0.42231  -0.42096  -0.41455  -0.41390  -0.41072
 Alpha  occ. eigenvalues --   -0.40520  -0.40469  -0.39965  -0.39852  -0.39609
 Alpha  occ. eigenvalues --   -0.39531  -0.39165  -0.38930  -0.38701  -0.38663
 Alpha  occ. eigenvalues --   -0.38023  -0.37639  -0.37523  -0.37090  -0.35889
 Alpha  occ. eigenvalues --   -0.35701  -0.35327  -0.34701  -0.33685  -0.33590
 Alpha  occ. eigenvalues --   -0.32977  -0.32794  -0.32498  -0.32492  -0.32187
 Alpha  occ. eigenvalues --   -0.32139  -0.32009  -0.31666  -0.26265  -0.26012
 Alpha  occ. eigenvalues --   -0.23867  -0.22745
 Alpha virt. eigenvalues --   -0.07983  -0.07052  -0.00611  -0.00114   0.01976
 Alpha virt. eigenvalues --    0.02718   0.04494   0.04535   0.04668   0.06520
 Alpha virt. eigenvalues --    0.06722   0.07409   0.07606   0.07960   0.07986

 Mulliken charges:
               1
     1  Mg   0.987996
     2  C    0.030615
     3  C   -0.071674
     4  C   -0.057241
     5  C   -0.104957
     6  N   -0.311517
     7  C   -0.008486
     8  C   -0.088492
     9  C   -0.082917
    10  C    0.047573
    11  C    0.016116
    12  C    0.051493
    13  C   -0.150382
    14  H    0.031595
    15  N   -0.450361
    16  C    0.180662
    17  C   -0.160794
    18  C   -0.081934
    19  C    0.134173
    20  C    0.055166
    21  C    0.057083
    22  O   -0.216005
    23  C   -0.009575
    24  N   -0.398637
    25  C    0.036536
    26  C   -0.083136
    27  C   -0.076523
    28  C    0.060794
    29  C    0.027330
    30  C   -0.006029
    31  C   -0.051472
    32  N   -0.527147
    33  C    0.158616
    34  C   -0.163628
    35  C   -0.041753
    36  C    0.162011
    37  C    0.081435
    38  C    0.128512
    39  O   -0.198781
    40  C   -0.130062
    41  C    0.252274
    42  O   -0.286983
    43  O   -0.341699
    44  C    0.147844
    45  H   -0.001371
    46  H    0.022927
    47  H   -0.006065
    48  H    0.039132
    49  H    0.035207
    50  H    0.033091
    51  H    0.038321
    52  H    0.025664
    53  H    0.023413
    54  H    0.069085
    55  H    0.048352
    56  H    0.037585
    57  H    0.022370
    58  H    0.055804
    59  H    0.037842
    60  H    0.076543
    61  H    0.035104
    62  H    0.053207
    63  H    0.040829
    64  H    0.042990
    65  H    0.048277
    66  H    0.047199
    67  H    0.024254
    68  H    0.039496
    69  H    0.022292
    70  H    0.040670
    71  H    0.045459
    72  H    0.042420
    73  H    0.065299
    74  H    0.051803
    75  H    0.044437
    76  H    0.067557
    77  H    0.057684
    78  H    0.052476
    79  H    0.073008
    80  Mg   0.948381
    81  C    0.000596
    82  C   -0.064867
    83  C   -0.087332
    84  C   -0.085812
    85  N   -0.297842
    86  C   -0.038169
    87  C   -0.036511
    88  C   -0.151901
    89  C    0.082414
    90  C    0.029904
    91  C   -0.001049
    92  C   -0.097751
    93  H    0.043787
    94  N   -0.425878
    95  C    0.122626
    96  C   -0.157782
    97  C   -0.085155
    98  C    0.168988
    99  C    0.086341
   100  C    0.032091
   101  O   -0.271678
   102  C   -0.011448
   103  N   -0.428236
   104  C    0.087111
   105  C   -0.092016
   106  C   -0.113452
   107  C    0.082482
   108  C    0.055264
   109  C   -0.033215
   110  C   -0.022704
   111  N   -0.388456
   112  C    0.120894
   113  C   -0.174864
   114  C    0.038967
   115  C    0.121311
   116  C    0.098382
   117  C    0.025941
   118  O   -0.206407
   119  C   -0.074637
   120  C    0.254254
   121  O   -0.209785
   122  O   -0.358126
   123  C    0.118724
   124  H   -0.004350
   125  H   -0.015882
   126  H    0.009995
   127  H    0.028193
   128  H    0.041459
   129  H    0.039142
   130  H    0.042959
   131  H    0.043411
   132  H    0.044058
   133  H    0.047712
   134  H    0.049622
   135  H    0.043083
   136  H    0.069620
   137  H    0.065484
   138  H    0.029183
   139  H    0.067722
   140  H    0.050356
   141  H    0.051477
   142  H    0.031776
   143  H    0.027939
   144  H    0.049162
   145  H    0.044416
   146  H    0.015818
   147  H    0.024896
   148  H    0.036995
   149  H    0.036034
   150  H    0.032869
   151  H    0.043084
   152  H    0.055702
   153  H    0.023770
   154  H    0.063701
   155  H    0.047893
   156  H    0.048888
   157  H    0.048395
   158  H    0.062028
 Sum of Mulliken charges =  -0.00000

 Dipole moment (field-independent basis, Debye):
    X=              4.4129    Y=              0.2052    Z=             -3.0836  Tot=              5.3875
 Quadrupole moment (field-independent basis, Debye-Ang):
   XX=           -529.9918   YY=           -522.4615   ZZ=           -515.8779
   XY=             69.4193   XZ=             32.6145   YZ=              9.7774

 Normal termination of Gaussian 16 at Sun Sep 19 09:07:05 2021.
