 Gaussian 16, Revision A.03,
 Gaussian 16:  ES64L-G16RevA.03 25-Dec-2016

 --------------------------------
 #p wB97XD/Def2SVP td=(nstates=5)
 --------------------------------

 --------------------------------
 TDDFT excited states in gaussian
 --------------------------------
 Symbolic Z-matrix:
 Charge =  0 Multiplicity = 1

                         Standard orientation:
 ---------------------------------------------------------------------
 Center     Atomic      Atomic             Coordinates (Angstroms)
 Number     Number       Type             X           Y           Z
 ---------------------------------------------------------------------
      1         12           0       -9.268135    0.641802    0.068775
      2          6           0       -7.199439   -1.900448    1.124116
      3          6           0       -7.259935    2.863244    1.710913
      4          6           0      -10.465601    2.981096   -1.932848
      5          6           0      -11.196256   -1.774501   -1.595951
      6          7           0       -7.176431    0.468723    0.881103
      7          6           0       -6.666859   -0.669235    1.419062
      8          6           0       -5.470056   -0.415496    2.287218
      9          6           0       -5.795004    1.034209    2.772819
     10          6           0       -6.863315    1.472208    1.781878
     11          6           0       -6.210386    1.096697    4.270672
     12          6           0       -4.092152   -0.463766    1.454757
     13          6           0       -2.834738   -1.058612    2.243149
     14          1           0       -1.775727    0.014097    2.305028
     15          7           0       -9.044402    2.677261    0.058852
     16          6           0       -8.138417    3.435182    0.714828
     17          6           0       -8.271848    4.837299    0.340058
     18          6           0       -9.226135    4.887794   -0.696770
     19          6           0       -9.616992    3.464139   -0.897558
     20          6           0       -7.395978    5.930031    0.999651
     21          6           0       -9.499493    6.132288   -1.494516
     22          8           0       -8.948494    7.160058   -1.197311
     23          6           0      -10.417261    6.196640   -2.730297
     24          7           0      -10.758511    0.670041   -1.487744
     25          6           0      -11.034945    1.716358   -2.130099
     26          6           0      -11.938003    1.480778   -3.283916
     27          6           0      -12.209013   -0.072263   -3.191359
     28          6           0      -11.361093   -0.434045   -2.050355
     29          6           0      -13.188034    2.423465   -3.244155
     30          6           0      -11.793411   -0.835830   -4.532968
     31          6           0      -12.399612   -2.264623   -4.770435
     32          7           0       -9.309069   -1.409695   -0.152727
     33          6           0      -10.216814   -2.248662   -0.773244
     34          6           0       -9.922617   -3.622469   -0.473138
     35          6           0       -8.736820   -3.536744    0.337336
     36          6           0       -8.365299   -2.207706    0.402408
     37          6           0      -10.677897   -4.838016   -0.904818
     38          6           0       -7.806240   -4.314146    1.080525
     39          8           0       -7.654175   -5.522342    1.302313
     40          6           0       -6.665654   -3.312027    1.458472
     41          6           0       -6.324079   -3.574385    2.887345
     42          8           0       -5.416286   -4.325086    3.271493
     43          8           0       -7.198044   -2.908489    3.701641
     44          6           0       -6.871152   -3.221331    5.121196
     45          1           0       -6.773503    3.640485    2.304623
     46          1           0      -10.797838    3.764941   -2.615891
     47          1           0      -11.710269   -2.511783   -2.217384
     48          1           0       -5.580467   -1.131900    3.100288
     49          1           0       -4.890894    1.640080    2.710538
     50          1           0       -5.471042    1.674060    4.825008
     51          1           0       -6.152174    0.080093    4.660928
     52          1           0       -7.229458    1.480033    4.311506
     53          1           0       -3.791225    0.462701    0.965906
     54          1           0       -4.203870   -1.099891    0.577301
     55          1           0       -2.465076   -1.850114    1.591076
     56          1           0       -2.980087   -1.540274    3.210159
     57          1           0       -6.777170    6.502091    0.308430
     58          1           0       -6.761969    5.563854    1.807910
     59          1           0       -8.075992    6.603359    1.520421
     60          1           0      -11.460864    5.981408   -2.503139
     61          1           0      -10.087461    5.564059   -3.554801
     62          1           0      -10.240815    7.188299   -3.148039
     63          1           0      -11.302984    1.695003   -4.143440
     64          1           0      -13.201004   -0.408981   -2.891191
     65          1           0      -13.175399    3.001523   -4.167903
     66          1           0      -13.177870    3.076806   -2.371535
     67          1           0      -14.139392    1.908535   -3.376912
     68          1           0      -10.709667   -0.944653   -4.579916
     69          1           0      -12.093876   -0.172000   -5.342295
     70          1           0      -13.017345   -2.476381   -5.642739
     71          1           0      -13.068042   -2.535856   -3.954429
     72          1           0      -11.605106   -3.010398   -4.797052
     73          1           0      -11.641115   -4.670065   -1.386192
     74          1           0      -10.765063   -5.338168    0.058887
     75          1           0       -9.907198   -5.334491   -1.494567
     76          1           0       -5.774797   -3.389928    0.834335
     77          1           0       -7.124164   -4.260547    5.328802
     78          1           0       -7.527346   -2.711942    5.826945
     79          1           0       -5.823267   -2.966485    5.280969
     80         12           0        9.285644    0.170516   -0.150662
     81          6           0        6.594212   -1.910321    0.363071
     82          6           0        7.591660    2.641227    1.661683
     83          6           0       11.842334    2.308330   -0.686827
     84          6           0       10.700910   -2.130982   -2.204288
     85          7           0        7.170192    0.402373    0.670959
     86          6           0        6.356086   -0.700366    0.958116
     87          6           0        5.256265   -0.357187    1.982241
     88          6           0        5.583681    1.155518    2.263617
     89          6           0        6.882230    1.455477    1.546134
     90          6           0        4.461513    2.097602    1.846290
     91          6           0        5.140459   -1.194755    3.304787
     92          6           0        3.817874   -2.120704    3.481056
     93          1           0        3.024450   -1.722876    4.729539
     94          7           0        9.628334    2.182235    0.301541
     95          6           0        8.864116    2.979366    1.169008
     96          6           0        9.573259    4.212938    1.524534
     97          6           0       10.863579    4.210198    0.763277
     98          6           0       10.881842    2.837741    0.116385
     99          6           0        9.000458    5.256983    2.457503
    100          6           0       11.923238    5.202645    0.657133
    101          8           0       12.866732    5.013828   -0.124813
    102          6           0       11.905971    6.517910    1.416141
    103          7           0       10.911878    0.097440   -1.322032
    104          6           0       11.945257    1.052458   -1.305888
    105          6           0       13.251025    0.638432   -2.097468
    106          6           0       12.789563   -0.826101   -2.598191
    107          6           0       11.378744   -0.965048   -1.982777
    108          6           0       13.647518    1.631326   -3.298384
    109          6           0       13.784712   -1.940967   -2.125308
    110          6           0       14.072656   -3.069384   -3.065374
    111          7           0        8.683861   -1.644792   -0.879263
    112          6           0        9.413078   -2.518823   -1.690584
    113          6           0        8.763716   -3.781078   -1.790866
    114          6           0        7.651227   -3.612481   -0.885914
    115          6           0        7.643362   -2.281447   -0.449967
    116          6           0        9.144527   -5.016742   -2.492386
    117          6           0        6.462382   -4.247767   -0.410148
    118          8           0        5.969525   -5.375874   -0.519998
    119          6           0        5.646067   -3.085148    0.317124
    120          6           0        4.375080   -2.859838   -0.420946
    121          8           0        4.123482   -2.029105   -1.202411
    122          8           0        3.393454   -3.737531    0.033259
    123          6           0        2.031441   -3.277602   -0.141458
    124          1           0        7.096384    3.374248    2.301916
    125          1           0       12.756320    2.874125   -0.878740
    126          1           0       11.221930   -2.927275   -2.739856
    127          1           0        4.290183   -0.401701    1.480597
    128          1           0        5.671144    1.357783    3.331471
    129          1           0        4.815250    2.719873    1.024685
    130          1           0        4.315993    2.703328    2.739914
    131          1           0        3.504217    1.627035    1.623120
    132          1           0        5.186634   -0.499839    4.143647
    133          1           0        5.963467   -1.903555    3.397291
    134          1           0        4.252705   -3.103314    3.664937
    135          1           0        3.191190   -2.062296    2.591416
    136          1           0        8.211114    5.767646    1.904518
    137          1           0        9.795388    5.959531    2.702965
    138          1           0        8.491627    4.833555    3.323739
    139          1           0       12.620544    7.159554    0.900195
    140          1           0       12.146005    6.418715    2.475262
    141          1           0       11.014191    7.137429    1.323212
    142          1           0       14.070501    0.476847   -1.397898
    143          1           0       12.768855   -0.956467   -3.680409
    144          1           0       14.008303    1.031405   -4.134126
    145          1           0       14.499472    2.288849   -3.129680
    146          1           0       12.818271    2.259954   -3.623458
    147          1           0       13.531998   -2.378663   -1.159704
    148          1           0       14.795727   -1.561697   -1.977881
    149          1           0       13.630769   -3.942749   -2.585982
    150          1           0       15.090030   -3.440443   -3.189373
    151          1           0       13.596391   -2.878080   -4.027530
    152          1           0       10.231174   -5.040563   -2.578922
    153          1           0        8.712151   -4.898654   -3.485895
    154          1           0        8.630875   -5.855871   -2.022828
    155          1           0        5.408653   -3.379022    1.339253
    156          1           0        1.837353   -3.437826   -1.201458
    157          1           0        2.052284   -2.211283    0.082982
    158          1           0        1.330389   -3.863072    0.454085
 ---------------------------------------------------------------------

 SCF Done:  E(RwB97XD) =  -4070.58584459     A.U. after   19 cycles

 Excitation energies and oscillator strengths:

 Excited State   1:      Singlet-A      1.6197 eV  765.47 nm  f=0.2932  <S**2>=0.000
     309 -> 315        0.16029
     311 -> 313        0.67845
     312 -> 314       -0.10287
     309 <- 315        0.10444
 This state for optimization and/or second-order correction.
 Total Energy, E(TD-HF/TD-DFT) =  -4070.52632136
 Copying the excited state density for this state as the 1-particle RhoCI density.

 Excited State   2:      Singlet-A      1.6572 eV  748.14 nm  f=0.4562  <S**2>=0.000
     310 -> 316        0.16617
     311 -> 313        0.10225
     312 -> 314        0.67788
     310 <- 316        0.10780

 Excited State   3:      Singlet-A      2.1339 eV  581.02 nm  f=0.1348  <S**2>=0.000
     309 -> 313        0.64128
     311 -> 315       -0.25894

 Excited State   4:      Singlet-A      2.1687 eV  571.69 nm  f=0.1008  <S**2>=0.000
     310 -> 314        0.63626
     312 -> 316       -0.28210

 Excited State   5:      Singlet-A      3.4300 eV  361.47 nm  f=0.0000  <S**2>=0.000
     312 -> 313        0.70679

 The electronic state is 1-A.
 Alpha  occ. eigenvalues --  -46.95580 -46.94213 -19.30756 -19.27155 -19.24611
 Alpha  occ. eigenvalues --  -19.24263 -19.23996 -19.23870 -19.22883 -19.22835
 Alpha  occ. eigenvalues --  -14.47098 -14.46687 -14.46520 -14.46517 -14.44975
 Alpha  occ. eigenvalues --  -14.44860 -14.43145 -14.43045 -10.42509 -10.41712
 Alpha  occ. eigenvalues --  -10.39800 -10.39272 -10.38054 -10.38018 -10.36470
 Alpha  occ. eigenvalues --  -10.35880 -10.35829 -10.35465 -10.35253 -10.35168
 Alpha  occ. eigenvalues --  -10.35075 -10.35058 -10.34690 -10.34648 -10.34646
 Alpha  occ. eigenvalues --  -10.34172 -10.34142 -10.34058 -10.33953 -10.33657
 Alpha  occ. eigenvalues --  -10.33321 -10.33245 -10.33163 -10.32914 -10.32657
 Alpha  occ. eigenvalues --  -10.32432 -10.32273 -10.32260 -10.32232 -10.32190
 Alpha  occ. eigenvalues --  -10.32163 -10.32122 -10.31912 -10.31862 -10.31800
 Alpha  occ. eigenvalues --  -10.31787 -10.31715 -10.31704 -10.31553 -10.31516
 Alpha  occ. eigenvalues --  -10.31487 -10.31485 -10.31310 -10.31284 -10.31278
 Alpha  occ. eigenvalues --  -10.31259 -10.31028 -10.30882 -10.30687 -10.30661
 Alpha  occ. eigenvalues --  -10.30627 -10.30593 -10.30486 -10.30414 -10.30308
 Alpha  occ. eigenvalues --  -10.30296 -10.30155 -10.30074 -10.30032 -10.29996
 Alpha  occ. eigenvalues --  -10.29786 -10.29702 -10.29668 -10.29069 -10.28384
 Alpha  occ. eigenvalues --  -10.28382  -3.21591  -3.20382  -1.95167  -1.94730
 Alpha  occ. eigenvalues --   -1.94552  -1.93946  -1.93520  -1.93376  -1.18686
 Alpha  occ. eigenvalues --   -1.18100  -1.14253  -1.11748  -1.10260  -1.10161
 Alpha  occ. eigenvalues --   -1.09697  -1.09058  -1.08616  -1.06699  -1.06529
 Alpha  occ. eigenvalues --   -1.05993  -1.05358  -1.04821  -1.03969  -1.02613
 Alpha  occ. eigenvalues --   -0.94433  -0.94422  -0.91603  -0.91021  -0.90611
 Alpha  occ. eigenvalues --   -0.90410  -0.90287  -0.90191  -0.89260  -0.89178
 Alpha  occ. eigenvalues --   -0.89043  -0.88948  -0.88573  -0.88525  -0.86240
 Alpha  occ. eigenvalues --   -0.86044  -0.85674  -0.85264  -0.84239  -0.84191
 Alpha  occ. eigenvalues --   -0.83784  -0.83748  -0.82852  -0.82662  -0.82302
 Alpha  occ. eigenvalues --   -0.82054  -0.80687  -0.80346  -0.79832  -0.79230
 Alpha  occ. eigenvalues --   -0.78771  -0.78482  -0.77887  -0.77470  -0.77110
 Alpha  occ. eigenvalues --   -0.76986  -0.74962  -0.74653  -0.74234  -0.73576
 Alpha  occ. eigenvalues --   -0.72368  -0.71352  -0.71255  -0.70512  -0.70154
 Alpha  occ. eigenvalues --   -0.69774  -0.69758  -0.69437  -0.68745  -0.67509
 Alpha  occ. eigenvalues --   -0.67345  -0.67131  -0.66910  -0.66877  -0.66476
 Alpha  occ. eigenvalues --   -0.65778  -0.64399  -0.62665  -0.62585  -0.62134
 Alpha  occ. eigenvalues --   -0.61588  -0.61226  -0.61205  -0.60896  -0.60783
 Alpha  occ. eigenvalues --   -0.60327  -0.60122  -0.59999  -0.59528  -0.58977
 Alpha  occ. eigenvalues --   -0.58597  -0.58423  -0.58113  -0.57662  -0.57380
 Alpha  occ. eigenvalues --   -0.57115  -0.56943  -0.56083  -0.55738  -0.55581
 Alpha  occ. eigenvalues --   -0.55435  -0.55154  -0.54939  -0.54805  -0.54675
 Alpha  occ. eigenvalues --   -0.54440  -0.54358  -0.54179  -0.53975  -0.53956
 Alpha  occ. eigenvalues --   -0.53609  -0.53412  -0.53152  -0.53114  -0.53104
 Alpha  occ. eigenvalues --   -0.52982  -0.52551  -0.52538  -0.52427  -0.52393
 Alpha  occ. eigenvalues --   -0.52216  -0.52053  -0.51895  -0.51856  -0.51686
 Alpha  occ. eigenvalues --   -0.51561  -0.51448  -0.51070  -0.50847  -0.50840
 Alpha  occ. eigenvalues --   -0.50610  -0.50466  -0.50301  -0.50238  -0.49902
 Alpha  occ. eigenvalues --   -0.49826  -0.49731  -0.49597  -0.49379  -0.49139
 Alpha  occ. eigenvalues --   -0.48901  -0.48861  -0.48747  -0.48655  -0.48283
 Alpha  occ. eigenvalues --   -0.48253  -0.48175  -0.47960  -0.47816  -0.47815
 Alpha  occ. eigenvalues --   -0.47702  -0.47357  -0.47237  -0.47104  -0.47093
 Alpha  occ. eigenvalues --   -0.46733  -0.46621  -0.46519  -0.46370  -0.46247
 Alpha  occ. eigenvalues --   -0.46152  -0.45976  -0.45967  -0.45526  -0.45385
 Alpha  occ. eigenvalues --   -0.45311  -0.45163  -0.45115  -0.44914  -0.44887
 Alpha  occ. eigenvalues --   -0.44748  -0.44532  -0.44458  -0.44099  -0.43872
 Alpha  occ. eigenvalues --   -0.43849  -0.43810  -0.43520  -0.43363  -0.43217
 Alpha  occ. eigenvalues --   -0.43135  -0.42984  -0.42779  -0.42650  -0.42381
 Alpha  occ. eigenvalues --   -0.42021  -0.41970  -0.41709  -0.41499  -0.40904
 Alpha  occ. eigenvalues --   -0.40662  -0.40492  -0.40237  -0.39679  -0.39640
 Alpha  occ. eigenvalues --   -0.39513  -0.39146  -0.38912  -0.38784  -0.38490
 Alpha  occ. eigenvalues --   -0.37934  -0.36993  -0.36649  -0.36334  -0.35896
 Alpha  occ. eigenvalues --   -0.35813  -0.35342  -0.35276  -0.33981  -0.33596
 Alpha  occ. eigenvalues --   -0.33574  -0.33433  -0.32805  -0.32108  -0.32007
 Alpha  occ. eigenvalues --   -0.31713  -0.31263  -0.31029  -0.26211  -0.26154
 Alpha  occ. eigenvalues --   -0.23176  -0.22990
 Alpha virt. eigenvalues --   -0.07548  -0.07124  -0.00144   0.00130   0.01887
 Alpha virt. eigenvalues --    0.02287   0.04142   0.04417   0.05129   0.05344
 Alpha virt. eigenvalues --    0.06948   0.07657   0.08048   0.08109   0.08732

 Mulliken charges:
               1
     1  Mg   0.967008
     2  C    0.016026
     3  C   -0.089697
     4  C   -0.072978
     5  C   -0.081515
     6  N   -0.340692
     7  C   -0.050333
     8  C   -0.024447
     9  C   -0.146329
    10  C    0.111230
    11  C    0.045391
    12  C    0.022912
    13  C   -0.128950
    14  H    0.026174
    15  N   -0.460512
    16  C    0.119219
    17  C   -0.139457
    18  C   -0.060505
    19  C    0.168389
    20  C    0.086936
    21  C    0.018631
    22  O   -0.211210
    23  C   -0.019678
    24  N   -0.295172
    25  C    0.031092
    26  C   -0.087899
    27  C   -0.051602
    28  C    0.005551
    29  C    0.018737
    30  C   -0.018547
    31  C   -0.065434
    32  N   -0.451162
    33  C    0.151367
    34  C   -0.200505
    35  C   -0.007380
    36  C    0.106061
    37  C    0.098597
    38  C    0.086034
    39  O   -0.225601
    40  C   -0.061219
    41  C    0.241030
    42  O   -0.257881
    43  O   -0.370097
    44  C    0.138514
    45  H    0.002315
    46  H   -0.045376
    47  H   -0.026923
    48  H    0.026041
    49  H    0.041710
    50  H    0.040892
    51  H    0.029806
    52  H    0.041058
    53  H    0.041008
    54  H    0.033141
    55  H    0.056155
    56  H    0.063578
    57  H    0.069697
    58  H    0.018751
    59  H    0.052660
    60  H    0.067209
    61  H    0.060909
    62  H    0.051544
    63  H    0.046905
    64  H    0.041982
    65  H    0.030684
    66  H    0.057094
    67  H    0.038784
    68  H    0.041320
    69  H    0.036681
    70  H    0.040253
    71  H    0.032919
    72  H    0.044457
    73  H    0.043347
    74  H    0.065083
    75  H    0.065209
    76  H    0.078482
    77  H    0.065226
    78  H    0.047207
    79  H    0.060109
    80  Mg   0.967132
    81  C    0.011864
    82  C   -0.103152
    83  C   -0.069895
    84  C   -0.098558
    85  N   -0.364065
    86  C   -0.034191
    87  C   -0.002560
    88  C   -0.137950
    89  C    0.092840
    90  C    0.019477
    91  C   -0.009578
    92  C   -0.148260
    93  H    0.036559
    94  N   -0.481617
    95  C    0.200509
    96  C   -0.180243
    97  C   -0.028004
    98  C    0.193612
    99  C    0.079815
   100  C    0.021509
   101  O   -0.253081
   102  C   -0.034056
   103  N   -0.410963
   104  C    0.038656
   105  C   -0.045178
   106  C   -0.088433
   107  C    0.134207
   108  C   -0.000844
   109  C   -0.040834
   110  C   -0.058094
   111  N   -0.419021
   112  C    0.119571
   113  C   -0.179048
   114  C   -0.042294
   115  C    0.138797
   116  C    0.103215
   117  C    0.093043
   118  O   -0.216597
   119  C   -0.114289
   120  C    0.257065
   121  O   -0.187964
   122  O   -0.389224
   123  C    0.147896
   124  H   -0.011216
   125  H    0.025689
   126  H   -0.021910
   127  H    0.032686
   128  H    0.032250
   129  H    0.049832
   130  H    0.026608
   131  H    0.046189
   132  H    0.042372
   133  H    0.040550
   134  H    0.074600
   135  H    0.061504
   136  H    0.058201
   137  H    0.036518
   138  H    0.053939
   139  H    0.050549
   140  H    0.073102
   141  H    0.053331
   142  H    0.051868
   143  H    0.039497
   144  H    0.033813
   145  H    0.045882
   146  H    0.057257
   147  H    0.033753
   148  H    0.029557
   149  H    0.026314
   150  H    0.038706
   151  H    0.035065
   152  H    0.041346
   153  H    0.054405
   154  H    0.067498
   155  H    0.052805
   156  H    0.050418
   157  H    0.036356
   158  H    0.062874
 Sum of Mulliken charges =  -0.00000

 Dipole moment (field-independent basis, Debye):
    X=             -2.3233    Y=              7.8473    Z=              1.7826  Tot=              8.3759
 Quadrupole moment (field-independent basis, Debye-Ang):
   XX=           -379.2029   YY=           -578.1355   ZZ=           -469.1190
   XY=            -15.4246   XZ=             42.1425   YZ=             26.5602

 Normal termination of Gaussian 16 at Mon Sep 20 07:50:31 2021.
