 Gaussian 16, Revision A.03,
 Gaussian 16:  ES64L-G16RevA.03 25-Dec-2016

 --------------------------------
 #p wB97XD/Def2SVP td=(nstates=5)
 --------------------------------

 --------------------------------
 TDDFT excited states in gaussian
 --------------------------------
 Symbolic Z-matrix:
 Charge =  0 Multiplicity = 1

                         Standard orientation:
 ---------------------------------------------------------------------
 Center     Atomic      Atomic             Coordinates (Angstroms)
 Number     Number       Type             X           Y           Z
 ---------------------------------------------------------------------
      1         12           0      -13.086867   -0.412051    0.402878
      2          6           0      -13.299308    2.666164   -1.211740
      3          6           0      -11.915461    1.174834    3.221468
      4          6           0      -12.678612   -3.491028    1.727861
      5          6           0      -13.926720   -1.972215   -2.700386
      6          7           0      -12.570778    1.650838    0.860738
      7          6           0      -12.757391    2.751621    0.082999
      8          6           0      -12.440833    4.040936    0.851858
      9          6           0      -11.863672    3.462091    2.218664
     10          6           0      -12.159026    1.964921    2.080354
     11          6           0      -10.370877    3.728985    2.369313
     12          6           0      -13.672412    4.946627    1.210444
     13          6           0      -13.423374    6.424591    1.363818
     14          1           0      -12.053288    6.915109    1.515432
     15          7           0      -12.489511   -1.040903    2.221401
     16          6           0      -12.028980   -0.209923    3.262248
     17          6           0      -11.873132   -1.058276    4.414658
     18          6           0      -12.131096   -2.404426    4.051867
     19          6           0      -12.451698   -2.366174    2.603750
     20          6           0      -11.281197   -0.577913    5.722427
     21          6           0      -12.149897   -3.639387    4.851243
     22          8           0      -12.194559   -4.748324    4.362745
     23          6           0      -11.945338   -3.582179    6.408610
     24          7           0      -13.435317   -2.509804   -0.307575
     25          6           0      -13.166313   -3.549967    0.423455
     26          6           0      -13.403444   -4.875078   -0.361651
     27          6           0      -13.868302   -4.424759   -1.734636
     28          6           0      -13.703439   -2.864529   -1.651403
     29          6           0      -12.102328   -5.805539   -0.294143
     30          6           0      -15.290302   -4.912670   -2.083559
     31          6           0      -15.409966   -6.228704   -2.939495
     32          7           0      -13.759053    0.141028   -1.425807
     33          6           0      -14.062433   -0.590775   -2.600716
     34          6           0      -14.452537    0.268234   -3.652969
     35          6           0      -14.072024    1.579723   -3.137815
     36          6           0      -13.699518    1.393232   -1.775867
     37          6           0      -14.753517   -0.149610   -5.080710
     38          6           0      -13.977773    2.928260   -3.560620
     39          8           0      -14.261246    3.481680   -4.615626
     40          6           0      -13.516075    3.754915   -2.187873
     41          6           0      -12.311827    4.550815   -2.597623
     42          8           0      -11.270408    4.062059   -3.048193
     43          8           0      -12.537850    5.958177   -2.541890
     44          6           0      -11.383204    6.818905   -2.948341
     45          1           0      -11.547213    1.744004    4.078402
     46          1           0      -12.345409   -4.435114    2.163075
     47          1           0      -14.238300   -2.394539   -3.657624
     48          1           0      -11.675906    4.558488    0.272528
     49          1           0      -12.337761    3.897736    3.098087
     50          1           0      -10.030681    4.481283    1.658198
     51          1           0       -9.772855    2.818301    2.326117
     52          1           0      -10.107447    4.248379    3.290718
     53          1           0      -14.113395    4.550548    2.124523
     54          1           0      -14.436798    4.737412    0.461764
     55          1           0      -13.895537    6.728244    2.297881
     56          1           0      -13.856754    6.948043    0.511560
     57          1           0      -10.309656   -1.020423    5.942150
     58          1           0      -12.004310   -0.781147    6.513412
     59          1           0      -11.064815    0.488234    5.788384
     60          1           0      -10.868365   -3.510025    6.562544
     61          1           0      -12.203086   -4.542269    6.855911
     62          1           0      -12.419994   -2.697589    6.831480
     63          1           0      -14.197077   -5.356262    0.210239
     64          1           0      -13.152572   -4.689784   -2.511311
     65          1           0      -11.755278   -6.052811   -1.297299
     66          1           0      -12.291132   -6.787879    0.139276
     67          1           0      -11.361166   -5.196871    0.225476
     68          1           0      -15.756512   -4.100378   -2.642282
     69          1           0      -15.824444   -5.012275   -1.138522
     70          1           0      -15.335212   -5.945763   -3.990068
     71          1           0      -16.261799   -6.889218   -2.776501
     72          1           0      -14.463005   -6.707749   -2.693033
     73          1           0      -15.804723   -0.433419   -5.037870
     74          1           0      -14.157779   -1.012079   -5.377267
     75          1           0      -14.437309    0.539063   -5.865245
     76          1           0      -14.351516    4.370803   -1.852680
     77          1           0      -11.116335    6.665185   -3.993308
     78          1           0      -10.454688    6.743203   -2.381829
     79          1           0      -11.859016    7.794745   -2.851198
     80         12           0       12.670423   -0.854714   -0.237640
     81          6           0       14.899713    1.871762   -0.062247
     82          6           0       10.186540    1.204512    0.946139
     83          6           0       10.503140   -3.419760   -0.300424
     84          6           0       15.338274   -3.025833   -0.879511
     85          7           0       12.617040    1.284680    0.211170
     86          6           0       13.542585    2.239429    0.235908
     87          6           0       13.066999    3.650653    0.639434
     88          6           0       11.630763    3.214517    1.207962
     89          6           0       11.479938    1.770354    0.796503
     90          6           0       11.489104    3.391106    2.700304
     91          6           0       12.962308    4.702414   -0.598469
     92          6           0       13.122406    6.161661   -0.162100
     93          1           0       14.335144    6.885491   -0.801792
     94          7           0       10.550684   -1.071080    0.099736
     95          6           0        9.720869   -0.061514    0.647252
     96          6           0        8.359036   -0.529680    0.520902
     97          6           0        8.413218   -1.866784    0.137741
     98          6           0        9.859167   -2.194664   -0.066026
     99          6           0        7.147407    0.260053    0.978850
    100          6           0        7.322697   -2.877655   -0.133668
    101          8           0        7.609538   -3.966910   -0.536871
    102          6           0        5.872261   -2.541160    0.013119
    103          7           0       12.890910   -2.943961   -0.344937
    104          6           0       11.832267   -3.801079   -0.424603
    105          6           0       12.429057   -5.206169   -0.714983
    106          6           0       13.752053   -4.965161   -1.419627
    107          6           0       14.076114   -3.563018   -0.852398
    108          6           0       12.684762   -5.929734    0.606346
    109          6           0       13.688155   -5.030692   -2.900718
    110          6           0       12.581264   -4.300638   -3.620371
    111          7           0       14.708878   -0.676444   -0.473549
    112          6           0       15.685730   -1.622827   -0.719718
    113          6           0       16.988550   -0.945909   -0.812219
    114          6           0       16.704506    0.412114   -0.586015
    115          6           0       15.354049    0.518008   -0.393582
    116          6           0       18.289887   -1.586416   -1.036312
    117          6           0       17.236148    1.748286   -0.615996
    118          8           0       18.404391    2.169736   -0.862075
    119          6           0       16.026002    2.747807   -0.297317
    120          6           0       16.399483    3.477104    0.967183
    121          8           0       16.810759    2.919439    1.941125
    122          8           0       16.174325    4.880342    0.954797
    123          6           0       16.233380    5.544598    2.292369
    124          1           0        9.397298    1.828072    1.369887
    125          1           0        9.852848   -4.294826   -0.232895
    126          1           0       16.184164   -3.611030   -1.246935
    127          1           0       13.769139    4.092916    1.347290
    128          1           0       10.934647    3.871315    0.684833
    129          1           0       10.976375    4.342005    2.844320
    130          1           0       12.436851    3.294565    3.230403
    131          1           0       10.743365    2.646945    2.979750
    132          1           0       11.988141    4.610992   -1.079825
    133          1           0       13.687379    4.455300   -1.374172
    134          1           0       13.181866    6.056784    0.921408
    135          1           0       12.213481    6.740832   -0.323816
    136          1           0        7.503371    1.288340    1.029654
    137          1           0        7.003258   -0.093220    1.999492
    138          1           0        6.312583    0.184263    0.281828
    139          1           0        5.755046   -1.885437   -0.849832
    140          1           0        5.624055   -1.983728    0.915910
    141          1           0        5.264342   -3.443607   -0.059701
    142          1           0       11.784499   -5.877117   -1.281794
    143          1           0       14.541556   -5.678779   -1.186312
    144          1           0       13.697339   -5.984956    1.006153
    145          1           0       12.316700   -6.949378    0.492989
    146          1           0       12.056854   -5.466622    1.368354
    147          1           0       13.697833   -6.058902   -3.263142
    148          1           0       14.631161   -4.587869   -3.220723
    149          1           0       13.068374   -3.487157   -4.158794
    150          1           0       11.729460   -3.844042   -3.115463
    151          1           0       12.178155   -4.967375   -4.382482
    152          1           0       18.548648   -2.149348   -0.139573
    153          1           0       18.952972   -0.750900   -1.260373
    154          1           0       18.241517   -2.317641   -1.844321
    155          1           0       15.934242    3.358078   -1.195978
    156          1           0       17.269717    5.680385    2.601509
    157          1           0       15.703647    4.992610    3.070104
    158          1           0       15.858034    6.566664    2.334552
 ---------------------------------------------------------------------

 SCF Done:  E(RwB97XD) =  -4070.63401244     A.U. after   19 cycles

 Excitation energies and oscillator strengths:

 Excited State   1:      Singlet-A      1.6526 eV  750.24 nm  f=0.3760  <S**2>=0.000
     310 -> 316       -0.17766
     312 -> 314        0.68496
     310 <- 316       -0.11371
 This state for optimization and/or second-order correction.
 Total Energy, E(TD-HF/TD-DFT) =  -4070.57328102
 Copying the excited state density for this state as the 1-particle RhoCI density.

 Excited State   2:      Singlet-A      1.6915 eV  733.00 nm  f=0.3682  <S**2>=0.000
     309 -> 315        0.17792
     311 -> 313        0.68361
     309 <- 315        0.11252

 Excited State   3:      Singlet-A      2.1346 eV  580.82 nm  f=0.1109  <S**2>=0.000
     310 -> 314        0.64475
     312 -> 316        0.27142

 Excited State   4:      Singlet-A      2.1734 eV  570.47 nm  f=0.1449  <S**2>=0.000
     309 -> 313        0.64705
     311 -> 315       -0.26335

 Excited State   5:      Singlet-A      3.7190 eV  333.38 nm  f=0.0000  <S**2>=0.000
     312 -> 313        0.70705

 The electronic state is 1-A.
 Alpha  occ. eigenvalues --  -46.94957 -46.94453 -19.29723 -19.29478 -19.24945
 Alpha  occ. eigenvalues --  -19.24484 -19.24483 -19.24151 -19.23319 -19.23280
 Alpha  occ. eigenvalues --  -14.48038 -14.47399 -14.46360 -14.45935 -14.44969
 Alpha  occ. eigenvalues --  -14.44351 -14.44022 -14.43630 -10.43246 -10.43028
 Alpha  occ. eigenvalues --  -10.39624 -10.39187 -10.38760 -10.38416 -10.35993
 Alpha  occ. eigenvalues --  -10.35952 -10.35822 -10.35461 -10.35454 -10.35371
 Alpha  occ. eigenvalues --  -10.35106 -10.35070 -10.35041 -10.34979 -10.34952
 Alpha  occ. eigenvalues --  -10.34782 -10.34760 -10.34522 -10.34083 -10.33667
 Alpha  occ. eigenvalues --  -10.33350 -10.32963 -10.32925 -10.32901 -10.32786
 Alpha  occ. eigenvalues --  -10.32525 -10.32514 -10.32327 -10.32326 -10.32319
 Alpha  occ. eigenvalues --  -10.32318 -10.32258 -10.32197 -10.32172 -10.32169
 Alpha  occ. eigenvalues --  -10.32119 -10.31984 -10.31963 -10.31902 -10.31771
 Alpha  occ. eigenvalues --  -10.31709 -10.31624 -10.31617 -10.31181 -10.31153
 Alpha  occ. eigenvalues --  -10.31147 -10.30922 -10.30894 -10.30706 -10.30622
 Alpha  occ. eigenvalues --  -10.30576 -10.30502 -10.30393 -10.30375 -10.30316
 Alpha  occ. eigenvalues --  -10.29989 -10.29878 -10.29784 -10.29695 -10.29670
 Alpha  occ. eigenvalues --  -10.29293 -10.28966 -10.28924 -10.28609 -10.28396
 Alpha  occ. eigenvalues --  -10.28269  -3.20892  -3.20561  -1.94505  -1.94170
 Alpha  occ. eigenvalues --   -1.93991  -1.93879  -1.93683  -1.93552  -1.17741
 Alpha  occ. eigenvalues --   -1.15689  -1.14384  -1.13528  -1.10914  -1.09577
 Alpha  occ. eigenvalues --   -1.08852  -1.08123  -1.07326  -1.07320  -1.06058
 Alpha  occ. eigenvalues --   -1.05640  -1.05509  -1.04926  -1.04655  -1.03766
 Alpha  occ. eigenvalues --   -0.94924  -0.94147  -0.92000  -0.91332  -0.91327
 Alpha  occ. eigenvalues --   -0.90957  -0.90777  -0.90463  -0.89904  -0.89818
 Alpha  occ. eigenvalues --   -0.89516  -0.88855  -0.88302  -0.88114  -0.86620
 Alpha  occ. eigenvalues --   -0.86358  -0.85426  -0.84990  -0.84591  -0.84434
 Alpha  occ. eigenvalues --   -0.84256  -0.83557  -0.83051  -0.82446  -0.82098
 Alpha  occ. eigenvalues --   -0.81876  -0.80937  -0.80913  -0.79289  -0.79264
 Alpha  occ. eigenvalues --   -0.79009  -0.78883  -0.78220  -0.77916  -0.77109
 Alpha  occ. eigenvalues --   -0.76946  -0.75227  -0.74437  -0.73723  -0.73317
 Alpha  occ. eigenvalues --   -0.71678  -0.71611  -0.71009  -0.70854  -0.70064
 Alpha  occ. eigenvalues --   -0.69827  -0.69426  -0.69103  -0.67839  -0.67790
 Alpha  occ. eigenvalues --   -0.67291  -0.67077  -0.66969  -0.66729  -0.66212
 Alpha  occ. eigenvalues --   -0.65340  -0.63763  -0.63500  -0.62543  -0.62425
 Alpha  occ. eigenvalues --   -0.61917  -0.61718  -0.61444  -0.61159  -0.60963
 Alpha  occ. eigenvalues --   -0.60655  -0.60548  -0.59854  -0.59601  -0.59427
 Alpha  occ. eigenvalues --   -0.58429  -0.58396  -0.57765  -0.57115  -0.56713
 Alpha  occ. eigenvalues --   -0.56680  -0.56449  -0.56072  -0.56014  -0.55950
 Alpha  occ. eigenvalues --   -0.55685  -0.55607  -0.55494  -0.55265  -0.55003
 Alpha  occ. eigenvalues --   -0.54996  -0.54552  -0.54394  -0.54363  -0.54341
 Alpha  occ. eigenvalues --   -0.54055  -0.53818  -0.53633  -0.53602  -0.53458
 Alpha  occ. eigenvalues --   -0.53011  -0.52755  -0.52632  -0.52622  -0.52251
 Alpha  occ. eigenvalues --   -0.52205  -0.51917  -0.51874  -0.51758  -0.51634
 Alpha  occ. eigenvalues --   -0.51604  -0.51551  -0.51320  -0.51135  -0.51091
 Alpha  occ. eigenvalues --   -0.51039  -0.50693  -0.50418  -0.50279  -0.50169
 Alpha  occ. eigenvalues --   -0.50162  -0.49714  -0.49691  -0.49596  -0.49531
 Alpha  occ. eigenvalues --   -0.49313  -0.49185  -0.49096  -0.48954  -0.48728
 Alpha  occ. eigenvalues --   -0.48679  -0.48280  -0.47861  -0.47806  -0.47468
 Alpha  occ. eigenvalues --   -0.47339  -0.47150  -0.47120  -0.47053  -0.46924
 Alpha  occ. eigenvalues --   -0.46768  -0.46615  -0.46343  -0.46245  -0.46195
 Alpha  occ. eigenvalues --   -0.46095  -0.45930  -0.45654  -0.45447  -0.45396
 Alpha  occ. eigenvalues --   -0.45138  -0.45055  -0.45045  -0.44937  -0.44785
 Alpha  occ. eigenvalues --   -0.44679  -0.44614  -0.44472  -0.44409  -0.44047
 Alpha  occ. eigenvalues --   -0.43877  -0.43755  -0.43566  -0.43499  -0.43295
 Alpha  occ. eigenvalues --   -0.42962  -0.42904  -0.42793  -0.42300  -0.42294
 Alpha  occ. eigenvalues --   -0.42164  -0.41895  -0.41658  -0.41431  -0.41429
 Alpha  occ. eigenvalues --   -0.40652  -0.40317  -0.39920  -0.39691  -0.39362
 Alpha  occ. eigenvalues --   -0.39293  -0.39097  -0.39082  -0.38390  -0.38234
 Alpha  occ. eigenvalues --   -0.38221  -0.37895  -0.36635  -0.36570  -0.36512
 Alpha  occ. eigenvalues --   -0.36027  -0.35670  -0.35416  -0.33964  -0.33918
 Alpha  occ. eigenvalues --   -0.33381  -0.33273  -0.32864  -0.32345  -0.32156
 Alpha  occ. eigenvalues --   -0.31861  -0.31707  -0.31460  -0.26257  -0.26087
 Alpha  occ. eigenvalues --   -0.23501  -0.23217
 Alpha virt. eigenvalues --   -0.07531  -0.07307   0.00139   0.00175   0.02127
 Alpha virt. eigenvalues --    0.02470   0.04287   0.04377   0.06256   0.06729
 Alpha virt. eigenvalues --    0.06776   0.07136   0.07703   0.07770   0.08082

 Mulliken charges:
               1
     1  Mg   0.981280
     2  C   -0.071217
     3  C   -0.108138
     4  C   -0.077257
     5  C   -0.077117
     6  N   -0.334175
     7  C    0.003430
     8  C   -0.040084
     9  C   -0.140141
    10  C    0.072887
    11  C    0.018812
    12  C    0.018173
    13  C   -0.105722
    14  H    0.036252
    15  N   -0.531664
    16  C    0.234202
    17  C   -0.151100
    18  C   -0.045575
    19  C    0.152294
    20  C    0.052144
    21  C    0.017192
    22  O   -0.224785
    23  C   -0.005317
    24  N   -0.321166
    25  C    0.055830
    26  C   -0.094045
    27  C   -0.043775
    28  C    0.027492
    29  C    0.014738
    30  C   -0.005444
    31  C   -0.042778
    32  N   -0.449171
    33  C    0.125193
    34  C   -0.138707
    35  C   -0.084709
    36  C    0.187736
    37  C    0.059683
    38  C    0.113503
    39  O   -0.211460
    40  C   -0.083791
    41  C    0.288670
    42  O   -0.260646
    43  O   -0.404696
    44  C    0.141059
    45  H    0.003958
    46  H    0.032179
    47  H    0.000637
    48  H    0.043656
    49  H    0.038887
    50  H    0.033127
    51  H    0.048997
    52  H    0.022920
    53  H    0.024467
    54  H    0.025516
    55  H    0.048933
    56  H    0.067456
    57  H    0.063218
    58  H    0.050028
    59  H    0.030691
    60  H    0.053167
    61  H    0.056165
    62  H    0.038284
    63  H    0.048423
    64  H    0.027372
    65  H    0.030088
    66  H    0.045811
    67  H    0.051008
    68  H    0.026204
    69  H    0.026749
    70  H    0.037082
    71  H    0.054735
    72  H    0.027388
    73  H    0.054297
    74  H    0.037471
    75  H    0.064186
    76  H    0.072375
    77  H    0.058593
    78  H    0.054161
    79  H    0.053882
    80  Mg   0.953604
    81  C   -0.042825
    82  C   -0.110267
    83  C   -0.074272
    84  C   -0.071385
    85  N   -0.321049
    86  C   -0.004011
    87  C   -0.076302
    88  C   -0.141344
    89  C    0.116568
    90  C    0.056695
    91  C    0.009007
    92  C   -0.101694
    93  H    0.060763
    94  N   -0.444590
    95  C    0.147190
    96  C   -0.177088
    97  C   -0.058202
    98  C    0.148004
    99  C    0.068283
   100  C    0.023179
   101  O   -0.209884
   102  C   -0.009911
   103  N   -0.406220
   104  C    0.080345
   105  C   -0.094025
   106  C   -0.044159
   107  C    0.108197
   108  C    0.034249
   109  C    0.007500
   110  C   -0.069540
   111  N   -0.442532
   112  C    0.083844
   113  C   -0.209091
   114  C    0.007012
   115  C    0.127193
   116  C    0.079139
   117  C    0.099181
   118  O   -0.251484
   119  C   -0.045855
   120  C    0.263320
   121  O   -0.210435
   122  O   -0.401474
   123  C    0.135729
   124  H    0.006338
   125  H    0.021257
   126  H   -0.000356
   127  H    0.038064
   128  H    0.035970
   129  H    0.032022
   130  H    0.057718
   131  H    0.022767
   132  H    0.027482
   133  H    0.042931
   134  H    0.027355
   135  H    0.044600
   136  H    0.032553
   137  H    0.075883
   138  H    0.059712
   139  H    0.060078
   140  H    0.052521
   141  H    0.062009
   142  H    0.025065
   143  H    0.018251
   144  H    0.044972
   145  H    0.032956
   146  H    0.031211
   147  H    0.032161
   148  H    0.016204
   149  H    0.030721
   150  H    0.056713
   151  H    0.030023
   152  H    0.053906
   153  H    0.066203
   154  H    0.035107
   155  H    0.077735
   156  H    0.056921
   157  H    0.049814
   158  H    0.051769
 Sum of Mulliken charges =  -0.00000

 Dipole moment (field-independent basis, Debye):
    X=             -6.4610    Y=              0.5699    Z=              6.5606  Tot=              9.2256
 Quadrupole moment (field-independent basis, Debye-Ang):
   XX=           -727.0304   YY=           -480.7176   ZZ=           -503.9266
   XY=             -3.0780   XZ=            -66.0963   YZ=             47.6598

 Normal termination of Gaussian 16 at Mon Sep 20 08:17:27 2021.
