 Gaussian 16, Revision A.03,
 Gaussian 16:  ES64L-G16RevA.03 25-Dec-2016

 --------------------------------
 #p wB97XD/Def2SVP td=(nstates=5)
 --------------------------------

 --------------------------------
 TDDFT excited states in gaussian
 --------------------------------
 Symbolic Z-matrix:
 Charge =  0 Multiplicity = 1

                         Standard orientation:
 ---------------------------------------------------------------------
 Center     Atomic      Atomic             Coordinates (Angstroms)
 Number     Number       Type             X           Y           Z
 ---------------------------------------------------------------------
      1         12           0      -14.412834   -0.149627    0.524879
      2          6           0      -12.554796    1.867642   -1.667061
      3          6           0      -16.112099   -1.346869   -2.162395
      4          6           0      -15.745700   -2.275600    2.622520
      5          6           0      -11.893618    0.677239    2.961321
      6          7           0      -14.364659    0.283376   -1.615814
      7          6           0      -13.524687    1.117171   -2.298504
      8          6           0      -13.662579    0.814563   -3.798091
      9          6           0      -15.086074    0.274286   -3.878419
     10          6           0      -15.146712   -0.384693   -2.487014
     11          6           0      -16.145676    1.389964   -4.030550
     12          6           0      -12.594317   -0.238892   -4.272351
     13          6           0      -11.451774    0.239430   -5.296557
     14          1           0       -9.977935    0.155257   -4.864373
     15          7           0      -15.702052   -1.648637    0.260913
     16          6           0      -16.317559   -1.979184   -0.924500
     17          6           0      -17.308029   -2.972670   -0.649925
     18          6           0      -17.350275   -3.217892    0.762471
     19          6           0      -16.240013   -2.380837    1.302595
     20          6           0      -18.206687   -3.621190   -1.757961
     21          6           0      -18.387244   -4.154672    1.482003
     22          8           0      -19.276881   -4.649610    0.860971
     23          6           0      -18.404525   -4.174190    2.939614
     24          7           0      -13.697319   -0.953526    2.418785
     25          6           0      -14.680883   -1.523964    3.154441
     26          6           0      -14.494959   -1.336821    4.650882
     27          6           0      -13.101425   -0.736014    4.754396
     28          6           0      -12.853511   -0.300318    3.268411
     29          6           0      -15.591412   -0.409766    5.294488
     30          6           0      -11.901126   -1.619974    5.338392
     31          6           0      -11.309339   -1.362427    6.698183
     32          7           0      -12.739945    1.152379    0.730134
     33          6           0      -11.820100    1.384878    1.760712
     34          6           0      -10.783820    2.308832    1.353218
     35          6           0      -11.058335    2.538431    0.027434
     36          6           0      -12.234900    1.812465   -0.352660
     37          6           0       -9.672543    2.775307    2.198427
     38          6           0      -10.601634    3.255315   -1.153328
     39          8           0       -9.681974    4.074446   -1.271595
     40          6           0      -11.597504    2.942917   -2.250354
     41          6           0      -12.251351    4.259385   -2.655867
     42          8           0      -12.855028    4.943477   -1.832597
     43          8           0      -11.950994    4.598251   -3.984363
     44          6           0      -12.509281    5.849099   -4.423691
     45          1           0      -16.740672   -1.591784   -3.020730
     46          1           0      -16.423007   -2.750953    3.333697
     47          1           0      -11.200494    1.007444    3.738115
     48          1           0      -13.410999    1.734267   -4.326845
     49          1           0      -15.134825   -0.424235   -4.712829
     50          1           0      -16.694680    0.976801   -4.875991
     51          1           0      -15.570609    2.284553   -4.271173
     52          1           0      -16.787496    1.580674   -3.170351
     53          1           0      -13.132088   -1.027792   -4.798078
     54          1           0      -12.174161   -0.705862   -3.381913
     55          1           0      -11.627458    1.305561   -5.442069
     56          1           0      -11.513221   -0.208477   -6.287658
     57          1           0      -18.279371   -4.707949   -1.786520
     58          1           0      -17.788713   -3.283698   -2.706938
     59          1           0      -19.236670   -3.265522   -1.725439
     60          1           0      -17.461590   -4.474537    3.397040
     61          1           0      -19.187716   -4.859370    3.263913
     62          1           0      -18.811683   -3.239271    3.322199
     63          1           0      -14.595007   -2.270334    5.205644
     64          1           0      -13.131719    0.191419    5.326303
     65          1           0      -16.395479   -0.964238    5.778065
     66          1           0      -15.920985    0.326951    4.561886
     67          1           0      -15.100616    0.161903    6.083461
     68          1           0      -11.073228   -1.863379    4.673350
     69          1           0      -12.481602   -2.540110    5.410557
     70          1           0      -11.495346   -2.164089    7.412215
     71          1           0      -11.740967   -0.453191    7.117313
     72          1           0      -10.243552   -1.237899    6.508011
     73          1           0       -9.497067    2.017792    2.962769
     74          1           0      -10.042928    3.671817    2.696413
     75          1           0       -8.798621    3.032898    1.601841
     76          1           0      -10.955167    2.585182   -3.053908
     77          1           0      -13.574101    5.814592   -4.655602
     78          1           0      -12.008166    6.219348   -5.317620
     79          1           0      -12.393266    6.667297   -3.713439
     80         12           0       14.103480   -0.781959   -0.666059
     81          6           0       14.328769    2.417177    0.706127
     82          6           0       10.941061   -0.196251   -1.522170
     83          6           0       13.618315   -4.165501   -0.702870
     84          6           0       17.400768   -1.364771    0.295446
     85          7           0       12.822805    1.002556   -0.577722
     86          6           0       13.135730    2.157764   -0.003473
     87          6           0       11.984034    3.191605   -0.276448
     88          6           0       10.880220    2.295219   -0.887030
     89          6           0       11.556823    0.931808   -0.992919
     90          6           0        9.596498    2.098726    0.062698
     91          6           0       12.369533    4.399539   -1.245786
     92          6           0       11.815459    5.700863   -0.776248
     93          1           0       11.023608    6.569982   -1.741052
     94          7           0       12.499025   -1.993641   -1.084078
     95          6           0       11.253142   -1.555805   -1.447771
     96          6           0       10.493567   -2.694998   -1.981460
     97          6           0       11.288044   -3.849381   -1.735034
     98          6           0       12.515417   -3.345031   -1.097079
     99          6           0        9.046575   -2.563373   -2.554982
    100          6           0       10.937419   -5.345972   -1.992092
    101          8           0       11.692603   -6.281080   -1.751005
    102          6           0        9.617738   -5.657284   -2.590241
    103          7           0       15.271054   -2.470534   -0.248070
    104          6           0       14.862192   -3.807476   -0.260068
    105          6           0       15.980014   -4.697215    0.343885
    106          6           0       17.300793   -3.865571    0.032851
    107          6           0       16.586765   -2.484283    0.014850
    108          6           0       15.735535   -5.061674    1.824001
    109          6           0       17.993760   -4.138818   -1.271803
    110          6           0       17.475858   -3.568034   -2.558504
    111          7           0       15.676822    0.305153    0.113953
    112          6           0       16.949674   -0.052752    0.493947
    113          6           0       17.690732    1.076025    1.061439
    114          6           0       16.650014    2.089005    1.270404
    115          6           0       15.451428    1.533775    0.674253
    116          6           0       19.049945    1.057681    1.543357
    117          6           0       16.349774    3.402319    1.827517
    118          8           0       16.986511    4.162052    2.456012
    119          6           0       14.818369    3.695075    1.399469
    120          6           0       13.944264    4.195597    2.521510
    121          8           0       13.256089    3.489163    3.252291
    122          8           0       13.977040    5.589718    2.521038
    123          6           0       13.159236    6.291723    3.526766
    124          1           0        9.975743   -0.136496   -2.029878
    125          1           0       13.385853   -5.232675   -0.720590
    126          1           0       18.453345   -1.585770    0.482441
    127          1           0       11.575786    3.605196    0.646049
    128          1           0       10.455040    2.628946   -1.833558
    129          1           0        8.880939    2.873453   -0.213501
    130          1           0        9.775695    2.250996    1.126719
    131          1           0        9.169133    1.118837   -0.153289
    132          1           0       11.997689    4.238977   -2.257877
    133          1           0       13.436880    4.548317   -1.409909
    134          1           0       12.710650    6.286392   -0.568544
    135          1           0       11.223689    5.704232    0.138690
    136          1           0        8.379897   -2.715432   -1.706612
    137          1           0        8.878630   -3.250914   -3.384297
    138          1           0        8.755548   -1.540497   -2.796358
    139          1           0        8.712912   -5.131594   -2.285620
    140          1           0        9.392113   -6.713927   -2.448527
    141          1           0        9.720357   -5.707209   -3.674628
    142          1           0       15.962427   -5.584984   -0.287648
    143          1           0       18.047292   -3.964002    0.820781
    144          1           0       16.540086   -4.832571    2.522819
    145          1           0       15.331227   -6.064121    1.966272
    146          1           0       14.904292   -4.475975    2.216151
    147          1           0       18.098123   -5.196608   -1.510193
    148          1           0       19.019540   -3.781425   -1.180402
    149          1           0       18.074940   -2.663931   -2.665651
    150          1           0       16.431661   -3.254632   -2.555077
    151          1           0       17.666093   -4.274544   -3.367082
    152          1           0       19.460138    2.039435    1.306016
    153          1           0       19.582586    0.299769    0.969468
    154          1           0       19.065326    0.897378    2.620945
    155          1           0       14.846430    4.479457    0.643110
    156          1           0       13.422621    5.871558    4.497807
    157          1           0       12.098535    6.100270    3.366549
    158          1           0       13.221730    7.376894    3.609663
 ---------------------------------------------------------------------

 SCF Done:  E(RwB97XD) =  -4070.62122091     A.U. after   19 cycles

 Excitation energies and oscillator strengths:

 Excited State   1:      Singlet-A      1.6237 eV  763.61 nm  f=0.3993  <S**2>=0.000
     310 -> 316        0.18247
     312 -> 313        0.68396
     310 <- 316        0.11747
 This state for optimization and/or second-order correction.
 Total Energy, E(TD-HF/TD-DFT) =  -4070.56155248
 Copying the excited state density for this state as the 1-particle RhoCI density.

 Excited State   2:      Singlet-A      1.6666 eV  743.92 nm  f=0.3420  <S**2>=0.000
     309 -> 315        0.19746
     311 -> 314        0.68068
     309 <- 315        0.12063

 Excited State   3:      Singlet-A      2.2000 eV  563.56 nm  f=0.1017  <S**2>=0.000
     310 -> 313        0.63111
     312 -> 316       -0.30770

 Excited State   4:      Singlet-A      2.2261 eV  556.96 nm  f=0.0508  <S**2>=0.000
     309 -> 314        0.60370
     311 -> 315       -0.35672

 Excited State   5:      Singlet-A      3.3924 eV  365.48 nm  f=0.0178  <S**2>=0.000
     308 -> 313        0.66084
     312 -> 316        0.17995

 The electronic state is 1-A.
 Alpha  occ. eigenvalues --  -46.95076 -46.94230 -19.31342 -19.30237 -19.25607
 Alpha  occ. eigenvalues --  -19.25016 -19.24724 -19.24150 -19.24106 -19.23907
 Alpha  occ. eigenvalues --  -14.46774 -14.46729 -14.46724 -14.45995 -14.44035
 Alpha  occ. eigenvalues --  -14.44021 -14.43872 -14.43763 -10.44205 -10.43527
 Alpha  occ. eigenvalues --  -10.39562 -10.39518 -10.39018 -10.38665 -10.35514
 Alpha  occ. eigenvalues --  -10.35330 -10.35311 -10.35215 -10.35185 -10.34919
 Alpha  occ. eigenvalues --  -10.34740 -10.34618 -10.34584 -10.34526 -10.33993
 Alpha  occ. eigenvalues --  -10.33881 -10.33848 -10.33771 -10.33592 -10.33497
 Alpha  occ. eigenvalues --  -10.33344 -10.33343 -10.32877 -10.32813 -10.32672
 Alpha  occ. eigenvalues --  -10.32544 -10.32432 -10.32344 -10.32316 -10.32237
 Alpha  occ. eigenvalues --  -10.32186 -10.32185 -10.31996 -10.31989 -10.31989
 Alpha  occ. eigenvalues --  -10.31968 -10.31892 -10.31704 -10.31680 -10.31585
 Alpha  occ. eigenvalues --  -10.31427 -10.31271 -10.31113 -10.31069 -10.30984
 Alpha  occ. eigenvalues --  -10.30980 -10.30952 -10.30781 -10.30768 -10.30702
 Alpha  occ. eigenvalues --  -10.30402 -10.30174 -10.30154 -10.30133 -10.30126
 Alpha  occ. eigenvalues --  -10.29950 -10.29895 -10.29747 -10.29629 -10.29533
 Alpha  occ. eigenvalues --  -10.29467 -10.29450 -10.29349 -10.29345 -10.29250
 Alpha  occ. eigenvalues --  -10.28334  -3.21122  -3.20350  -1.94688  -1.94261
 Alpha  occ. eigenvalues --   -1.94090  -1.93948  -1.93452  -1.93354  -1.18223
 Alpha  occ. eigenvalues --   -1.17301  -1.15197  -1.14142  -1.12314  -1.11409
 Alpha  occ. eigenvalues --   -1.10518  -1.09632  -1.07134  -1.06829  -1.06323
 Alpha  occ. eigenvalues --   -1.05541  -1.04958  -1.04862  -1.04157  -1.04145
 Alpha  occ. eigenvalues --   -0.95106  -0.93822  -0.91053  -0.90895  -0.90862
 Alpha  occ. eigenvalues --   -0.90502  -0.90426  -0.89912  -0.89620  -0.89109
 Alpha  occ. eigenvalues --   -0.89097  -0.88786  -0.88179  -0.86978  -0.86547
 Alpha  occ. eigenvalues --   -0.86186  -0.86021  -0.85461  -0.84515  -0.84486
 Alpha  occ. eigenvalues --   -0.84412  -0.83730  -0.83057  -0.82921  -0.82875
 Alpha  occ. eigenvalues --   -0.82298  -0.80155  -0.79993  -0.79224  -0.79137
 Alpha  occ. eigenvalues --   -0.78644  -0.78385  -0.78270  -0.77724  -0.77089
 Alpha  occ. eigenvalues --   -0.76750  -0.74925  -0.74220  -0.74157  -0.73401
 Alpha  occ. eigenvalues --   -0.71112  -0.70992  -0.70646  -0.70474  -0.70158
 Alpha  occ. eigenvalues --   -0.69642  -0.68801  -0.68664  -0.67835  -0.67609
 Alpha  occ. eigenvalues --   -0.67601  -0.66910  -0.66582  -0.66522  -0.66209
 Alpha  occ. eigenvalues --   -0.66006  -0.64776  -0.63774  -0.62257  -0.62101
 Alpha  occ. eigenvalues --   -0.62097  -0.61509  -0.61150  -0.60928  -0.60844
 Alpha  occ. eigenvalues --   -0.60534  -0.60068  -0.59755  -0.59724  -0.59177
 Alpha  occ. eigenvalues --   -0.58262  -0.58111  -0.57758  -0.57447  -0.57301
 Alpha  occ. eigenvalues --   -0.57267  -0.56942  -0.56727  -0.56020  -0.55966
 Alpha  occ. eigenvalues --   -0.55523  -0.55489  -0.55273  -0.55144  -0.54988
 Alpha  occ. eigenvalues --   -0.54835  -0.54761  -0.54661  -0.54394  -0.54174
 Alpha  occ. eigenvalues --   -0.54056  -0.53777  -0.53667  -0.53516  -0.53273
 Alpha  occ. eigenvalues --   -0.53170  -0.53003  -0.52861  -0.52428  -0.52295
 Alpha  occ. eigenvalues --   -0.52133  -0.52088  -0.51977  -0.51784  -0.51632
 Alpha  occ. eigenvalues --   -0.51516  -0.51394  -0.51300  -0.51094  -0.51018
 Alpha  occ. eigenvalues --   -0.50661  -0.50490  -0.50305  -0.50198  -0.50063
 Alpha  occ. eigenvalues --   -0.49869  -0.49690  -0.49485  -0.49073  -0.48859
 Alpha  occ. eigenvalues --   -0.48737  -0.48566  -0.48474  -0.48357  -0.48257
 Alpha  occ. eigenvalues --   -0.48150  -0.48088  -0.48006  -0.47942  -0.47712
 Alpha  occ. eigenvalues --   -0.47418  -0.47386  -0.47333  -0.47096  -0.46832
 Alpha  occ. eigenvalues --   -0.46518  -0.46434  -0.46289  -0.46246  -0.46140
 Alpha  occ. eigenvalues --   -0.46060  -0.45844  -0.45620  -0.45579  -0.45306
 Alpha  occ. eigenvalues --   -0.45222  -0.45168  -0.45084  -0.44678  -0.44587
 Alpha  occ. eigenvalues --   -0.44557  -0.44423  -0.44136  -0.43933  -0.43746
 Alpha  occ. eigenvalues --   -0.43696  -0.43573  -0.43478  -0.43414  -0.43327
 Alpha  occ. eigenvalues --   -0.43052  -0.43050  -0.42807  -0.42653  -0.42349
 Alpha  occ. eigenvalues --   -0.42334  -0.42078  -0.42003  -0.41008  -0.40937
 Alpha  occ. eigenvalues --   -0.40551  -0.39988  -0.39926  -0.39567  -0.39523
 Alpha  occ. eigenvalues --   -0.39223  -0.38906  -0.38666  -0.38639  -0.38616
 Alpha  occ. eigenvalues --   -0.38561  -0.37804  -0.36883  -0.36764  -0.36391
 Alpha  occ. eigenvalues --   -0.36244  -0.35786  -0.35031  -0.33598  -0.33367
 Alpha  occ. eigenvalues --   -0.33245  -0.33237  -0.33095  -0.33001  -0.32373
 Alpha  occ. eigenvalues --   -0.32153  -0.31864  -0.31733  -0.26368  -0.25871
 Alpha  occ. eigenvalues --   -0.22848  -0.22551
 Alpha virt. eigenvalues --   -0.06778  -0.06703  -0.00378   0.00572   0.02516
 Alpha virt. eigenvalues --    0.02542   0.04558   0.04573   0.05148   0.05945
 Alpha virt. eigenvalues --    0.06312   0.06765   0.07428   0.08113   0.08439

 Mulliken charges:
               1
     1  Mg   0.957088
     2  C   -0.054852
     3  C   -0.098080
     4  C   -0.052902
     5  C   -0.094279
     6  N   -0.331932
     7  C   -0.023668
     8  C   -0.115079
     9  C   -0.115581
    10  C    0.039136
    11  C    0.060820
    12  C    0.025475
    13  C   -0.134460
    14  H    0.044559
    15  N   -0.518617
    16  C    0.210494
    17  C   -0.172854
    18  C   -0.106098
    19  C    0.151532
    20  C    0.083282
    21  C    0.062078
    22  O   -0.196804
    23  C   -0.021478
    24  N   -0.326811
    25  C    0.062312
    26  C   -0.102145
    27  C   -0.069990
    28  C    0.069764
    29  C    0.021088
    30  C   -0.022416
    31  C   -0.034772
    32  N   -0.429102
    33  C    0.127670
    34  C   -0.206797
    35  C   -0.016899
    36  C    0.192958
    37  C    0.097493
    38  C    0.099066
    39  O   -0.221037
    40  C   -0.022042
    41  C    0.288762
    42  O   -0.244308
    43  O   -0.362568
    44  C    0.139803
    45  H    0.001635
    46  H   -0.029168
    47  H   -0.001552
    48  H    0.017259
    49  H    0.023670
    50  H    0.042942
    51  H    0.038762
    52  H    0.055185
    53  H    0.032707
    54  H    0.055639
    55  H    0.047937
    56  H    0.058735
    57  H    0.056119
    58  H    0.011809
    59  H    0.051637
    60  H    0.070928
    61  H    0.042101
    62  H    0.069582
    63  H    0.033510
    64  H    0.024354
    65  H    0.046191
    66  H    0.041571
    67  H    0.029712
    68  H    0.043907
    69  H    0.016372
    70  H    0.044128
    71  H    0.026378
    72  H    0.041537
    73  H    0.036667
    74  H    0.058343
    75  H    0.065864
    76  H    0.060915
    77  H    0.042389
    78  H    0.050374
    79  H    0.054047
    80  Mg   0.983917
    81  C    0.016629
    82  C   -0.089876
    83  C   -0.082524
    84  C   -0.106205
    85  N   -0.316699
    86  C    0.009745
    87  C   -0.040624
    88  C   -0.128958
    89  C    0.104051
    90  C   -0.004757
    91  C    0.028251
    92  C   -0.147950
    93  H    0.026305
    94  N   -0.452997
    95  C    0.111707
    96  C   -0.155567
    97  C   -0.103455
    98  C    0.123577
    99  C    0.045635
   100  C    0.084785
   101  O   -0.233121
   102  C   -0.023427
   103  N   -0.364676
   104  C    0.051495
   105  C   -0.053057
   106  C   -0.060037
   107  C    0.046748
   108  C    0.044671
   109  C   -0.025399
   110  C   -0.034929
   111  N   -0.448038
   112  C    0.163686
   113  C   -0.168945
   114  C   -0.084465
   115  C    0.117514
   116  C    0.077048
   117  C    0.137533
   118  O   -0.142269
   119  C   -0.138902
   120  C    0.283390
   121  O   -0.249094
   122  O   -0.383370
   123  C    0.147029
   124  H   -0.012924
   125  H    0.021568
   126  H   -0.009779
   127  H    0.043032
   128  H    0.044175
   129  H    0.031448
   130  H    0.051194
   131  H    0.038099
   132  H    0.037952
   133  H    0.036862
   134  H    0.053853
   135  H    0.051488
   136  H    0.057773
   137  H    0.063624
   138  H    0.032881
   139  H    0.059442
   140  H    0.038626
   141  H    0.062599
   142  H    0.024331
   143  H    0.023808
   144  H    0.039102
   145  H    0.044427
   146  H    0.032107
   147  H    0.026657
   148  H    0.023403
   149  H    0.026961
   150  H    0.051722
   151  H    0.040119
   152  H    0.057344
   153  H    0.036608
   154  H    0.074532
   155  H    0.075997
   156  H    0.054182
   157  H    0.040635
   158  H    0.061777
 Sum of Mulliken charges =  -0.00000

 Dipole moment (field-independent basis, Debye):
    X=             -3.3283    Y=             -0.0808    Z=             -1.1483  Tot=              3.5218
 Quadrupole moment (field-independent basis, Debye-Ang):
   XX=           -523.5210   YY=           -539.3114   ZZ=           -460.6612
   XY=            -31.1789   XZ=            -53.8413   YZ=            -13.6319

 Normal termination of Gaussian 16 at Mon Sep 20 16:00:04 2021.
