 Gaussian 16, Revision A.03,
 Gaussian 16:  ES64L-G16RevA.03 25-Dec-2016

 --------------------------------
 #p wB97XD/Def2SVP td=(nstates=5)
 --------------------------------

 --------------------------------
 TDDFT excited states in gaussian
 --------------------------------
 Symbolic Z-matrix:
 Charge =  0 Multiplicity = 1

                         Standard orientation:
 ---------------------------------------------------------------------
 Center     Atomic      Atomic             Coordinates (Angstroms)
 Number     Number       Type             X           Y           Z
 ---------------------------------------------------------------------
      1         12           0       29.205381    0.183447    0.094979
      2          6           0       26.125085   -1.293216   -0.311359
      3          6           0       27.917941    3.291677   -0.544405
      4          6           0       32.311697    1.683028    0.706101
      5          6           0       30.416209   -2.697748    1.564271
      6          7           0       27.162839    0.864838   -0.160003
      7          6           0       26.037986    0.101249   -0.483618
      8          6           0       24.815817    0.986298   -0.741038
      9          6           0       25.528917    2.344376   -0.962692
     10          6           0       26.975511    2.212767   -0.443875
     11          6           0       25.387557    2.874655   -2.406267
     12          6           0       23.831339    0.981688    0.445192
     13          6           0       22.304483    0.909218    0.097053
     14          1           0       21.387634    1.589145    1.037273
     15          7           0       29.980437    2.157596    0.026230
     16          6           0       29.322612    3.280430   -0.343002
     17          6           0       30.196052    4.395382   -0.556059
     18          6           0       31.502360    3.929561   -0.333830
     19          6           0       31.315700    2.495132    0.137871
     20          6           0       29.746585    5.755081   -1.094784
     21          6           0       32.837577    4.746931   -0.472936
     22          8           0       32.761981    5.974909   -0.733815
     23          6           0       34.284556    4.095488   -0.386320
     24          7           0       31.007552   -0.335972    1.282064
     25          6           0       32.155320    0.383257    1.236811
     26          6           0       33.341206   -0.367492    1.785988
     27          6           0       32.754270   -1.757143    2.114861
     28          6           0       31.320613   -1.623098    1.595202
     29          6           0       34.597296   -0.378327    0.852949
     30          6           0       32.931713   -2.171762    3.652805
     31          6           0       34.015569   -3.224927    3.910545
     32          7           0       28.482963   -1.655505    0.501249
     33          6           0       29.080135   -2.793839    1.086177
     34          6           0       28.192551   -3.950771    0.909416
     35          6           0       27.073379   -3.399492    0.301232
     36          6           0       27.273292   -2.012456    0.206093
     37          6           0       28.382044   -5.373266    1.298313
     38          6           0       25.734424   -3.724083   -0.210949
     39          8           0       25.189591   -4.809074   -0.472869
     40          6           0       25.073206   -2.364909   -0.675632
     41          6           0       24.757116   -2.382125   -2.165161
     42          8           0       25.482839   -2.770881   -3.085802
     43          8           0       23.470021   -1.936364   -2.221460
     44          6           0       22.815300   -2.006113   -3.517073
     45          1           0       27.520661    4.287240   -0.752476
     46          1           0       33.342848    2.008810    0.858284
     47          1           0       30.739644   -3.642246    2.006340
     48          1           0       24.278655    0.621090   -1.616986
     49          1           0       24.978446    3.023098   -0.311290
     50          1           0       24.576218    2.509235   -3.035751
     51          1           0       26.290954    2.552023   -2.923623
     52          1           0       25.303394    3.960629   -2.439868
     53          1           0       23.999770    1.805340    1.138437
     54          1           0       24.150610    0.146298    1.068788
     55          1           0       22.007436   -0.137218    0.028063
     56          1           0       22.145062    1.413533   -0.857047
     57          1           0       30.340034    5.923132   -1.993208
     58          1           0       29.747619    6.488383   -0.288238
     59          1           0       28.725232    5.585194   -1.435367
     60          1           0       34.532069    4.053386    0.673723
     61          1           0       34.956787    4.784143   -0.897608
     62          1           0       34.252472    3.199911   -1.007404
     63          1           0       33.653094    0.126875    2.706093
     64          1           0       33.090697   -2.585413    1.491691
     65          1           0       35.031182   -1.374909    0.776057
     66          1           0       35.380645    0.297181    1.196202
     67          1           0       34.320196    0.026585   -0.119502
     68          1           0       32.032271   -2.626093    4.068160
     69          1           0       33.089094   -1.282412    4.262944
     70          1           0       34.548380   -2.985483    4.830975
     71          1           0       34.722747   -3.235075    3.081430
     72          1           0       33.632317   -4.241126    4.001207
     73          1           0       29.399640   -5.474599    1.675633
     74          1           0       28.019108   -6.027252    0.505171
     75          1           0       27.765057   -5.523437    2.184894
     76          1           0       24.178017   -2.120962   -0.102975
     77          1           0       23.434979   -1.659432   -4.345039
     78          1           0       21.856338   -1.497573   -3.616289
     79          1           0       22.546552   -3.039733   -3.736528
     80         12           0      -29.025185    0.483896    0.439131
     81          6           0      -27.421416   -2.052269   -1.374860
     82          6           0      -28.292072    2.650560   -2.134256
     83          6           0      -30.512470    2.861129    2.179367
     84          6           0      -29.543534   -1.831732    3.029860
     85          7           0      -28.051497    0.238347   -1.535475
     86          6           0      -27.433076   -0.876834   -2.101109
     87          6           0      -27.115132   -0.701968   -3.637987
     88          6           0      -27.271291    0.803240   -3.736310
     89          6           0      -27.927840    1.287171   -2.377819
     90          6           0      -25.844850    1.513710   -3.844733
     91          6           0      -28.323030   -1.440871   -4.368072
     92          6           0      -27.967379   -2.325529   -5.642824
     93          1           0      -26.805902   -1.709316   -6.379925
     94          7           0      -29.212680    2.453278    0.135280
     95          6           0      -28.863051    3.163757   -0.933404
     96          6           0      -29.239210    4.548513   -0.825551
     97          6           0      -30.044933    4.618281    0.328192
     98          6           0      -29.904588    3.266488    0.989486
     99          6           0      -28.908026    5.623971   -1.794267
    100          6           0      -30.959878    5.719374    0.823305
    101          8           0      -31.798372    5.545327    1.714954
    102          6           0      -30.793997    7.146017    0.292488
    103          7           0      -29.866969    0.498208    2.386781
    104          6           0      -30.484800    1.654692    2.800646
    105          6           0      -31.220531    1.367465    4.107770
    106          6           0      -31.016128   -0.207503    4.346525
    107          6           0      -30.145718   -0.584970    3.176805
    108          6           0      -30.718985    2.346552    5.227352
    109          6           0      -32.273169   -1.050380    4.494227
    110          6           0      -32.284231   -1.943659    5.774111
    111          7           0      -28.558099   -1.515768    0.775362
    112          6           0      -28.821219   -2.341669    1.913031
    113          6           0      -28.282929   -3.640066    1.715822
    114          6           0      -27.729278   -3.552294    0.427414
    115          6           0      -27.886703   -2.236179   -0.054355
    116          6           0      -28.313423   -4.852757    2.589258
    117          6           0      -27.046756   -4.275610   -0.597254
    118          8           0      -26.626465   -5.406868   -0.663251
    119          6           0      -26.929714   -3.343623   -1.836396
    120          6           0      -25.534821   -3.392023   -2.345208
    121          8           0      -24.529322   -2.919375   -1.822705
    122          8           0      -25.577223   -4.008177   -3.530513
    123          6           0      -24.333764   -4.100983   -4.266417
    124          1           0      -28.248019    3.403388   -2.923878
    125          1           0      -30.981320    3.694402    2.708765
    126          1           0      -29.736678   -2.599733    3.781828
    127          1           0      -26.178924   -1.237596   -3.792145
    128          1           0      -27.927269    1.060113   -4.567388
    129          1           0      -25.020913    0.801102   -3.802212
    130          1           0      -25.749625    2.216312   -3.017079
    131          1           0      -25.886799    2.043118   -4.796673
    132          1           0      -29.090474   -0.757362   -4.730111
    133          1           0      -28.810808   -2.047320   -3.604477
    134          1           0      -28.751363   -2.244534   -6.395848
    135          1           0      -27.974959   -3.389831   -5.406236
    136          1           0      -29.847563    5.915906   -2.265437
    137          1           0      -28.243174    5.263465   -2.577957
    138          1           0      -28.453401    6.499010   -1.330757
    139          1           0      -31.304325    7.693406    1.084639
    140          1           0      -31.223858    7.303531   -0.697413
    141          1           0      -29.789102    7.567800    0.297537
    142          1           0      -32.295860    1.544861    4.093104
    143          1           0      -30.419358   -0.341187    5.248890
    144          1           0      -31.619154    2.710564    5.722748
    145          1           0      -30.088623    3.155849    4.858729
    146          1           0      -30.280838    1.799764    6.063142
    147          1           0      -32.486782   -1.690485    3.638803
    148          1           0      -33.054162   -0.318888    4.706523
    149          1           0      -31.427621   -1.717778    6.409376
    150          1           0      -32.094617   -2.990138    5.536164
    151          1           0      -33.199803   -1.801840    6.348690
    152          1           0      -29.348828   -5.172747    2.469221
    153          1           0      -28.001972   -4.527757    3.581725
    154          1           0      -27.685557   -5.657201    2.208761
    155          1           0      -27.533819   -3.855500   -2.586675
    156          1           0      -23.564744   -4.556287   -3.641765
    157          1           0      -23.872757   -3.161444   -4.572976
    158          1           0      -24.540347   -4.735874   -5.128196
 ---------------------------------------------------------------------

 SCF Done:  E(RwB97XD) =  -4070.65163789     A.U. after   19 cycles

 Excitation energies and oscillator strengths:

 Excited State   1:      Singlet-A      1.6649 eV  744.67 nm  f=0.3537  <S**2>=0.000
     309 -> 315        0.17866
     311 -> 314        0.68378
     309 <- 315        0.11335
 This state for optimization and/or second-order correction.
 Total Energy, E(TD-HF/TD-DFT) =  -4070.59045216
 Copying the excited state density for this state as the 1-particle RhoCI density.

 Excited State   2:      Singlet-A      1.6809 eV  737.59 nm  f=0.3893  <S**2>=0.000
     310 -> 316       -0.16571
     312 -> 313        0.68554
     310 <- 316       -0.10525

 Excited State   3:      Singlet-A      2.1965 eV  564.46 nm  f=0.0913  <S**2>=0.000
     309 -> 314        0.62319
     311 -> 315       -0.31718

 Excited State   4:      Singlet-A      2.2342 eV  554.94 nm  f=0.1201  <S**2>=0.000
     310 -> 313        0.63518
     312 -> 316        0.28429

 Excited State   5:      Singlet-A      3.4789 eV  356.39 nm  f=0.0350  <S**2>=0.000
     307 -> 321        0.10569
     308 -> 313        0.60567
     308 -> 318        0.13944
     308 -> 321        0.13278
     312 -> 316        0.21795

 The electronic state is 1-A.
 Alpha  occ. eigenvalues --  -46.95521 -46.94107 -19.31567 -19.30434 -19.25200
 Alpha  occ. eigenvalues --  -19.25005 -19.24786 -19.23713 -19.23463 -19.22369
 Alpha  occ. eigenvalues --  -14.47022 -14.46844 -14.46753 -14.46217 -14.44863
 Alpha  occ. eigenvalues --  -14.44848 -14.43665 -14.43017 -10.43798 -10.42128
 Alpha  occ. eigenvalues --  -10.40757 -10.40266 -10.38745 -10.37086 -10.36318
 Alpha  occ. eigenvalues --  -10.35993 -10.35773 -10.35736 -10.35232 -10.35138
 Alpha  occ. eigenvalues --  -10.35106 -10.35075 -10.34737 -10.34735 -10.34517
 Alpha  occ. eigenvalues --  -10.34450 -10.34425 -10.34046 -10.33633 -10.33283
 Alpha  occ. eigenvalues --  -10.32957 -10.32856 -10.32758 -10.32704 -10.32549
 Alpha  occ. eigenvalues --  -10.32496 -10.32394 -10.32386 -10.32194 -10.32158
 Alpha  occ. eigenvalues --  -10.32130 -10.32057 -10.31990 -10.31972 -10.31813
 Alpha  occ. eigenvalues --  -10.31781 -10.31763 -10.31705 -10.31625 -10.31598
 Alpha  occ. eigenvalues --  -10.31417 -10.31402 -10.31386 -10.31115 -10.31093
 Alpha  occ. eigenvalues --  -10.31088 -10.30993 -10.30828 -10.30678 -10.30626
 Alpha  occ. eigenvalues --  -10.30585 -10.30544 -10.30503 -10.30257 -10.30151
 Alpha  occ. eigenvalues --  -10.30128 -10.29944 -10.29931 -10.29900 -10.29785
 Alpha  occ. eigenvalues --  -10.29606 -10.29580 -10.29553 -10.29228 -10.28561
 Alpha  occ. eigenvalues --  -10.27533  -3.21498  -3.20224  -1.95052  -1.94607
 Alpha  occ. eigenvalues --   -1.94494  -1.93831  -1.93335  -1.93229  -1.19252
 Alpha  occ. eigenvalues --   -1.19008  -1.12621  -1.11524  -1.10902  -1.10534
 Alpha  occ. eigenvalues --   -1.09940  -1.09235  -1.07073  -1.06666  -1.06021
 Alpha  occ. eigenvalues --   -1.05889  -1.05584  -1.04907  -1.04347  -1.04165
 Alpha  occ. eigenvalues --   -0.94584  -0.93351  -0.91605  -0.90809  -0.90710
 Alpha  occ. eigenvalues --   -0.90558  -0.90405  -0.90280  -0.89885  -0.89180
 Alpha  occ. eigenvalues --   -0.88953  -0.88930  -0.88575  -0.88384  -0.86229
 Alpha  occ. eigenvalues --   -0.85866  -0.85763  -0.85411  -0.84400  -0.84250
 Alpha  occ. eigenvalues --   -0.83762  -0.83567  -0.83201  -0.83080  -0.82306
 Alpha  occ. eigenvalues --   -0.82130  -0.80904  -0.79860  -0.79428  -0.79326
 Alpha  occ. eigenvalues --   -0.78685  -0.78663  -0.77801  -0.77493  -0.77237
 Alpha  occ. eigenvalues --   -0.76902  -0.75075  -0.74687  -0.73711  -0.73379
 Alpha  occ. eigenvalues --   -0.71162  -0.71115  -0.70908  -0.70780  -0.69825
 Alpha  occ. eigenvalues --   -0.69600  -0.69321  -0.69276  -0.68040  -0.67361
 Alpha  occ. eigenvalues --   -0.67154  -0.67067  -0.66986  -0.66968  -0.66563
 Alpha  occ. eigenvalues --   -0.66476  -0.64657  -0.64418  -0.62819  -0.61904
 Alpha  occ. eigenvalues --   -0.61603  -0.61528  -0.61139  -0.60936  -0.60594
 Alpha  occ. eigenvalues --   -0.60593  -0.59696  -0.59689  -0.59268  -0.59211
 Alpha  occ. eigenvalues --   -0.58656  -0.57987  -0.57722  -0.57563  -0.57292
 Alpha  occ. eigenvalues --   -0.57230  -0.56954  -0.56347  -0.55740  -0.55708
 Alpha  occ. eigenvalues --   -0.55487  -0.55317  -0.55142  -0.55102  -0.54761
 Alpha  occ. eigenvalues --   -0.54543  -0.54532  -0.54468  -0.54047  -0.53905
 Alpha  occ. eigenvalues --   -0.53665  -0.53523  -0.53282  -0.53207  -0.53164
 Alpha  occ. eigenvalues --   -0.53033  -0.53013  -0.52776  -0.52680  -0.52330
 Alpha  occ. eigenvalues --   -0.52209  -0.51940  -0.51857  -0.51534  -0.51372
 Alpha  occ. eigenvalues --   -0.51235  -0.51191  -0.51016  -0.50602  -0.50480
 Alpha  occ. eigenvalues --   -0.50433  -0.50422  -0.50238  -0.50080  -0.49796
 Alpha  occ. eigenvalues --   -0.49743  -0.49682  -0.49550  -0.49449  -0.49391
 Alpha  occ. eigenvalues --   -0.49112  -0.49089  -0.48813  -0.48637  -0.48505
 Alpha  occ. eigenvalues --   -0.48448  -0.48301  -0.48283  -0.47995  -0.47971
 Alpha  occ. eigenvalues --   -0.47446  -0.47200  -0.47143  -0.46923  -0.46727
 Alpha  occ. eigenvalues --   -0.46613  -0.46469  -0.46376  -0.46344  -0.46221
 Alpha  occ. eigenvalues --   -0.46066  -0.45696  -0.45653  -0.45650  -0.45588
 Alpha  occ. eigenvalues --   -0.45449  -0.45198  -0.44973  -0.44925  -0.44890
 Alpha  occ. eigenvalues --   -0.44529  -0.44505  -0.44365  -0.44263  -0.44091
 Alpha  occ. eigenvalues --   -0.43887  -0.43847  -0.43534  -0.43483  -0.43070
 Alpha  occ. eigenvalues --   -0.43008  -0.42711  -0.42689  -0.42497  -0.42292
 Alpha  occ. eigenvalues --   -0.41968  -0.41612  -0.41603  -0.41266  -0.40712
 Alpha  occ. eigenvalues --   -0.40676  -0.40284  -0.40181  -0.40065  -0.39602
 Alpha  occ. eigenvalues --   -0.39410  -0.39357  -0.38909  -0.38876  -0.38439
 Alpha  occ. eigenvalues --   -0.38380  -0.38311  -0.36843  -0.36770  -0.36213
 Alpha  occ. eigenvalues --   -0.35864  -0.35272  -0.34953  -0.34301  -0.33740
 Alpha  occ. eigenvalues --   -0.33566  -0.33302  -0.33108  -0.32688  -0.32398
 Alpha  occ. eigenvalues --   -0.31936  -0.31665  -0.31293  -0.26128  -0.26041
 Alpha  occ. eigenvalues --   -0.22896  -0.22866
 Alpha virt. eigenvalues --   -0.06915  -0.06910  -0.00117   0.00242   0.02246
 Alpha virt. eigenvalues --    0.02547   0.04069   0.04820   0.04975   0.06465
 Alpha virt. eigenvalues --    0.07161   0.07419   0.08126   0.08446   0.08803

 Mulliken charges:
               1
     1  Mg   0.973252
     2  C   -0.080587
     3  C   -0.110058
     4  C   -0.086216
     5  C   -0.082941
     6  N   -0.403937
     7  C   -0.008541
     8  C   -0.052657
     9  C   -0.092097
    10  C    0.125925
    11  C    0.014000
    12  C    0.023117
    13  C   -0.127709
    14  H    0.043620
    15  N   -0.430126
    16  C    0.152913
    17  C   -0.190543
    18  C   -0.078506
    19  C    0.194543
    20  C    0.116199
    21  C    0.044336
    22  O   -0.256241
    23  C   -0.009140
    24  N   -0.324952
    25  C    0.022986
    26  C   -0.076407
    27  C   -0.052220
    28  C    0.038358
    29  C    0.010506
    30  C   -0.007615
    31  C   -0.058074
    32  N   -0.440839
    33  C    0.101421
    34  C   -0.206495
    35  C   -0.043950
    36  C    0.153077
    37  C    0.107375
    38  C    0.155590
    39  O   -0.229686
    40  C   -0.059874
    41  C    0.289144
    42  O   -0.247454
    43  O   -0.356438
    44  C    0.133470
    45  H    0.007784
    46  H   -0.019747
    47  H   -0.011079
    48  H    0.025050
    49  H    0.032695
    50  H    0.036830
    51  H    0.034830
    52  H    0.038392
    53  H    0.030657
    54  H    0.030155
    55  H    0.066483
    56  H    0.049595
    57  H    0.065652
    58  H    0.072148
    59  H    0.012171
    60  H    0.080664
    61  H    0.058265
    62  H    0.060655
    63  H    0.046728
    64  H    0.034044
    65  H    0.046864
    66  H    0.033548
    67  H    0.037723
    68  H    0.032993
    69  H    0.028777
    70  H    0.039094
    71  H    0.028605
    72  H    0.041146
    73  H    0.021200
    74  H    0.075392
    75  H    0.050532
    76  H    0.064485
    77  H    0.055247
    78  H    0.052208
    79  H    0.053686
    80  Mg   0.983470
    81  C    0.006694
    82  C   -0.113416
    83  C   -0.075903
    84  C   -0.074233
    85  N   -0.350791
    86  C   -0.049211
    87  C   -0.050225
    88  C   -0.097935
    89  C    0.098142
    90  C    0.023321
    91  C    0.001760
    92  C   -0.114974
    93  H    0.031938
    94  N   -0.466414
    95  C    0.153894
    96  C   -0.174180
    97  C   -0.070322
    98  C    0.138074
    99  C    0.077783
   100  C    0.062797
   101  O   -0.243532
   102  C   -0.045565
   103  N   -0.389982
   104  C    0.116172
   105  C   -0.106949
   106  C   -0.048723
   107  C    0.073295
   108  C    0.009946
   109  C    0.001445
   110  C   -0.071391
   111  N   -0.413956
   112  C    0.082204
   113  C   -0.193318
   114  C   -0.037983
   115  C    0.139029
   116  C    0.088149
   117  C    0.083162
   118  O   -0.205354
   119  C   -0.074194
   120  C    0.226127
   121  O   -0.256824
   122  O   -0.333929
   123  C    0.142495
   124  H   -0.000071
   125  H    0.028430
   126  H   -0.008051
   127  H    0.049780
   128  H    0.040041
   129  H    0.051998
   130  H    0.043572
   131  H    0.040179
   132  H    0.030979
   133  H    0.043333
   134  H    0.042774
   135  H    0.062675
   136  H    0.053216
   137  H    0.041053
   138  H    0.058469
   139  H    0.058579
   140  H    0.065461
   141  H    0.052920
   142  H    0.043226
   143  H    0.032383
   144  H    0.027644
   145  H    0.060863
   146  H    0.025933
   147  H    0.049341
   148  H    0.028155
   149  H    0.020865
   150  H    0.037411
   151  H    0.045760
   152  H    0.054237
   153  H    0.052875
   154  H    0.061485
   155  H    0.067077
   156  H    0.054674
   157  H    0.045150
   158  H    0.056992
 Sum of Mulliken charges =  -0.00000

 Dipole moment (field-independent basis, Debye):
    X=             -0.5555    Y=              6.1916    Z=             -1.6554  Tot=              6.4331
 Quadrupole moment (field-independent basis, Debye-Ang):
   XX=           -240.0502   YY=           -551.3666   ZZ=           -470.1125
   XY=            -96.2622   XZ=            102.2776   YZ=            -23.5394

 Normal termination of Gaussian 16 at Mon Sep 20 18:12:41 2021.
