 Gaussian 16, Revision A.03,
 Gaussian 16:  ES64L-G16RevA.03 25-Dec-2016

 --------------------------------
 #p wB97XD/Def2SVP td=(nstates=5)
 --------------------------------

 --------------------------------
 TDDFT excited states in gaussian
 --------------------------------
 Symbolic Z-matrix:
 Charge =  0 Multiplicity = 1

                         Standard orientation:
 ---------------------------------------------------------------------
 Center     Atomic      Atomic             Coordinates (Angstroms)
 Number     Number       Type             X           Y           Z
 ---------------------------------------------------------------------
      1         12           0      -21.860892   -0.707605   -0.228774
      2          6           0      -23.377829    1.971965    1.306288
      3          6           0      -19.769335    1.557403   -1.888208
      4          6           0      -20.379748   -3.271720   -1.849241
      5          6           0      -24.157975   -2.809473    1.121341
      6          7           0      -21.803730    1.560896   -0.462423
      7          6           0      -22.388272    2.422563    0.474114
      8          6           0      -21.769868    3.833813    0.427637
      9          6           0      -20.692694    3.641457   -0.702559
     10          6           0      -20.682672    2.166205   -1.040964
     11          6           0      -20.947257    4.513505   -1.925537
     12          6           0      -21.156030    4.454131    1.732425
     13          6           0      -21.915428    5.741305    2.368178
     14          1           0      -20.986192    6.957348    2.433412
     15          7           0      -20.397100   -0.847664   -1.714248
     16          6           0      -19.568804    0.193508   -2.163504
     17          6           0      -18.439308   -0.321826   -2.944306
     18          6           0      -18.615357   -1.806511   -3.040020
     19          6           0      -19.800565   -2.074650   -2.131271
     20          6           0      -17.372720    0.568408   -3.543002
     21          6           0      -17.856129   -2.824160   -3.752101
     22          8           0      -18.257333   -3.997291   -3.760752
     23          6           0      -16.608463   -2.513399   -4.560229
     24          7           0      -22.287159   -2.661117   -0.384244
     25          6           0      -21.456869   -3.607057   -1.013536
     26          6           0      -21.853290   -5.117777   -0.761294
     27          6           0      -23.128580   -4.887083    0.202523
     28          6           0      -23.179880   -3.348008    0.333154
     29          6           0      -22.198301   -5.949501   -2.093377
     30          6           0      -22.956934   -5.620515    1.577106
     31          6           0      -24.166998   -6.251014    2.192068
     32          7           0      -23.538477   -0.436127    0.911556
     33          6           0      -24.371134   -1.423245    1.446544
     34          6           0      -25.289285   -0.863869    2.378805
     35          6           0      -24.856366    0.512760    2.428447
     36          6           0      -23.857430    0.689389    1.462687
     37          6           0      -26.328657   -1.487306    3.212500
     38          6           0      -25.187553    1.793026    2.971153
     39          8           0      -25.994744    2.204472    3.811840
     40          6           0      -24.310746    2.827777    2.130036
     41          6           0      -25.224190    3.712354    1.359282
     42          8           0      -25.530983    3.640742    0.234624
     43          8           0      -25.621118    4.793281    2.143045
     44          6           0      -25.997860    5.980544    1.404391
     45          1           0      -19.063924    2.262489   -2.332914
     46          1           0      -19.947546   -4.188464   -2.255575
     47          1           0      -24.801509   -3.497638    1.673312
     48          1           0      -22.522044    4.529230    0.056734
     49          1           0      -19.705916    3.975600   -0.380858
     50          1           0      -21.183255    3.868476   -2.771486
     51          1           0      -19.982014    4.994696   -2.078526
     52          1           0      -21.681119    5.308955   -1.797639
     53          1           0      -20.126226    4.737411    1.513376
     54          1           0      -21.149708    3.731618    2.548655
     55          1           0      -22.101130    5.411972    3.390659
     56          1           0      -22.814095    5.973282    1.797049
     57          1           0      -17.834652    1.081049   -4.387662
     58          1           0      -16.562438   -0.068752   -3.894012
     59          1           0      -17.056099    1.373701   -2.879812
     60          1           0      -16.467110   -3.372227   -5.216701
     61          1           0      -15.724521   -2.323258   -3.950569
     62          1           0      -16.682107   -1.727683   -5.311852
     63          1           0      -21.092550   -5.601236   -0.149256
     64          1           0      -24.069110   -5.288317   -0.175678
     65          1           0      -23.041268   -6.606579   -1.878455
     66          1           0      -21.452420   -6.669023   -2.428896
     67          1           0      -22.432870   -5.311569   -2.945736
     68          1           0      -22.480681   -5.012644    2.346203
     69          1           0      -22.310415   -6.494889    1.504885
     70          1           0      -24.358736   -5.657676    3.085954
     71          1           0      -24.103580   -7.236702    2.653052
     72          1           0      -25.007967   -6.185805    1.500917
     73          1           0      -26.041769   -2.522261    3.400702
     74          1           0      -27.215780   -1.474721    2.579406
     75          1           0      -26.535857   -0.831653    4.058461
     76          1           0      -23.713515    3.443509    2.802094
     77          1           0      -26.993873    5.747709    1.029309
     78          1           0      -25.288697    6.048560    0.579583
     79          1           0      -26.043179    6.857828    2.050331
     80         12           0       22.116319   -0.644036    0.287140
     81          6           0       21.373769    2.373865   -1.197047
     82          6           0       22.971621    1.145499    3.259396
     83          6           0       23.183174   -3.429561    1.652915
     84          6           0       21.430015   -2.325939   -2.690062
     85          7           0       22.130930    1.516892    0.873461
     86          6           0       21.758254    2.555834    0.120275
     87          6           0       21.808722    3.854575    0.989410
     88          6           0       22.463337    3.397507    2.372818
     89          6           0       22.587838    1.878632    2.144911
     90          6           0       23.867038    3.890579    2.667171
     91          6           0       20.468670    4.593474    1.123354
     92          6           0       20.612080    6.067571    0.783995
     93          1           0       19.665399    7.115458    1.387190
     94          7           0       22.884150   -1.073361    2.223243
     95          6           0       23.113174   -0.260291    3.295631
     96          6           0       23.562870   -0.966574    4.410909
     97          6           0       23.764812   -2.318218    3.961898
     98          6           0       23.254840   -2.334661    2.547256
     99          6           0       23.826751   -0.336772    5.770905
    100          6           0       24.393072   -3.488048    4.701585
    101          8           0       24.628159   -4.534135    4.066143
    102          6           0       24.836803   -3.378889    6.103203
    103          7           0       22.235957   -2.545903   -0.423218
    104          6           0       22.664352   -3.606276    0.348706
    105          6           0       22.685468   -4.992418   -0.396386
    106          6           0       21.846377   -4.600809   -1.686832
    107          6           0       21.847141   -3.062659   -1.618895
    108          6           0       24.043013   -5.705194   -0.776452
    109          6           0       20.446217   -5.325573   -1.935060
    110          6           0       19.296935   -4.819508   -1.103942
    111          7           0       21.665696   -0.152092   -1.588736
    112          6           0       21.408606   -0.895231   -2.725084
    113          6           0       21.054482   -0.089530   -3.821177
    114          6           0       20.997679    1.182274   -3.239549
    115          6           0       21.373324    1.117953   -1.866071
    116          6           0       20.702140   -0.656232   -5.130243
    117          6           0       20.801949    2.524602   -3.632356
    118          8           0       20.609203    2.956146   -4.770795
    119          6           0       21.008261    3.419787   -2.301545
    120          6           0       22.056457    4.395428   -2.543678
    121          8           0       23.246740    4.184648   -2.592594
    122          8           0       21.528673    5.579999   -2.826615
    123          6           0       22.393621    6.651716   -3.217891
    124          1           0       23.279317    1.705016    4.144757
    125          1           0       23.503027   -4.424719    1.967819
    126          1           0       21.227719   -2.891262   -3.602222
    127          1           0       22.544085    4.429275    0.427230
    128          1           0       21.838957    3.847139    3.145691
    129          1           0       24.257860    4.605411    1.942412
    130          1           0       24.570559    3.058811    2.642662
    131          1           0       23.930924    4.226823    3.702483
    132          1           0       19.988514    4.503326    2.097894
    133          1           0       19.763730    4.120162    0.440282
    134          1           0       20.397387    6.148252   -0.282219
    135          1           0       21.636642    6.334710    1.042169
    136          1           0       23.423623    0.674154    5.831920
    137          1           0       24.900352   -0.183484    5.882566
    138          1           0       23.525559   -1.003889    6.577717
    139          1           0       25.578269   -4.144039    6.335895
    140          1           0       23.967351   -3.590437    6.726390
    141          1           0       25.263379   -2.393728    6.290307
    142          1           0       22.038390   -5.728968    0.081005
    143          1           0       22.387588   -4.947028   -2.566474
    144          1           0       24.857417   -5.079913   -0.412702
    145          1           0       24.193550   -5.621664   -1.853505
    146          1           0       24.189333   -6.740147   -0.465965
    147          1           0       20.586990   -6.360003   -1.622583
    148          1           0       20.155348   -5.383414   -2.983246
    149          1           0       18.396243   -4.946106   -1.703615
    150          1           0       19.308226   -3.816355   -0.679572
    151          1           0       19.258928   -5.452816   -0.217601
    152          1           0       20.238611   -1.641772   -5.166432
    153          1           0       21.458189   -0.568124   -5.909521
    154          1           0       19.964129    0.068813   -5.472451
    155          1           0       20.068762    3.934071   -2.100099
    156          1           0       22.751385    7.228784   -2.364424
    157          1           0       21.793853    7.337300   -3.816233
    158          1           0       23.256458    6.254706   -3.752892
 ---------------------------------------------------------------------

 SCF Done:  E(RwB97XD) =  -4070.60987863     A.U. after   19 cycles

 Excitation energies and oscillator strengths:

 Excited State   1:      Singlet-A      1.6222 eV  764.29 nm  f=0.4036  <S**2>=0.000
     309 -> 315        0.16231
     312 -> 313        0.68600
     309 <- 315        0.10566
 This state for optimization and/or second-order correction.
 Total Energy, E(TD-HF/TD-DFT) =  -4070.55026318
 Copying the excited state density for this state as the 1-particle RhoCI density.

 Excited State   2:      Singlet-A      1.6476 eV  752.50 nm  f=0.4191  <S**2>=0.000
     310 -> 316       -0.17810
     311 -> 314        0.68431
     310 <- 316       -0.11438

 Excited State   3:      Singlet-A      2.1351 eV  580.70 nm  f=0.1215  <S**2>=0.000
     309 -> 313        0.64276
     312 -> 315       -0.25996

 Excited State   4:      Singlet-A      2.1651 eV  572.66 nm  f=0.1567  <S**2>=0.000
     310 -> 314        0.65106
     311 -> 316        0.25707

 Excited State   5:      Singlet-A      3.2509 eV  381.39 nm  f=0.0040  <S**2>=0.000
     305 -> 313        0.47441
     307 -> 313       -0.38305
     308 -> 313       -0.30297
     312 -> 315        0.12203

 The electronic state is 1-A.
 Alpha  occ. eigenvalues --  -46.94321 -46.94073 -19.30047 -19.27391 -19.24457
 Alpha  occ. eigenvalues --  -19.23963 -19.23686 -19.23570 -19.23330 -19.22980
 Alpha  occ. eigenvalues --  -14.47204 -14.46928 -14.46824 -14.46627 -14.44968
 Alpha  occ. eigenvalues --  -14.44361 -14.43596 -14.43162 -10.42126 -10.41908
 Alpha  occ. eigenvalues --  -10.39363 -10.38879 -10.38562 -10.38202 -10.35944
 Alpha  occ. eigenvalues --  -10.35598 -10.35372 -10.35276 -10.35194 -10.35189
 Alpha  occ. eigenvalues --  -10.35177 -10.34960 -10.34841 -10.34765 -10.34757
 Alpha  occ. eigenvalues --  -10.34350 -10.34239 -10.34175 -10.33535 -10.33450
 Alpha  occ. eigenvalues --  -10.33340 -10.33264 -10.33085 -10.33014 -10.32766
 Alpha  occ. eigenvalues --  -10.32649 -10.32520 -10.32472 -10.32440 -10.32340
 Alpha  occ. eigenvalues --  -10.32328 -10.32325 -10.32053 -10.31871 -10.31824
 Alpha  occ. eigenvalues --  -10.31774 -10.31681 -10.31670 -10.31668 -10.31656
 Alpha  occ. eigenvalues --  -10.31632 -10.31444 -10.31422 -10.31390 -10.31269
 Alpha  occ. eigenvalues --  -10.31190 -10.30755 -10.30607 -10.30559 -10.30517
 Alpha  occ. eigenvalues --  -10.30382 -10.30381 -10.30330 -10.30295 -10.30203
 Alpha  occ. eigenvalues --  -10.30122 -10.30057 -10.29894 -10.29821 -10.29759
 Alpha  occ. eigenvalues --  -10.29658 -10.29457 -10.29158 -10.28804 -10.28701
 Alpha  occ. eigenvalues --  -10.28498  -3.20490  -3.20264  -1.94054  -1.93859
 Alpha  occ. eigenvalues --   -1.93628  -1.93482  -1.93412  -1.93243  -1.20129
 Alpha  occ. eigenvalues --   -1.18894  -1.11840  -1.11118  -1.10759  -1.10315
 Alpha  occ. eigenvalues --   -1.09991  -1.09916  -1.06641  -1.06640  -1.05789
 Alpha  occ. eigenvalues --   -1.05465  -1.05366  -1.04616  -1.04083  -1.02724
 Alpha  occ. eigenvalues --   -0.94553  -0.94081  -0.91312  -0.91127  -0.90682
 Alpha  occ. eigenvalues --   -0.90514  -0.90405  -0.90243  -0.89615  -0.89480
 Alpha  occ. eigenvalues --   -0.89295  -0.89150  -0.88763  -0.88677  -0.86555
 Alpha  occ. eigenvalues --   -0.86165  -0.85786  -0.85372  -0.84868  -0.84358
 Alpha  occ. eigenvalues --   -0.84356  -0.83854  -0.83180  -0.82809  -0.82601
 Alpha  occ. eigenvalues --   -0.82202  -0.80788  -0.80348  -0.79342  -0.79286
 Alpha  occ. eigenvalues --   -0.78866  -0.78617  -0.77916  -0.77248  -0.77227
 Alpha  occ. eigenvalues --   -0.77169  -0.75472  -0.75076  -0.73692  -0.73457
 Alpha  occ. eigenvalues --   -0.71594  -0.71366  -0.70863  -0.70615  -0.69907
 Alpha  occ. eigenvalues --   -0.69781  -0.69564  -0.69123  -0.67612  -0.67373
 Alpha  occ. eigenvalues --   -0.67260  -0.67022  -0.66952  -0.66604  -0.66385
 Alpha  occ. eigenvalues --   -0.65912  -0.64333  -0.62853  -0.62455  -0.62235
 Alpha  occ. eigenvalues --   -0.62020  -0.61359  -0.61027  -0.61018  -0.60529
 Alpha  occ. eigenvalues --   -0.60447  -0.60338  -0.60265  -0.59700  -0.59668
 Alpha  occ. eigenvalues --   -0.58537  -0.58529  -0.58129  -0.57511  -0.57263
 Alpha  occ. eigenvalues --   -0.57129  -0.56621  -0.56328  -0.55867  -0.55587
 Alpha  occ. eigenvalues --   -0.55487  -0.55264  -0.55164  -0.54942  -0.54734
 Alpha  occ. eigenvalues --   -0.54607  -0.54483  -0.54271  -0.54267  -0.54097
 Alpha  occ. eigenvalues --   -0.54051  -0.53706  -0.53526  -0.53315  -0.53283
 Alpha  occ. eigenvalues --   -0.53106  -0.52684  -0.52513  -0.52305  -0.52250
 Alpha  occ. eigenvalues --   -0.52147  -0.51972  -0.51962  -0.51700  -0.51637
 Alpha  occ. eigenvalues --   -0.51589  -0.51452  -0.51191  -0.51109  -0.50946
 Alpha  occ. eigenvalues --   -0.50902  -0.50580  -0.50475  -0.50360  -0.50097
 Alpha  occ. eigenvalues --   -0.50016  -0.49951  -0.49743  -0.49321  -0.49239
 Alpha  occ. eigenvalues --   -0.48967  -0.48843  -0.48780  -0.48487  -0.48413
 Alpha  occ. eigenvalues --   -0.48344  -0.48074  -0.47981  -0.47928  -0.47473
 Alpha  occ. eigenvalues --   -0.47382  -0.47346  -0.47224  -0.47090  -0.46900
 Alpha  occ. eigenvalues --   -0.46894  -0.46636  -0.46549  -0.46329  -0.46095
 Alpha  occ. eigenvalues --   -0.45872  -0.45633  -0.45594  -0.45488  -0.45469
 Alpha  occ. eigenvalues --   -0.45298  -0.45234  -0.45014  -0.44872  -0.44644
 Alpha  occ. eigenvalues --   -0.44558  -0.44520  -0.43991  -0.43956  -0.43635
 Alpha  occ. eigenvalues --   -0.43556  -0.43456  -0.43366  -0.43327  -0.43084
 Alpha  occ. eigenvalues --   -0.43044  -0.42941  -0.42925  -0.42599  -0.42413
 Alpha  occ. eigenvalues --   -0.42065  -0.41841  -0.41143  -0.41026  -0.40895
 Alpha  occ. eigenvalues --   -0.40635  -0.40137  -0.39807  -0.39694  -0.39628
 Alpha  occ. eigenvalues --   -0.39258  -0.39203  -0.38663  -0.38365  -0.38146
 Alpha  occ. eigenvalues --   -0.38041  -0.36884  -0.36452  -0.36261  -0.36068
 Alpha  occ. eigenvalues --   -0.35828  -0.35416  -0.35410  -0.33705  -0.33685
 Alpha  occ. eigenvalues --   -0.33525  -0.32750  -0.32587  -0.32254  -0.32218
 Alpha  occ. eigenvalues --   -0.31977  -0.31852  -0.31391  -0.26325  -0.26079
 Alpha  occ. eigenvalues --   -0.23322  -0.23289
 Alpha virt. eigenvalues --   -0.07656  -0.07498  -0.00249   0.00464   0.01775
 Alpha virt. eigenvalues --    0.02501   0.04293   0.04549   0.05233   0.06180
 Alpha virt. eigenvalues --    0.07533   0.07891   0.07892   0.08214   0.08551

 Mulliken charges:
               1
     1  Mg   0.967343
     2  C    0.011832
     3  C   -0.103233
     4  C   -0.069833
     5  C   -0.098397
     6  N   -0.364065
     7  C   -0.034215
     8  C   -0.002806
     9  C   -0.138006
    10  C    0.093026
    11  C    0.019358
    12  C   -0.009107
    13  C   -0.148491
    14  H    0.036385
    15  N   -0.481795
    16  C    0.200761
    17  C   -0.180129
    18  C   -0.027773
    19  C    0.193791
    20  C    0.079850
    21  C    0.021585
    22  O   -0.252849
    23  C   -0.034135
    24  N   -0.410834
    25  C    0.038773
    26  C   -0.045316
    27  C   -0.088395
    28  C    0.134013
    29  C   -0.000913
    30  C   -0.040877
    31  C   -0.058062
    32  N   -0.418892
    33  C    0.119453
    34  C   -0.179146
    35  C   -0.042533
    36  C    0.138795
    37  C    0.103198
    38  C    0.092968
    39  O   -0.217671
    40  C   -0.114426
    41  C    0.257109
    42  O   -0.187469
    43  O   -0.389622
    44  C    0.148318
    45  H   -0.010810
    46  H    0.025959
    47  H   -0.021865
    48  H    0.032291
    49  H    0.032477
    50  H    0.050129
    51  H    0.027205
    52  H    0.046211
    53  H    0.042843
    54  H    0.040618
    55  H    0.074222
    56  H    0.060428
    57  H    0.058532
    58  H    0.036788
    59  H    0.054087
    60  H    0.050780
    61  H    0.073223
    62  H    0.053544
    63  H    0.052002
    64  H    0.039614
    65  H    0.033980
    66  H    0.046059
    67  H    0.057361
    68  H    0.033675
    69  H    0.029685
    70  H    0.026191
    71  H    0.038820
    72  H    0.035120
    73  H    0.041484
    74  H    0.054383
    75  H    0.067144
    76  H    0.052235
    77  H    0.050849
    78  H    0.037012
    79  H    0.060154
    80  Mg   0.992120
    81  C   -0.044742
    82  C   -0.105276
    83  C   -0.051513
    84  C   -0.104039
    85  N   -0.349835
    86  C   -0.028290
    87  C   -0.021360
    88  C   -0.162785
    89  C    0.116074
    90  C    0.006211
    91  C    0.037948
    92  C   -0.145936
    93  H    0.028807
    94  N   -0.425412
    95  C    0.160352
    96  C   -0.175136
    97  C   -0.074131
    98  C    0.171223
    99  C    0.066529
   100  C    0.038157
   101  O   -0.260143
   102  C    0.004591
   103  N   -0.396090
   104  C    0.027592
   105  C   -0.070190
   106  C   -0.076040
   107  C    0.087100
   108  C    0.029246
   109  C   -0.031237
   110  C   -0.058211
   111  N   -0.470251
   112  C    0.132056
   113  C   -0.134421
   114  C   -0.037942
   115  C    0.195442
   116  C    0.072394
   117  C    0.096059
   118  O   -0.219414
   119  C   -0.078144
   120  C    0.235442
   121  O   -0.251467
   122  O   -0.328063
   123  C    0.135805
   124  H   -0.002064
   125  H    0.021850
   126  H   -0.004711
   127  H    0.033220
   128  H    0.042971
   129  H    0.043835
   130  H    0.040428
   131  H    0.035211
   132  H    0.039533
   133  H    0.029997
   134  H    0.063215
   135  H    0.056167
   136  H    0.042414
   137  H    0.057085
   138  H    0.056362
   139  H    0.055907
   140  H    0.067027
   141  H    0.045016
   142  H    0.038412
   143  H    0.027424
   144  H    0.039904
   145  H    0.027347
   146  H    0.056802
   147  H    0.029198
   148  H    0.032952
   149  H    0.037765
   150  H    0.047618
   151  H    0.028748
   152  H    0.045981
   153  H    0.055600
   154  H    0.045368
   155  H    0.065508
   156  H    0.042569
   157  H    0.055532
   158  H    0.066731
 Sum of Mulliken charges =  -0.00000

 Dipole moment (field-independent basis, Debye):
    X=              4.5728    Y=             -1.2058    Z=              2.8460  Tot=              5.5194
 Quadrupole moment (field-independent basis, Debye-Ang):
   XX=           -801.7863   YY=           -469.0049   ZZ=           -511.7935
   XY=             34.1672   XZ=            131.3431   YZ=              6.3388

 Normal termination of Gaussian 16 at Mon Sep 20 14:23:28 2021.
