 Gaussian 16, Revision A.03,
 Gaussian 16:  ES64L-G16RevA.03 25-Dec-2016

 --------------------------------
 #p wB97XD/Def2SVP td=(nstates=5)
 --------------------------------

 --------------------------------
 TDDFT excited states in gaussian
 --------------------------------
 Symbolic Z-matrix:
 Charge =  0 Multiplicity = 1

                         Standard orientation:
 ---------------------------------------------------------------------
 Center     Atomic      Atomic             Coordinates (Angstroms)
 Number     Number       Type             X           Y           Z
 ---------------------------------------------------------------------
      1         12           0      -13.502658   -0.587644    0.281098
      2          6           0      -13.325324    2.717415   -1.007058
      3          6           0      -12.067163    0.745470    3.226294
      4          6           0      -13.267976   -3.620393    1.460800
      5          6           0      -14.630928   -1.679495   -2.822361
      6          7           0      -12.754922    1.536773    1.036938
      7          6           0      -12.912158    2.696664    0.318592
      8          6           0      -12.541585    3.942389    1.105468
      9          6           0      -12.014992    3.245007    2.432345
     10          6           0      -12.325572    1.750777    2.254890
     11          6           0      -10.566993    3.633269    2.716538
     12          6           0      -13.780637    4.836822    1.329670
     13          6           0      -13.593714    6.401841    1.312469
     14          1           0      -12.174094    6.968685    1.549491
     15          7           0      -12.840085   -1.343957    2.128466
     16          6           0      -12.216372   -0.638265    3.157781
     17          6           0      -11.907163   -1.587237    4.239056
     18          6           0      -12.352062   -2.863698    3.763229
     19          6           0      -12.884415   -2.605014    2.411674
     20          6           0      -11.217548   -1.215339    5.440976
     21          6           0      -12.283465   -4.215828    4.465935
     22          8           0      -12.623093   -5.257753    3.883015
     23          6           0      -11.980005   -4.302414    5.910141
     24          7           0      -13.797290   -2.409099   -0.599143
     25          6           0      -13.732727   -3.522267    0.136101
     26          6           0      -14.034179   -4.787228   -0.731584
     27          6           0      -14.647495   -4.142254   -2.014856
     28          6           0      -14.349341   -2.684566   -1.853748
     29          6           0      -12.796521   -5.729015   -0.954516
     30          6           0      -16.195494   -4.424409   -1.918417
     31          6           0      -17.154569   -3.363991   -1.275723
     32          7           0      -14.005673    0.293170   -1.517415
     33          6           0      -14.443913   -0.307041   -2.711735
     34          6           0      -14.569624    0.751339   -3.744402
     35          6           0      -14.091082    1.898697   -3.122641
     36          6           0      -13.788430    1.643477   -1.801860
     37          6           0      -14.810928    0.397115   -5.132465
     38          6           0      -13.715651    3.278348   -3.422076
     39          8           0      -13.774204    3.857809   -4.500731
     40          6           0      -13.165511    3.885557   -2.047134
     41          6           0      -11.774558    4.378228   -2.196311
     42          8           0      -10.751524    3.748384   -1.943690
     43          8           0      -11.806525    5.706669   -2.660968
     44          6           0      -10.592628    6.433321   -2.957197
     45          1           0      -11.862589    1.099817    4.239129
     46          1           0      -13.234565   -4.658065    1.800404
     47          1           0      -15.029846   -2.135319   -3.730633
     48          1           0      -11.760536    4.528736    0.620772
     49          1           0      -12.559608    3.715475    3.250518
     50          1           0      -10.392369    4.069001    3.699652
     51          1           0      -10.101856    4.311418    2.001052
     52          1           0      -10.000183    2.701762    2.746366
     53          1           0      -14.273399    4.587676    2.269386
     54          1           0      -14.418903    4.493764    0.514664
     55          1           0      -14.160065    6.859022    2.123158
     56          1           0      -14.148085    6.741872    0.437752
     57          1           0      -11.833363   -1.571567    6.267047
     58          1           0      -10.888690   -0.177509    5.397033
     59          1           0      -10.287046   -1.767168    5.304057
     60          1           0      -10.935487   -4.099847    6.148808
     61          1           0      -12.170187   -5.317434    6.258424
     62          1           0      -12.523898   -3.500793    6.408994
     63          1           0      -14.742203   -5.267989   -0.056509
     64          1           0      -14.274402   -4.613381   -2.924568
     65          1           0      -12.813400   -6.544400   -0.231234
     66          1           0      -11.912269   -5.093016   -0.928787
     67          1           0      -12.905510   -6.128201   -1.962779
     68          1           0      -16.352884   -5.443933   -1.565849
     69          1           0      -16.526990   -4.302348   -2.950017
     70          1           0      -17.809865   -3.968635   -0.649421
     71          1           0      -17.773014   -2.846806   -2.010440
     72          1           0      -16.687263   -2.624314   -0.626544
     73          1           0      -14.120098   -0.397428   -5.411627
     74          1           0      -14.567136    1.281261   -5.722363
     75          1           0      -15.873817    0.245656   -5.318725
     76          1           0      -13.828845    4.732089   -1.867039
     77          1           0      -10.320122    6.408888   -4.012020
     78          1           0       -9.815922    6.227191   -2.220604
     79          1           0      -10.881051    7.438136   -2.647236
     80         12           0       12.644240   -0.748864   -0.296028
     81          6           0       14.799475    2.049428    0.499523
     82          6           0       10.224715    1.062612    0.844953
     83          6           0       10.904624   -3.496143   -0.833371
     84          6           0       15.566223   -2.861122   -0.754315
     85          7           0       12.543487    1.414081    0.471635
     86          6           0       13.494085    2.379527    0.730721
     87          6           0       12.856560    3.589028    1.313424
     88          6           0       11.503236    3.060417    1.854451
     89          6           0       11.410246    1.740219    1.053560
     90          6           0       11.488085    2.784039    3.373885
     91          6           0       12.585319    4.633733    0.188279
     92          6           0       12.939926    6.134422    0.522633
     93          1           0       13.154603    7.175632   -0.646907
     94          7           0       10.703275   -1.124722   -0.048281
     95          6           0        9.818947   -0.238726    0.325435
     96          6           0        8.503917   -0.843920    0.229944
     97          6           0        8.740582   -2.101999   -0.372478
     98          6           0       10.166216   -2.284649   -0.410704
     99          6           0        7.236110   -0.040561    0.572415
    100          6           0        7.696400   -3.086815   -0.819500
    101          8           0        8.021776   -4.136166   -1.288923
    102          6           0        6.255313   -2.696777   -0.764537
    103          7           0       13.244283   -2.995200   -0.465265
    104          6           0       12.256329   -3.808012   -0.833933
    105          6           0       12.762575   -5.095580   -1.366833
    106          6           0       14.296889   -4.921390   -1.134575
    107          6           0       14.435803   -3.474395   -0.741343
    108          6           0       12.129960   -6.421845   -0.810894
    109          6           0       15.117374   -5.328883   -2.420130
    110          6           0       15.909090   -6.666172   -2.436899
    111          7           0       14.668338   -0.556946   -0.180322
    112          6           0       15.747928   -1.426024   -0.454616
    113          6           0       17.020282   -0.688957   -0.310041
    114          6           0       16.670418    0.611735    0.027052
    115          6           0       15.291881    0.665843    0.144551
    116          6           0       18.430833   -1.323770   -0.368730
    117          6           0       17.277738    1.947066    0.332048
    118          8           0       18.409006    2.371779    0.335645
    119          6           0       16.081325    2.905153    0.825410
    120          6           0       16.169037    4.196275    0.248591
    121          8           0       15.583428    4.487654   -0.803646
    122          8           0       16.983071    5.119227    0.897828
    123          6           0       16.957806    6.546243    0.452350
    124          1           0        9.315952    1.579870    1.157689
    125          1           0       10.325073   -4.389720   -1.073999
    126          1           0       16.453561   -3.479524   -0.898077
    127          1           0       13.427166    3.929302    2.177951
    128          1           0       10.632015    3.693540    1.687567
    129          1           0       10.734949    3.399737    3.866517
    130          1           0       12.479764    3.033327    3.750269
    131          1           0       11.319710    1.741456    3.645104
    132          1           0       11.512906    4.567518    0.003937
    133          1           0       13.112766    4.264842   -0.691158
    134          1           0       13.816760    6.127948    1.169538
    135          1           0       12.075661    6.446460    1.110167
    136          1           0        6.655281    0.090367   -0.341522
    137          1           0        7.396348    0.915785    1.069053
    138          1           0        6.560928   -0.645977    1.176470
    139          1           0        6.028919   -1.845822   -1.406438
    140          1           0        5.884356   -2.319373    0.188319
    141          1           0        5.655839   -3.520354   -1.153224
    142          1           0       12.583673   -5.098090   -2.442057
    143          1           0       14.590583   -5.476626   -0.243493
    144          1           0       11.302936   -6.118191   -0.169920
    145          1           0       12.802515   -7.137384   -0.336531
    146          1           0       11.745871   -6.996740   -1.653721
    147          1           0       15.871580   -4.565447   -2.612955
    148          1           0       14.438543   -5.133739   -3.250306
    149          1           0       15.725414   -7.192960   -3.373163
    150          1           0       15.614428   -7.273174   -1.580678
    151          1           0       16.982232   -6.478150   -2.386349
    152          1           0       18.390316   -2.154204   -1.073039
    153          1           0       18.657327   -1.777694    0.596305
    154          1           0       19.193133   -0.603241   -0.666012
    155          1           0       16.150215    2.992414    1.909327
    156          1           0       15.970833    6.986427    0.601413
    157          1           0       17.440190    6.671657   -0.516277
    158          1           0       17.505685    7.112683    1.205288
 ---------------------------------------------------------------------

 SCF Done:  E(RwB97XD) =  -4070.57803435     A.U. after   19 cycles

 Excitation energies and oscillator strengths:

 Excited State   1:      Singlet-A      1.6947 eV  731.60 nm  f=0.4211  <S**2>=0.000
     310 -> 316       -0.16259
     311 -> 313        0.66353
     312 -> 314       -0.17500
     310 <- 316       -0.10675
 This state for optimization and/or second-order correction.
 Total Energy, E(TD-HF/TD-DFT) =  -4070.51575496
 Copying the excited state density for this state as the 1-particle RhoCI density.

 Excited State   2:      Singlet-A      1.6997 eV  729.43 nm  f=0.3334  <S**2>=0.000
     309 -> 315        0.18806
     311 -> 313        0.17683
     312 -> 314        0.65599
     309 <- 315        0.11287

 Excited State   3:      Singlet-A      2.1228 eV  584.07 nm  f=0.2176  <S**2>=0.000
     310 -> 313        0.67194
     311 -> 316        0.20549

 Excited State   4:      Singlet-A      2.2202 eV  558.44 nm  f=0.0711  <S**2>=0.000
     309 -> 314        0.62144
     312 -> 315       -0.32314

 Excited State   5:      Singlet-A      3.5864 eV  345.71 nm  f=0.0000  <S**2>=0.000
     312 -> 313        0.70703

 The electronic state is 1-A.
 Alpha  occ. eigenvalues --  -46.95773 -46.94906 -19.29301 -19.29187 -19.24890
 Alpha  occ. eigenvalues --  -19.24619 -19.24408 -19.24299 -19.23889 -19.23448
 Alpha  occ. eigenvalues --  -14.46813 -14.46380 -14.45916 -14.44729 -14.44406
 Alpha  occ. eigenvalues --  -14.44363 -14.44360 -14.43590 -10.43404 -10.42318
 Alpha  occ. eigenvalues --  -10.39926 -10.39446 -10.39370 -10.39108 -10.35367
 Alpha  occ. eigenvalues --  -10.35285 -10.35131 -10.35090 -10.34981 -10.34828
 Alpha  occ. eigenvalues --  -10.34731 -10.34610 -10.34525 -10.34514 -10.34284
 Alpha  occ. eigenvalues --  -10.34067 -10.34018 -10.33821 -10.33574 -10.33347
 Alpha  occ. eigenvalues --  -10.33306 -10.33293 -10.33235 -10.32990 -10.32957
 Alpha  occ. eigenvalues --  -10.32841 -10.32281 -10.32265 -10.32241 -10.32237
 Alpha  occ. eigenvalues --  -10.32121 -10.31970 -10.31891 -10.31774 -10.31650
 Alpha  occ. eigenvalues --  -10.31529 -10.31504 -10.31489 -10.31433 -10.31305
 Alpha  occ. eigenvalues --  -10.31292 -10.31291 -10.31261 -10.31141 -10.30847
 Alpha  occ. eigenvalues --  -10.30840 -10.30553 -10.30481 -10.30472 -10.30385
 Alpha  occ. eigenvalues --  -10.30367 -10.30252 -10.30169 -10.30014 -10.29868
 Alpha  occ. eigenvalues --  -10.29679 -10.29589 -10.29540 -10.29446 -10.29389
 Alpha  occ. eigenvalues --  -10.29338 -10.29299 -10.29153 -10.29074 -10.28982
 Alpha  occ. eigenvalues --  -10.28755  -3.21752  -3.20895  -1.95326  -1.94883
 Alpha  occ. eigenvalues --   -1.94714  -1.94491  -1.94032  -1.93851  -1.16888
 Alpha  occ. eigenvalues --   -1.16317  -1.14410  -1.13038  -1.11940  -1.11527
 Alpha  occ. eigenvalues --   -1.09515  -1.08523  -1.07822  -1.06967  -1.06910
 Alpha  occ. eigenvalues --   -1.06878  -1.06167  -1.05151  -1.03437  -1.02954
 Alpha  occ. eigenvalues --   -0.94005  -0.93183  -0.91946  -0.91143  -0.90807
 Alpha  occ. eigenvalues --   -0.90610  -0.90312  -0.89872  -0.89759  -0.89615
 Alpha  occ. eigenvalues --   -0.89378  -0.88709  -0.88167  -0.87118  -0.86268
 Alpha  occ. eigenvalues --   -0.86138  -0.85277  -0.84937  -0.84658  -0.84062
 Alpha  occ. eigenvalues --   -0.83931  -0.83906  -0.82869  -0.82830  -0.82485
 Alpha  occ. eigenvalues --   -0.82369  -0.81036  -0.80763  -0.79080  -0.79031
 Alpha  occ. eigenvalues --   -0.78847  -0.78596  -0.78126  -0.77777  -0.77377
 Alpha  occ. eigenvalues --   -0.76808  -0.74719  -0.74168  -0.73358  -0.73082
 Alpha  occ. eigenvalues --   -0.71199  -0.71198  -0.70943  -0.70709  -0.69961
 Alpha  occ. eigenvalues --   -0.69906  -0.69276  -0.68817  -0.68049  -0.67525
 Alpha  occ. eigenvalues --   -0.67010  -0.66973  -0.66707  -0.66496  -0.66251
 Alpha  occ. eigenvalues --   -0.66230  -0.63597  -0.63481  -0.63044  -0.62439
 Alpha  occ. eigenvalues --   -0.62065  -0.61388  -0.61123  -0.61052  -0.60091
 Alpha  occ. eigenvalues --   -0.60023  -0.59912  -0.59521  -0.59218  -0.59163
 Alpha  occ. eigenvalues --   -0.58564  -0.58349  -0.57631  -0.57540  -0.57473
 Alpha  occ. eigenvalues --   -0.57277  -0.56244  -0.56017  -0.55911  -0.55828
 Alpha  occ. eigenvalues --   -0.55826  -0.55368  -0.55359  -0.55179  -0.55007
 Alpha  occ. eigenvalues --   -0.54786  -0.54589  -0.54371  -0.54250  -0.53924
 Alpha  occ. eigenvalues --   -0.53782  -0.53770  -0.53517  -0.53299  -0.53213
 Alpha  occ. eigenvalues --   -0.52840  -0.52565  -0.52517  -0.52173  -0.52060
 Alpha  occ. eigenvalues --   -0.51970  -0.51792  -0.51783  -0.51629  -0.51614
 Alpha  occ. eigenvalues --   -0.51526  -0.51162  -0.50972  -0.50907  -0.50753
 Alpha  occ. eigenvalues --   -0.50642  -0.50519  -0.50395  -0.50230  -0.50098
 Alpha  occ. eigenvalues --   -0.49933  -0.49691  -0.49620  -0.49461  -0.49377
 Alpha  occ. eigenvalues --   -0.49342  -0.48934  -0.48692  -0.48366  -0.48138
 Alpha  occ. eigenvalues --   -0.48098  -0.48011  -0.47705  -0.47450  -0.47355
 Alpha  occ. eigenvalues --   -0.47298  -0.47011  -0.46868  -0.46724  -0.46565
 Alpha  occ. eigenvalues --   -0.46514  -0.46418  -0.46282  -0.46221  -0.46059
 Alpha  occ. eigenvalues --   -0.45935  -0.45895  -0.45623  -0.45448  -0.45417
 Alpha  occ. eigenvalues --   -0.45358  -0.45270  -0.44983  -0.44902  -0.44713
 Alpha  occ. eigenvalues --   -0.44655  -0.44509  -0.44152  -0.43931  -0.43769
 Alpha  occ. eigenvalues --   -0.43755  -0.43418  -0.43198  -0.42952  -0.42904
 Alpha  occ. eigenvalues --   -0.42673  -0.42550  -0.42279  -0.42263  -0.42086
 Alpha  occ. eigenvalues --   -0.41819  -0.41781  -0.41755  -0.41360  -0.40581
 Alpha  occ. eigenvalues --   -0.40248  -0.39778  -0.39558  -0.39432  -0.39175
 Alpha  occ. eigenvalues --   -0.39093  -0.38690  -0.38464  -0.38200  -0.38164
 Alpha  occ. eigenvalues --   -0.37715  -0.37709  -0.36197  -0.36083  -0.35595
 Alpha  occ. eigenvalues --   -0.35550  -0.35032  -0.34754  -0.33965  -0.33608
 Alpha  occ. eigenvalues --   -0.33269  -0.33261  -0.33220  -0.32855  -0.32758
 Alpha  occ. eigenvalues --   -0.32460  -0.31787  -0.31542  -0.25883  -0.25458
 Alpha  occ. eigenvalues --   -0.23458  -0.22660
 Alpha virt. eigenvalues --   -0.07416  -0.06558   0.00134   0.01582   0.02225
 Alpha virt. eigenvalues --    0.03051   0.04209   0.04720   0.05497   0.06306
 Alpha virt. eigenvalues --    0.06738   0.07003   0.07592   0.07729   0.08231

 Mulliken charges:
               1
     1  Mg   0.958909
     2  C    0.014213
     3  C   -0.116182
     4  C   -0.071745
     5  C   -0.091725
     6  N   -0.268465
     7  C   -0.050267
     8  C   -0.080514
     9  C   -0.081086
    10  C    0.061365
    11  C    0.017945
    12  C   -0.000861
    13  C   -0.101151
    14  H    0.041674
    15  N   -0.420434
    16  C    0.160448
    17  C   -0.187310
    18  C   -0.089496
    19  C    0.145944
    20  C    0.087673
    21  C    0.060861
    22  O   -0.251452
    23  C   -0.004587
    24  N   -0.411530
    25  C    0.041750
    26  C   -0.106347
    27  C   -0.056852
    28  C    0.053209
    29  C    0.041968
    30  C   -0.057159
    31  C   -0.040306
    32  N   -0.481856
    33  C    0.164083
    34  C   -0.192658
    35  C   -0.021547
    36  C    0.160155
    37  C    0.077980
    38  C    0.119527
    39  O   -0.196909
    40  C   -0.104513
    41  C    0.295958
    42  O   -0.245824
    43  O   -0.393054
    44  C    0.148853
    45  H    0.010712
    46  H    0.016682
    47  H   -0.004944
    48  H    0.045854
    49  H    0.028907
    50  H    0.025124
    51  H    0.045132
    52  H    0.026858
    53  H    0.030925
    54  H    0.034469
    55  H    0.044207
    56  H    0.052315
    57  H    0.062389
    58  H    0.037564
    59  H    0.061324
    60  H    0.050475
    61  H    0.063561
    62  H    0.049938
    63  H    0.039402
    64  H    0.036191
    65  H    0.056331
    66  H    0.049360
    67  H    0.029719
    68  H    0.044751
    69  H    0.027510
    70  H    0.033512
    71  H    0.043610
    72  H    0.047278
    73  H    0.057830
    74  H    0.044388
    75  H    0.045975
    76  H    0.075065
    77  H    0.071717
    78  H    0.047119
    79  H    0.040066
    80  Mg   0.973673
    81  C   -0.021015
    82  C   -0.054261
    83  C   -0.053558
    84  C   -0.109982
    85  N   -0.301978
    86  C   -0.007080
    87  C   -0.073143
    88  C   -0.132847
    89  C    0.070311
    90  C    0.036931
    91  C    0.034082
    92  C   -0.096354
    93  H    0.049912
    94  N   -0.460809
    95  C    0.091665
    96  C   -0.147628
    97  C   -0.078488
    98  C    0.134358
    99  C    0.063474
   100  C    0.051990
   101  O   -0.201346
   102  C   -0.020873
   103  N   -0.271167
   104  C    0.014594
   105  C   -0.095311
   106  C   -0.044743
   107  C    0.058106
   108  C    0.023241
   109  C   -0.029504
   110  C   -0.028136
   111  N   -0.485273
   112  C    0.125901
   113  C   -0.223674
   114  C   -0.055404
   115  C    0.152290
   116  C    0.077563
   117  C    0.163253
   118  O   -0.174850
   119  C   -0.083221
   120  C    0.267193
   121  O   -0.273030
   122  O   -0.390036
   123  C    0.157597
   124  H   -0.025724
   125  H    0.021097
   126  H   -0.000219
   127  H    0.020520
   128  H    0.035012
   129  H    0.041830
   130  H    0.027820
   131  H    0.045238
   132  H    0.025067
   133  H    0.073907
   134  H    0.043869
   135  H    0.037006
   136  H    0.048691
   137  H    0.053594
   138  H    0.041920
   139  H    0.050063
   140  H    0.042913
   141  H    0.056331
   142  H    0.045944
   143  H    0.031607
   144  H    0.049284
   145  H    0.037512
   146  H    0.032087
   147  H    0.020881
   148  H    0.014783
   149  H    0.040182
   150  H    0.034875
   151  H    0.038219
   152  H    0.028698
   153  H    0.052655
   154  H    0.061905
   155  H    0.080151
   156  H    0.043652
   157  H    0.073814
   158  H    0.042394
 Sum of Mulliken charges =  -0.00000

 Dipole moment (field-independent basis, Debye):
    X=             -5.2184    Y=              0.3721    Z=              6.5996  Tot=              8.4218
 Quadrupole moment (field-independent basis, Debye-Ang):
   XX=           -624.4626   YY=           -489.4290   ZZ=           -495.2823
   XY=            -17.3170   XZ=            -31.9278   YZ=             38.7840

 Normal termination of Gaussian 16 at Sun Sep 19 05:06:29 2021.
