 Gaussian 16, Revision A.03,
 Gaussian 16:  ES64L-G16RevA.03 25-Dec-2016

 --------------------------------
 #p wB97XD/Def2SVP td=(nstates=5)
 --------------------------------

 --------------------------------
 TDDFT excited states in gaussian
 --------------------------------
 Symbolic Z-matrix:
 Charge =  0 Multiplicity = 1

                         Standard orientation:
 ---------------------------------------------------------------------
 Center     Atomic      Atomic             Coordinates (Angstroms)
 Number     Number       Type             X           Y           Z
 ---------------------------------------------------------------------
      1         12           0      -21.726122    0.458789   -0.240437
      2          6           0      -18.297593    0.383663    0.309645
      3          6           0      -21.191862   -1.188295   -3.332401
      4          6           0      -24.923654   -0.509748   -0.283756
      5          6           0      -22.115028    1.454801    3.118935
      6          7           0      -19.902200   -0.649568   -1.238909
      7          6           0      -18.623490   -0.272972   -0.905127
      8          6           0      -17.622730   -0.799055   -1.885581
      9          6           0      -18.540627   -1.068452   -3.165139
     10          6           0      -19.995338   -1.004188   -2.579076
     11          6           0      -18.338884   -0.057115   -4.403353
     12          6           0      -16.805407   -2.040418   -1.254358
     13          6           0      -15.488883   -2.244766   -1.812230
     14          1           0      -15.265990   -3.667969   -2.366232
     15          7           0      -22.946064   -0.517665   -1.666683
     16          6           0      -22.535616   -1.121511   -2.888127
     17          6           0      -23.727595   -1.627090   -3.547876
     18          6           0      -24.843460   -1.428210   -2.698949
     19          6           0      -24.274974   -0.708894   -1.509781
     20          6           0      -23.660702   -2.380161   -4.824010
     21          6           0      -26.309992   -1.942857   -3.014797
     22          8           0      -26.473850   -2.535171   -4.080303
     23          6           0      -27.522449   -1.466490   -2.222271
     24          7           0      -23.215677    0.399201    1.258996
     25          6           0      -24.482437    0.060444    0.909107
     26          6           0      -25.526178    0.079426    2.190385
     27          6           0      -24.654098    0.927277    3.235479
     28          6           0      -23.253530    0.981534    2.547267
     29          6           0      -26.916711    0.774464    1.933546
     30          6           0      -24.574323    0.277831    4.618332
     31          6           0      -25.065596    1.030680    5.877976
     32          7           0      -20.490555    1.112272    1.279487
     33          6           0      -20.793356    1.511063    2.549003
     34          6           0      -19.598455    1.986928    3.189790
     35          6           0      -18.565288    1.483903    2.312628
     36          6           0      -19.200719    0.924774    1.190783
     37          6           0      -19.493267    2.555055    4.575582
     38          6           0      -17.133758    1.296109    2.201822
     39          8           0      -16.246876    1.754533    2.855793
     40          6           0      -16.837624    0.595588    0.818763
     41          6           0      -16.058754    1.465623   -0.192293
     42          8           0      -16.352668    2.602653   -0.492862
     43          8           0      -14.909848    0.772274   -0.625698
     44          6           0      -13.981910    1.503725   -1.434323
     45          1           0      -20.957717   -1.628497   -4.303116
     46          1           0      -25.887524   -1.004353   -0.147985
     47          1           0      -22.285085    1.777609    4.147688
     48          1           0      -16.977010   -0.014586   -2.281597
     49          1           0      -18.343257   -2.083294   -3.512332
     50          1           0      -18.033236   -0.687986   -5.237930
     51          1           0      -17.600025    0.717950   -4.202087
     52          1           0      -19.319272    0.375584   -4.604724
     53          1           0      -17.429010   -2.899911   -1.499735
     54          1           0      -16.890078   -1.822523   -0.189378
     55          1           0      -14.786192   -2.046306   -1.003835
     56          1           0      -15.331835   -1.572766   -2.655899
     57          1           0      -22.686645   -2.276385   -5.301744
     58          1           0      -24.356856   -1.951561   -5.545396
     59          1           0      -23.829644   -3.445401   -4.664719
     60          1           0      -27.528170   -1.800808   -1.184344
     61          1           0      -28.412198   -1.819756   -2.744506
     62          1           0      -27.533104   -0.377664   -2.273014
     63          1           0      -25.568459   -0.967423    2.489836
     64          1           0      -24.921859    1.981570    3.308599
     65          1           0      -27.711961    0.030660    1.973360
     66          1           0      -26.914781    1.235525    0.945134
     67          1           0      -27.042245    1.518460    2.720926
     68          1           0      -23.577685   -0.113383    4.821436
     69          1           0      -25.077949   -0.685363    4.698711
     70          1           0      -24.312352    1.357039    6.595579
     71          1           0      -25.676676    0.305037    6.415292
     72          1           0      -25.641194    1.917343    5.609528
     73          1           0      -18.543491    3.087783    4.628874
     74          1           0      -19.248975    1.832851    5.353947
     75          1           0      -20.359640    3.126851    4.907022
     76          1           0      -16.208059   -0.247218    1.105489
     77          1           0      -13.534971    0.685355   -1.999718
     78          1           0      -13.154374    1.902544   -0.847875
     79          1           0      -14.486757    2.294132   -1.988296
     80         12           0       20.710687   -0.894303   -0.122478
     81          6           0       21.829715    2.426811   -0.957205
     82          6           0       17.726824    0.357290    0.705696
     83          6           0       20.090308   -3.799541    1.428481
     84          6           0       24.028743   -1.932209   -0.588860
     85          7           0       19.926000    1.134098   -0.081693
     86          6           0       20.460351    2.310058   -0.635296
     87          6           0       19.377745    3.453280   -0.709888
     88          6           0       18.116780    2.760578   -0.110140
     89          6           0       18.591663    1.304762    0.141815
     90          6           0       17.509223    3.377462    1.124092
     91          6           0       19.201887    4.054719   -2.205407
     92          6           0       19.321319    5.579805   -2.314937
     93          1           0       18.048576    6.278960   -2.922113
     94          7           0       19.062303   -1.670594    0.808166
     95          6           0       17.924696   -1.019428    1.070885
     96          6           0       16.971693   -1.867545    1.788924
     97          6           0       17.724495   -3.058189    2.076320
     98          6           0       19.037082   -2.885837    1.445056
     99          6           0       15.603805   -1.448009    2.119228
    100          6           0       17.204620   -4.214203    2.987463
    101          8           0       17.842979   -5.239341    3.158138
    102          6           0       15.886097   -4.160076    3.690984
    103          7           0       21.867950   -2.554921    0.324224
    104          6           0       21.329213   -3.711243    0.878179
    105          6           0       22.394290   -4.855235    0.933609
    106          6           0       23.519130   -4.329734   -0.034334
    107          6           0       23.106133   -2.863982   -0.166121
    108          6           0       22.849377   -5.361624    2.341046
    109          6           0       23.549784   -5.036383   -1.417224
    110          6           0       24.886434   -5.349273   -2.041071
    111          7           0       22.580527    0.033153   -0.610735
    112          6           0       23.819598   -0.522719   -0.757957
    113          6           0       24.768804    0.542389   -1.305112
    114          6           0       24.021181    1.686718   -1.444036
    115          6           0       22.716764    1.349732   -0.943835
    116          6           0       26.198158    0.240855   -1.694304
    117          6           0       24.005090    3.088486   -1.822569
    118          8           0       24.996076    3.704325   -2.267754
    119          6           0       22.532372    3.695445   -1.419299
    120          6           0       22.550970    4.715974   -0.300496
    121          8           0       23.084664    4.453013    0.795349
    122          8           0       22.088778    5.967393   -0.710058
    123          6           0       22.490087    7.031247    0.203027
    124          1           0       16.699012    0.674777    0.892353
    125          1           0       19.781035   -4.736201    1.896246
    126          1           0       25.006527   -2.356787   -0.827735
    127          1           0       19.806541    4.222285   -0.067643
    128          1           0       17.329541    2.945632   -0.842262
    129          1           0       18.067041    4.238175    1.493271
    130          1           0       17.725571    2.585261    1.840027
    131          1           0       16.476362    3.697349    0.983088
    132          1           0       18.213040    3.696977   -2.490938
    133          1           0       19.885599    3.536631   -2.877358
    134          1           0       20.235076    5.779993   -2.874466
    135          1           0       19.448158    6.000731   -1.316703
    136          1           0       15.259941   -1.466685    3.152927
    137          1           0       14.976926   -2.254147    1.739793
    138          1           0       15.231776   -0.583699    1.568644
    139          1           0       15.145080   -4.082042    2.894526
    140          1           0       15.866477   -3.218019    4.239645
    141          1           0       15.845251   -5.057373    4.307200
    142          1           0       21.892759   -5.693957    0.450732
    143          1           0       24.504799   -4.312708    0.430114
    144          1           0       22.181401   -4.851822    3.034945
    145          1           0       23.907864   -5.210730    2.551096
    146          1           0       22.576827   -6.404094    2.510178
    147          1           0       23.018511   -4.269830   -1.981030
    148          1           0       22.951694   -5.945694   -1.480140
    149          1           0       24.788112   -6.354368   -2.451381
    150          1           0       25.701064   -5.379173   -1.316761
    151          1           0       24.965934   -4.700690   -2.913842
    152          1           0       26.376871   -0.810030   -1.467429
    153          1           0       26.854653    0.805550   -1.032687
    154          1           0       26.364014    0.532648   -2.731145
    155          1           0       22.064372    4.084020   -2.323785
    156          1           0       23.227308    7.729678   -0.190516
    157          1           0       22.859646    6.676887    1.165399
    158          1           0       21.585259    7.597963    0.421111
 ---------------------------------------------------------------------

 SCF Done:  E(RwB97XD) =  -4070.56947214     A.U. after   19 cycles

 Excitation energies and oscillator strengths:

 Excited State   1:      Singlet-A      1.6352 eV  758.21 nm  f=0.4250  <S**2>=0.000
     309 -> 315       -0.17752
     311 -> 313        0.68232
     309 <- 315       -0.11593
 This state for optimization and/or second-order correction.
 Total Energy, E(TD-HF/TD-DFT) =  -4070.50937899
 Copying the excited state density for this state as the 1-particle RhoCI density.

 Excited State   2:      Singlet-A      1.6412 eV  755.43 nm  f=0.3798  <S**2>=0.000
     310 -> 316       -0.17767
     312 -> 314        0.68209
     310 <- 316       -0.11609

 Excited State   3:      Singlet-A      2.1961 eV  564.56 nm  f=0.1045  <S**2>=0.000
     309 -> 313        0.63439
     311 -> 315        0.29403

 Excited State   4:      Singlet-A      2.2310 eV  555.73 nm  f=0.0892  <S**2>=0.000
     310 -> 314        0.62832
     312 -> 316        0.31486

 Excited State   5:      Singlet-A      3.3901 eV  365.72 nm  f=0.0210  <S**2>=0.000
     305 -> 313        0.56207
     306 -> 313        0.12559
     308 -> 313       -0.34959
     311 -> 315       -0.15694

 The electronic state is 1-A.
 Alpha  occ. eigenvalues --  -46.96178 -46.94727 -19.31927 -19.30382 -19.25813
 Alpha  occ. eigenvalues --  -19.25688 -19.25058 -19.24788 -19.23517 -19.23276
 Alpha  occ. eigenvalues --  -14.47176 -14.46955 -14.46640 -14.46243 -14.44860
 Alpha  occ. eigenvalues --  -14.44295 -14.43924 -14.43650 -10.44712 -10.43974
 Alpha  occ. eigenvalues --  -10.40602 -10.40443 -10.38846 -10.38004 -10.35934
 Alpha  occ. eigenvalues --  -10.35733 -10.35658 -10.35474 -10.35325 -10.35214
 Alpha  occ. eigenvalues --  -10.35144 -10.34950 -10.34727 -10.34555 -10.34480
 Alpha  occ. eigenvalues --  -10.34350 -10.34107 -10.34031 -10.33757 -10.33626
 Alpha  occ. eigenvalues --  -10.33471 -10.33379 -10.33175 -10.33050 -10.33005
 Alpha  occ. eigenvalues --  -10.32739 -10.32720 -10.32635 -10.32592 -10.32579
 Alpha  occ. eigenvalues --  -10.32373 -10.32328 -10.32282 -10.32170 -10.32131
 Alpha  occ. eigenvalues --  -10.32051 -10.32022 -10.31734 -10.31729 -10.31713
 Alpha  occ. eigenvalues --  -10.31494 -10.31408 -10.31281 -10.31255 -10.31000
 Alpha  occ. eigenvalues --  -10.30982 -10.30973 -10.30766 -10.30615 -10.30540
 Alpha  occ. eigenvalues --  -10.30522 -10.30390 -10.30383 -10.30239 -10.30041
 Alpha  occ. eigenvalues --  -10.29983 -10.29831 -10.29812 -10.29689 -10.29554
 Alpha  occ. eigenvalues --  -10.29453 -10.29354 -10.29328 -10.29232 -10.29194
 Alpha  occ. eigenvalues --  -10.28660  -3.22062  -3.20802  -1.95592  -1.95236
 Alpha  occ. eigenvalues --   -1.94992  -1.94375  -1.93912  -1.93802  -1.18522
 Alpha  occ. eigenvalues --   -1.18262  -1.13018  -1.12581  -1.12274  -1.11335
 Alpha  occ. eigenvalues --   -1.10956  -1.10164  -1.06923  -1.05917  -1.05321
 Alpha  occ. eigenvalues --   -1.04996  -1.04627  -1.04412  -1.03902  -1.03661
 Alpha  occ. eigenvalues --   -0.94628  -0.94220  -0.91128  -0.90986  -0.90595
 Alpha  occ. eigenvalues --   -0.90296  -0.90097  -0.89912  -0.89277  -0.89126
 Alpha  occ. eigenvalues --   -0.88832  -0.88413  -0.88068  -0.87792  -0.86184
 Alpha  occ. eigenvalues --   -0.86025  -0.85548  -0.85267  -0.84646  -0.84610
 Alpha  occ. eigenvalues --   -0.84188  -0.83822  -0.83155  -0.83129  -0.82252
 Alpha  occ. eigenvalues --   -0.82186  -0.80371  -0.79780  -0.79528  -0.79327
 Alpha  occ. eigenvalues --   -0.78866  -0.78719  -0.78135  -0.78081  -0.76921
 Alpha  occ. eigenvalues --   -0.76642  -0.74680  -0.74449  -0.73359  -0.72940
 Alpha  occ. eigenvalues --   -0.71166  -0.71004  -0.70441  -0.70326  -0.69827
 Alpha  occ. eigenvalues --   -0.69436  -0.68669  -0.68506  -0.67875  -0.67256
 Alpha  occ. eigenvalues --   -0.66932  -0.66891  -0.66862  -0.66483  -0.66352
 Alpha  occ. eigenvalues --   -0.66127  -0.64828  -0.64587  -0.62243  -0.61742
 Alpha  occ. eigenvalues --   -0.61725  -0.61465  -0.61011  -0.60880  -0.60556
 Alpha  occ. eigenvalues --   -0.60494  -0.60335  -0.60007  -0.59483  -0.59310
 Alpha  occ. eigenvalues --   -0.58359  -0.58241  -0.57399  -0.57315  -0.57045
 Alpha  occ. eigenvalues --   -0.56971  -0.56845  -0.56721  -0.55954  -0.55698
 Alpha  occ. eigenvalues --   -0.55437  -0.55210  -0.55106  -0.54705  -0.54531
 Alpha  occ. eigenvalues --   -0.54530  -0.54439  -0.54347  -0.54067  -0.53750
 Alpha  occ. eigenvalues --   -0.53722  -0.53618  -0.53539  -0.53438  -0.53174
 Alpha  occ. eigenvalues --   -0.53054  -0.52981  -0.52767  -0.52736  -0.52184
 Alpha  occ. eigenvalues --   -0.52174  -0.52039  -0.51707  -0.51608  -0.51552
 Alpha  occ. eigenvalues --   -0.51331  -0.51177  -0.51072  -0.51058  -0.50740
 Alpha  occ. eigenvalues --   -0.50717  -0.50560  -0.50395  -0.50251  -0.50070
 Alpha  occ. eigenvalues --   -0.49953  -0.49860  -0.49823  -0.49251  -0.49174
 Alpha  occ. eigenvalues --   -0.49019  -0.48949  -0.48919  -0.48675  -0.48418
 Alpha  occ. eigenvalues --   -0.48381  -0.48106  -0.47947  -0.47910  -0.47881
 Alpha  occ. eigenvalues --   -0.47601  -0.47590  -0.47313  -0.47199  -0.46910
 Alpha  occ. eigenvalues --   -0.46763  -0.46494  -0.46457  -0.46311  -0.46064
 Alpha  occ. eigenvalues --   -0.46049  -0.45939  -0.45923  -0.45708  -0.45546
 Alpha  occ. eigenvalues --   -0.45477  -0.45379  -0.45142  -0.45100  -0.44946
 Alpha  occ. eigenvalues --   -0.44808  -0.44748  -0.44646  -0.44589  -0.44453
 Alpha  occ. eigenvalues --   -0.44200  -0.43714  -0.43624  -0.43409  -0.43024
 Alpha  occ. eigenvalues --   -0.42977  -0.42910  -0.42678  -0.42449  -0.42386
 Alpha  occ. eigenvalues --   -0.42082  -0.41733  -0.41417  -0.41020  -0.40636
 Alpha  occ. eigenvalues --   -0.40203  -0.40197  -0.39736  -0.39721  -0.39478
 Alpha  occ. eigenvalues --   -0.39422  -0.39066  -0.38707  -0.38491  -0.38264
 Alpha  occ. eigenvalues --   -0.38026  -0.37595  -0.37077  -0.36777  -0.36425
 Alpha  occ. eigenvalues --   -0.36269  -0.35561  -0.35151  -0.33699  -0.33607
 Alpha  occ. eigenvalues --   -0.33501  -0.33476  -0.32599  -0.32565  -0.32456
 Alpha  occ. eigenvalues --   -0.31966  -0.31927  -0.31320  -0.26283  -0.26087
 Alpha  occ. eigenvalues --   -0.23007  -0.22568
 Alpha virt. eigenvalues --   -0.07146  -0.06756   0.00229   0.00604   0.01985
 Alpha virt. eigenvalues --    0.02490   0.04232   0.04296   0.04470   0.04894
 Alpha virt. eigenvalues --    0.05125   0.06700   0.07011   0.07062   0.08024

 Mulliken charges:
               1
     1  Mg   0.960992
     2  C   -0.078403
     3  C   -0.075636
     4  C   -0.094019
     5  C   -0.090958
     6  N   -0.325487
     7  C   -0.039408
     8  C   -0.084295
     9  C   -0.134166
    10  C    0.034891
    11  C    0.014949
    12  C    0.052888
    13  C   -0.094336
    14  H    0.019840
    15  N   -0.466642
    16  C    0.174669
    17  C   -0.161828
    18  C   -0.102822
    19  C    0.203904
    20  C    0.095445
    21  C    0.076021
    22  O   -0.234435
    23  C   -0.028021
    24  N   -0.403800
    25  C    0.073576
    26  C   -0.123941
    27  C   -0.024147
    28  C    0.034497
    29  C    0.024324
    30  C   -0.029720
    31  C   -0.054246
    32  N   -0.416224
    33  C    0.139509
    34  C   -0.160952
    35  C   -0.085683
    36  C    0.221887
    37  C    0.066623
    38  C    0.109028
    39  O   -0.181794
    40  C   -0.079655
    41  C    0.276122
    42  O   -0.220959
    43  O   -0.387198
    44  C    0.130585
    45  H    0.011396
    46  H   -0.019691
    47  H   -0.007286
    48  H    0.027366
    49  H    0.037130
    50  H    0.043848
    51  H    0.052397
    52  H    0.042191
    53  H    0.036921
    54  H    0.036994
    55  H    0.063415
    56  H    0.049682
    57  H    0.010684
    58  H    0.056790
    59  H    0.066382
    60  H    0.071037
    61  H    0.057654
    62  H    0.067759
    63  H    0.055958
    64  H    0.043579
    65  H    0.039960
    66  H    0.046123
    67  H    0.045244
    68  H    0.031535
    69  H    0.018925
    70  H    0.040054
    71  H    0.034097
    72  H    0.032265
    73  H    0.049837
    74  H    0.043567
    75  H    0.043553
    76  H    0.072437
    77  H    0.046019
    78  H    0.054156
    79  H    0.067043
    80  Mg   0.975936
    81  C   -0.099649
    82  C   -0.080652
    83  C   -0.088280
    84  C   -0.101339
    85  N   -0.370353
    86  C   -0.011360
    87  C   -0.072386
    88  C   -0.107102
    89  C    0.104450
    90  C    0.024216
    91  C    0.006638
    92  C   -0.108832
    93  H    0.027737
    94  N   -0.454596
    95  C    0.113941
    96  C   -0.149581
    97  C   -0.076269
    98  C    0.118149
    99  C    0.069472
   100  C    0.031607
   101  O   -0.238349
   102  C    0.011627
   103  N   -0.401085
   104  C    0.093407
   105  C   -0.058133
   106  C   -0.103793
   107  C    0.063879
   108  C    0.035201
   109  C   -0.016649
   110  C   -0.026199
   111  N   -0.388414
   112  C    0.149066
   113  C   -0.228855
   114  C    0.015743
   115  C    0.154193
   116  C    0.098526
   117  C    0.146803
   118  O   -0.221225
   119  C   -0.037428
   120  C    0.292911
   121  O   -0.256322
   122  O   -0.367208
   123  C    0.121126
   124  H   -0.013986
   125  H    0.016126
   126  H   -0.003799
   127  H    0.041668
   128  H    0.034187
   129  H    0.028915
   130  H    0.041584
   131  H    0.043025
   132  H    0.031991
   133  H    0.037954
   134  H    0.064324
   135  H    0.054509
   136  H    0.046855
   137  H    0.028263
   138  H    0.042618
   139  H    0.049477
   140  H    0.052128
   141  H    0.067761
   142  H    0.030970
   143  H    0.029184
   144  H    0.038595
   145  H    0.045329
   146  H    0.035503
   147  H    0.029347
   148  H    0.034940
   149  H    0.028914
   150  H    0.041851
   151  H    0.043805
   152  H    0.023011
   153  H    0.059010
   154  H    0.067065
   155  H    0.058178
   156  H    0.063432
   157  H    0.072053
   158  H    0.044639
 Sum of Mulliken charges =  -0.00000

 Dipole moment (field-independent basis, Debye):
    X=             -6.4938    Y=             -0.5754    Z=             -1.3724  Tot=              6.6621
 Quadrupole moment (field-independent basis, Debye-Ang):
   XX=           -511.4957   YY=           -517.1053   ZZ=           -511.3639
   XY=            -37.2344   XZ=            -64.4865   YZ=              7.3679

 Normal termination of Gaussian 16 at Sun Sep 19 04:08:31 2021.
