 Gaussian 16, Revision A.03,
 Gaussian 16:  ES64L-G16RevA.03 25-Dec-2016

 --------------------------------
 #p wB97XD/Def2SVP td=(nstates=5)
 --------------------------------

 --------------------------------
 TDDFT excited states in gaussian
 --------------------------------
 Symbolic Z-matrix:
 Charge =  0 Multiplicity = 1

                         Standard orientation:
 ---------------------------------------------------------------------
 Center     Atomic      Atomic             Coordinates (Angstroms)
 Number     Number       Type             X           Y           Z
 ---------------------------------------------------------------------
      1         12           0        4.939090   -0.055468    1.150666
      2          6           0        4.453724   -3.246103   -0.057764
      3          6           0        2.388986   -0.647884    3.353631
      4          6           0        5.209832    3.160743    2.144194
      5          6           0        7.091313    0.622492   -1.494602
      6          7           0        3.498202   -1.786420    1.448264
      7          6           0        3.614993   -2.982240    1.014816
      8          6           0        2.600475   -4.076612    1.632459
      9          6           0        1.741706   -3.097702    2.526808
     10          6           0        2.520216   -1.703149    2.402654
     11          6           0        0.222884   -2.861995    2.022117
     12          6           0        3.283908   -5.260077    2.445255
     13          6           0        2.575353   -6.660922    2.431146
     14          1           0        1.186239   -6.705558    1.869901
     15          7           0        4.025762    1.054004    2.563322
     16          6           0        3.000265    0.611859    3.488545
     17          6           0        2.712721    1.725892    4.386061
     18          6           0        3.439863    2.871783    3.977834
     19          6           0        4.305338    2.382322    2.881020
     20          6           0        1.778926    1.461776    5.511901
     21          6           0        3.497236    4.302963    4.561529
     22          8           0        4.073570    5.231383    4.077697
     23          6           0        2.578291    4.546047    5.775828
     24          7           0        5.906380    1.735496    0.403547
     25          6           0        5.883116    2.910518    0.948575
     26          6           0        6.539664    3.982963    0.033675
     27          6           0        7.236940    3.151274   -1.069468
     28          6           0        6.747114    1.727075   -0.716639
     29          6           0        5.486178    4.976486   -0.500717
     30          6           0        8.784736    3.342272   -1.073806
     31          6           0        9.268617    4.711048   -1.579266
     32          7           0        5.666359   -1.080955   -0.485226
     33          6           0        6.617396   -0.691915   -1.411735
     34          6           0        6.869345   -1.837415   -2.245865
     35          6           0        6.023433   -2.902945   -1.815059
     36          6           0        5.350166   -2.336143   -0.698708
     37          6           0        7.758819   -1.860182   -3.348484
     38          6           0        5.637654   -4.270880   -1.955603
     39          8           0        5.978970   -5.097221   -2.853514
     40          6           0        4.508169   -4.492443   -0.876249
     41          6           0        3.304350   -4.873419   -1.583682
     42          8           0        2.534860   -4.079762   -2.124739
     43          8           0        3.294772   -6.243182   -1.655657
     44          6           0        2.261216   -6.768236   -2.572826
     45          1           0        1.562308   -0.798609    4.050354
     46          1           0        5.261229    4.179305    2.536241
     47          1           0        7.827207    0.865895   -2.264401
     48          1           0        2.020456   -4.398901    0.767324
     49          1           0        1.675512   -3.481763    3.544561
     50          1           0        0.171085   -3.145464    0.970514
     51          1           0       -0.042206   -1.810911    2.135302
     52          1           0       -0.554310   -3.412861    2.552855
     53          1           0        3.279473   -4.897345    3.472776
     54          1           0        4.365160   -5.357278    2.341659
     55          1           0        2.517097   -7.133862    3.411395
     56          1           0        3.124572   -7.328059    1.766711
     57          1           0        0.744235    1.579738    5.188757
     58          1           0        2.049885    1.993387    6.424190
     59          1           0        1.919381    0.419451    5.797153
     60          1           0        2.929736    4.102774    6.708067
     61          1           0        1.644397    4.106887    5.426456
     62          1           0        2.339492    5.587350    5.990013
     63          1           0        7.270092    4.441268    0.699980
     64          1           0        6.809706    3.402394   -2.040270
     65          1           0        4.462181    4.604518   -0.541358
     66          1           0        5.584640    5.323561   -1.529818
     67          1           0        5.533750    5.832765    0.171994
     68          1           0        9.225518    2.608023   -1.746691
     69          1           0        9.180636    3.162848   -0.073648
     70          1           0        8.386804    5.328869   -1.749047
     71          1           0        9.633242    4.598694   -2.600418
     72          1           0       10.050574    5.231851   -1.027153
     73          1           0        8.651292   -1.348719   -2.987724
     74          1           0        7.435421   -1.326039   -4.241759
     75          1           0        7.877778   -2.893849   -3.674893
     76          1           0        4.876705   -5.350789   -0.313919
     77          1           0        2.556696   -6.449788   -3.572914
     78          1           0        1.256215   -6.493517   -2.254225
     79          1           0        2.319092   -7.856119   -2.534033
     80         12           0       -4.064823    1.008021   -1.181231
     81          6           0       -6.774364   -0.995709   -0.104476
     82          6           0       -2.064966   -1.804845   -1.175717
     83          6           0       -1.423081    2.994598   -1.927110
     84          6           0       -6.080304    3.868206   -0.965404
     85          7           0       -4.453266   -1.087316   -0.580657
     86          6           0       -5.671206   -1.734553   -0.386365
     87          6           0       -5.480156   -3.301664   -0.263576
     88          6           0       -3.936273   -3.440202   -0.339382
     89          6           0       -3.413603   -2.023998   -0.668901
     90          6           0       -3.182178   -4.034296    0.908627
     91          6           0       -6.353757   -4.202326   -1.229666
     92          6           0       -7.275433   -5.165568   -0.544800
     93          1           0       -7.457090   -6.569956   -1.245647
     94          7           0       -2.085553    0.605632   -1.480512
     95          6           0       -1.434550   -0.610937   -1.510552
     96          6           0       -0.019965   -0.396179   -1.772329
     97          6           0        0.221410    0.987985   -2.001730
     98          6           0       -1.141746    1.612114   -1.828578
     99          6           0        1.007273   -1.532577   -1.948539
    100          6           0        1.509567    1.712353   -2.379146
    101          8           0        1.568636    2.897444   -2.634965
    102          6           0        2.905851    0.995312   -2.589444
    103          7           0       -3.775511    3.169142   -1.320465
    104          6           0       -2.610309    3.717707   -1.638684
    105          6           0       -2.704569    5.281708   -1.744176
    106          6           0       -4.259195    5.536167   -1.623259
    107          6           0       -4.768506    4.098094   -1.304147
    108          6           0       -1.769983    5.992484   -0.723002
    109          6           0       -4.831162    6.185611   -2.867851
    110          6           0       -5.848332    7.289384   -2.583639
    111          7           0       -5.985207    1.484026   -0.529419
    112          6           0       -6.708486    2.659933   -0.586562
    113          6           0       -7.992195    2.398379   -0.011941
    114          6           0       -8.106579    0.996226    0.157197
    115          6           0       -6.836353    0.443410   -0.167293
    116          6           0       -9.046216    3.403563    0.260138
    117          6           0       -9.035506   -0.096206    0.495404
    118          8           0      -10.176550   -0.110320    0.947861
    119          6           0       -8.106947   -1.520129    0.272066
    120          6           0       -8.087704   -2.276989    1.484784
    121          8           0       -7.142638   -2.345245    2.240404
    122          8           0       -9.236332   -3.024831    1.612679
    123          6           0       -9.285716   -3.784623    2.886640
    124          1           0       -1.428658   -2.682686   -1.307407
    125          1           0       -0.600064    3.685960   -2.117044
    126          1           0       -6.658511    4.794151   -1.010792
    127          1           0       -5.680843   -3.510288    0.786729
    128          1           0       -3.648058   -4.074942   -1.177371
    129          1           0       -2.405166   -4.691665    0.517228
    130          1           0       -3.904264   -4.570381    1.524015
    131          1           0       -2.702654   -3.287541    1.541800
    132          1           0       -5.644181   -4.709700   -1.883400
    133          1           0       -6.984133   -3.523614   -1.804442
    134          1           0       -8.274726   -4.733348   -0.478253
    135          1           0       -6.843371   -5.263354    0.450723
    136          1           0        1.298148   -1.487465   -2.997442
    137          1           0        0.495245   -2.490358   -1.852900
    138          1           0        1.910448   -1.456238   -1.341833
    139          1           0        2.775596    0.226750   -3.352078
    140          1           0        3.396651    0.741021   -1.649535
    141          1           0        3.582722    1.801636   -2.870321
    142          1           0       -2.426471    5.668655   -2.724294
    143          1           0       -4.391776    6.133640   -0.721074
    144          1           0       -2.357856    6.732053   -0.178620
    145          1           0       -0.873098    6.414073   -1.177534
    146          1           0       -1.400724    5.267001    0.000004
    147          1           0       -5.287624    5.458326   -3.538468
    148          1           0       -4.081256    6.616833   -3.532833
    149          1           0       -6.128926    7.311577   -1.530558
    150          1           0       -6.737186    7.039584   -3.163663
    151          1           0       -5.528896    8.259221   -2.965383
    152          1           0       -8.822199    4.442830    0.019836
    153          1           0       -9.433788    3.172253    1.253032
    154          1           0       -9.757959    3.225742   -0.546383
    155          1           0       -8.556441   -2.113713   -0.524505
    156          1           0       -9.238325   -3.095505    3.730121
    157          1           0       -8.475859   -4.512185    2.833555
    158          1           0      -10.219904   -4.328637    3.020514
 ---------------------------------------------------------------------

 SCF Done:  E(RwB97XD) =  -4070.64135172     A.U. after   20 cycles

 Excitation energies and oscillator strengths:

 Excited State   1:      Singlet-A      1.7242 eV  719.10 nm  f=0.2924  <S**2>=0.000
     309 -> 315        0.19774
     311 -> 313        0.67431
     309 <- 315        0.11640
 This state for optimization and/or second-order correction.
 Total Energy, E(TD-HF/TD-DFT) =  -4070.57799011
 Copying the excited state density for this state as the 1-particle RhoCI density.

 Excited State   2:      Singlet-A      1.7948 eV  690.78 nm  f=0.4517  <S**2>=0.000
     310 -> 316       -0.17415
     312 -> 314        0.67916
     310 <- 316       -0.10472

 Excited State   3:      Singlet-A      2.1637 eV  573.01 nm  f=0.0663  <S**2>=0.000
     309 -> 313        0.63516
     311 -> 315       -0.27762

 Excited State   4:      Singlet-A      2.2292 eV  556.18 nm  f=0.1158  <S**2>=0.000
     310 -> 314        0.62771
     312 -> 316        0.28760

 Excited State   5:      Singlet-A      2.8062 eV  441.83 nm  f=0.0000  <S**2>=0.000
     312 -> 313        0.70511

 The electronic state is 1-A.
 Alpha  occ. eigenvalues --  -46.95310 -46.94223 -19.31038 -19.29377 -19.25525
 Alpha  occ. eigenvalues --  -19.25522 -19.24316 -19.24066 -19.23950 -19.23877
 Alpha  occ. eigenvalues --  -14.47371 -14.46630 -14.46587 -14.45958 -14.44855
 Alpha  occ. eigenvalues --  -14.44573 -14.44132 -14.42943 -10.43534 -10.41931
 Alpha  occ. eigenvalues --  -10.40582 -10.39740 -10.39689 -10.39408 -10.36551
 Alpha  occ. eigenvalues --  -10.36422 -10.35894 -10.35770 -10.35384 -10.35274
 Alpha  occ. eigenvalues --  -10.35079 -10.34930 -10.34913 -10.34908 -10.34902
 Alpha  occ. eigenvalues --  -10.34839 -10.34081 -10.33813 -10.33650 -10.33626
 Alpha  occ. eigenvalues --  -10.33609 -10.33576 -10.33376 -10.33366 -10.32723
 Alpha  occ. eigenvalues --  -10.32706 -10.32571 -10.32344 -10.32302 -10.32239
 Alpha  occ. eigenvalues --  -10.32211 -10.31975 -10.31967 -10.31906 -10.31888
 Alpha  occ. eigenvalues --  -10.31882 -10.31685 -10.31644 -10.31609 -10.31491
 Alpha  occ. eigenvalues --  -10.31409 -10.31402 -10.31398 -10.31171 -10.31126
 Alpha  occ. eigenvalues --  -10.30846 -10.30742 -10.30541 -10.30489 -10.30462
 Alpha  occ. eigenvalues --  -10.30373 -10.30192 -10.30167 -10.29944 -10.29922
 Alpha  occ. eigenvalues --  -10.29869 -10.29718 -10.29640 -10.29538 -10.29475
 Alpha  occ. eigenvalues --  -10.29388 -10.29006 -10.28917 -10.28886 -10.28636
 Alpha  occ. eigenvalues --  -10.28484  -3.21369  -3.20189  -1.94959  -1.94496
 Alpha  occ. eigenvalues --   -1.94340  -1.93789  -1.93306  -1.93166  -1.18765
 Alpha  occ. eigenvalues --   -1.17835  -1.15074  -1.13141  -1.11159  -1.10581
 Alpha  occ. eigenvalues --   -1.09584  -1.09436  -1.07998  -1.06801  -1.06034
 Alpha  occ. eigenvalues --   -1.05736  -1.04135  -1.03592  -1.03447  -1.02605
 Alpha  occ. eigenvalues --   -0.95150  -0.93461  -0.91580  -0.90691  -0.90658
 Alpha  occ. eigenvalues --   -0.90226  -0.90134  -0.89888  -0.89557  -0.89374
 Alpha  occ. eigenvalues --   -0.89256  -0.88527  -0.88340  -0.87117  -0.86441
 Alpha  occ. eigenvalues --   -0.86063  -0.85700  -0.85245  -0.84668  -0.84183
 Alpha  occ. eigenvalues --   -0.84034  -0.83540  -0.82750  -0.82468  -0.82282
 Alpha  occ. eigenvalues --   -0.81341  -0.80933  -0.79696  -0.79336  -0.78857
 Alpha  occ. eigenvalues --   -0.78557  -0.78298  -0.78101  -0.77462  -0.77132
 Alpha  occ. eigenvalues --   -0.76255  -0.74683  -0.73934  -0.73768  -0.72988
 Alpha  occ. eigenvalues --   -0.71591  -0.71207  -0.70709  -0.70588  -0.70485
 Alpha  occ. eigenvalues --   -0.69457  -0.69055  -0.68929  -0.68334  -0.67664
 Alpha  occ. eigenvalues --   -0.67255  -0.67241  -0.66632  -0.66519  -0.66249
 Alpha  occ. eigenvalues --   -0.66029  -0.64338  -0.62889  -0.62449  -0.61913
 Alpha  occ. eigenvalues --   -0.61665  -0.61448  -0.60932  -0.60771  -0.60485
 Alpha  occ. eigenvalues --   -0.60456  -0.60155  -0.59701  -0.59451  -0.58639
 Alpha  occ. eigenvalues --   -0.58493  -0.58327  -0.57733  -0.57494  -0.57320
 Alpha  occ. eigenvalues --   -0.57032  -0.56373  -0.56235  -0.55943  -0.55840
 Alpha  occ. eigenvalues --   -0.55656  -0.55409  -0.55404  -0.55115  -0.54787
 Alpha  occ. eigenvalues --   -0.54597  -0.54547  -0.54270  -0.54222  -0.54094
 Alpha  occ. eigenvalues --   -0.53828  -0.53732  -0.53468  -0.53404  -0.53348
 Alpha  occ. eigenvalues --   -0.53211  -0.52997  -0.52674  -0.52518  -0.52234
 Alpha  occ. eigenvalues --   -0.51973  -0.51855  -0.51679  -0.51537  -0.51281
 Alpha  occ. eigenvalues --   -0.51211  -0.51129  -0.50974  -0.50901  -0.50693
 Alpha  occ. eigenvalues --   -0.50562  -0.50301  -0.50291  -0.50025  -0.49872
 Alpha  occ. eigenvalues --   -0.49643  -0.49522  -0.49413  -0.49321  -0.49017
 Alpha  occ. eigenvalues --   -0.48817  -0.48636  -0.48550  -0.48345  -0.48272
 Alpha  occ. eigenvalues --   -0.48171  -0.47952  -0.47856  -0.47517  -0.47497
 Alpha  occ. eigenvalues --   -0.47272  -0.47031  -0.46889  -0.46722  -0.46660
 Alpha  occ. eigenvalues --   -0.46566  -0.46500  -0.46128  -0.46041  -0.46031
 Alpha  occ. eigenvalues --   -0.45846  -0.45670  -0.45529  -0.45430  -0.45343
 Alpha  occ. eigenvalues --   -0.45181  -0.45126  -0.44940  -0.44883  -0.44791
 Alpha  occ. eigenvalues --   -0.44553  -0.44321  -0.44240  -0.44126  -0.43958
 Alpha  occ. eigenvalues --   -0.43931  -0.43814  -0.43507  -0.43486  -0.43283
 Alpha  occ. eigenvalues --   -0.42893  -0.42824  -0.42632  -0.42278  -0.42153
 Alpha  occ. eigenvalues --   -0.41936  -0.41724  -0.41590  -0.41292  -0.41130
 Alpha  occ. eigenvalues --   -0.40600  -0.40308  -0.40238  -0.40023  -0.39647
 Alpha  occ. eigenvalues --   -0.39531  -0.39359  -0.38858  -0.38700  -0.38648
 Alpha  occ. eigenvalues --   -0.38075  -0.37614  -0.37038  -0.36798  -0.36221
 Alpha  occ. eigenvalues --   -0.35990  -0.35485  -0.34953  -0.34212  -0.33737
 Alpha  occ. eigenvalues --   -0.33286  -0.32996  -0.32848  -0.32809  -0.32428
 Alpha  occ. eigenvalues --   -0.31910  -0.31871  -0.30410  -0.26159  -0.25678
 Alpha  occ. eigenvalues --   -0.23575  -0.22816
 Alpha virt. eigenvalues --   -0.07268  -0.06325  -0.00295   0.00513   0.01520
 Alpha virt. eigenvalues --    0.02582   0.03695   0.04592   0.05249   0.06342
 Alpha virt. eigenvalues --    0.06651   0.07056   0.07595   0.08056   0.08292

 Mulliken charges:
               1
     1  Mg   0.955145
     2  C    0.033845
     3  C   -0.074468
     4  C   -0.078782
     5  C   -0.098079
     6  N   -0.277738
     7  C   -0.106567
     8  C   -0.010051
     9  C   -0.132262
    10  C    0.067428
    11  C   -0.004885
    12  C    0.023755
    13  C   -0.131228
    14  H    0.033353
    15  N   -0.533324
    16  C    0.163495
    17  C   -0.144816
    18  C   -0.097450
    19  C    0.149135
    20  C    0.049547
    21  C    0.085813
    22  O   -0.190914
    23  C   -0.046082
    24  N   -0.334307
    25  C    0.040606
    26  C   -0.055353
    27  C   -0.065745
    28  C    0.049418
    29  C    0.012166
    30  C   -0.022801
    31  C   -0.039476
    32  N   -0.428640
    33  C    0.160808
    34  C   -0.180913
    35  C    0.015293
    36  C    0.108363
    37  C    0.057455
    38  C    0.086161
    39  O   -0.253191
    40  C   -0.077399
    41  C    0.274948
    42  O   -0.261190
    43  O   -0.363488
    44  C    0.143856
    45  H    0.000497
    46  H    0.014809
    47  H   -0.004936
    48  H    0.042384
    49  H    0.041407
    50  H    0.030817
    51  H    0.047276
    52  H    0.047029
    53  H    0.018198
    54  H    0.040455
    55  H    0.059847
    56  H    0.064629
    57  H    0.072334
    58  H    0.045244
    59  H    0.042981
    60  H    0.071590
    61  H    0.055068
    62  H    0.051234
    63  H    0.038566
    64  H    0.036557
    65  H    0.051732
    66  H    0.037650
    67  H    0.049889
    68  H    0.028684
    69  H    0.032278
    70  H    0.025786
    71  H    0.026629
    72  H    0.051069
    73  H    0.039773
    74  H    0.049914
    75  H    0.058121
    76  H    0.065746
    77  H    0.069547
    78  H    0.053346
    79  H    0.053023
    80  Mg   0.951540
    81  C    0.013399
    82  C   -0.101091
    83  C   -0.067300
    84  C   -0.068572
    85  N   -0.381285
    86  C   -0.012917
    87  C   -0.051701
    88  C   -0.155257
    89  C    0.110135
    90  C    0.019303
    91  C    0.050129
    92  C   -0.134897
    93  H    0.028457
    94  N   -0.510963
    95  C    0.184994
    96  C   -0.161433
    97  C   -0.050409
    98  C    0.185560
    99  C    0.064733
   100  C    0.033531
   101  O   -0.224195
   102  C   -0.015347
   103  N   -0.318597
   104  C    0.038812
   105  C   -0.121317
   106  C   -0.060222
   107  C    0.020762
   108  C    0.018571
   109  C    0.001365
   110  C   -0.056772
   111  N   -0.463560
   112  C    0.165474
   113  C   -0.210705
   114  C   -0.042704
   115  C    0.159726
   116  C    0.091412
   117  C    0.151096
   118  O   -0.201247
   119  C   -0.163081
   120  C    0.269673
   121  O   -0.252216
   122  O   -0.372152
   123  C    0.150844
   124  H   -0.005632
   125  H    0.019229
   126  H   -0.019879
   127  H    0.049631
   128  H    0.033589
   129  H    0.036468
   130  H    0.041558
   131  H    0.050329
   132  H    0.038551
   133  H    0.035011
   134  H    0.066177
   135  H    0.049501
   136  H    0.054879
   137  H    0.034755
   138  H    0.077129
   139  H    0.068482
   140  H    0.074186
   141  H    0.035854
   142  H    0.039999
   143  H    0.033066
   144  H    0.034144
   145  H    0.050384
   146  H    0.041006
   147  H    0.031037
   148  H    0.027255
   149  H    0.040625
   150  H    0.030855
   151  H    0.040463
   152  H    0.017990
   153  H    0.068453
   154  H    0.043786
   155  H    0.079282
   156  H    0.059266
   157  H    0.048653
   158  H    0.051727
 Sum of Mulliken charges =  -0.00000

 Dipole moment (field-independent basis, Debye):
    X=              4.4273    Y=             -0.5287    Z=              2.5901  Tot=              5.1564
 Quadrupole moment (field-independent basis, Debye-Ang):
   XX=           -563.8064   YY=           -484.5989   ZZ=           -488.8737
   XY=             16.1510   XZ=             21.6187   YZ=            -24.5449

 Normal termination of Gaussian 16 at Mon Sep 20 11:28:31 2021.
