 Gaussian 16, Revision A.03,
 Gaussian 16:  ES64L-G16RevA.03 25-Dec-2016

 --------------------------------
 #p wB97XD/Def2SVP td=(nstates=5)
 --------------------------------

 --------------------------------
 TDDFT excited states in gaussian
 --------------------------------
 Symbolic Z-matrix:
 Charge =  0 Multiplicity = 1

                         Standard orientation:
 ---------------------------------------------------------------------
 Center     Atomic      Atomic             Coordinates (Angstroms)
 Number     Number       Type             X           Y           Z
 ---------------------------------------------------------------------
      1         12           0       13.011284    0.157749    0.219345
      2          6           0        9.887128   -1.079730   -0.667025
      3          6           0       14.098316   -0.382636   -2.923242
      4          6           0       16.193340    0.610161    1.272424
      5          6           0       12.056672   -0.090723    3.622392
      6          7           0       12.011939   -0.551807   -1.520555
      7          6           0       10.696081   -0.873455   -1.772720
      8          6           0       10.511540   -1.283499   -3.259763
      9          6           0       11.988504   -1.545346   -3.687766
     10          6           0       12.762407   -0.679056   -2.704931
     11          6           0       12.447277   -3.042384   -3.582871
     12          6           0        9.652199   -0.203926   -3.942883
     13          6           0        8.617108   -0.738285   -4.857979
     14          1           0        7.521406    0.182342   -5.154628
     15          7           0       14.819098    0.331493   -0.756268
     16          6           0       15.034648    0.127882   -2.081625
     17          6           0       16.330430    0.661192   -2.419272
     18          6           0       16.958293    0.963704   -1.157365
     19          6           0       16.000718    0.551236   -0.127030
     20          6           0       16.867622    0.708027   -3.804786
     21          6           0       18.405371    1.447192   -0.815701
     22          8           0       18.781606    1.669173    0.336973
     23          6           0       19.382698    1.808407   -1.899178
     24          7           0       14.018106   -0.099734    2.202645
     25          6           0       15.374457    0.300074    2.349111
     26          6           0       15.807080    0.423302    3.772647
     27          6           0       14.394485    0.405608    4.442126
     28          6           0       13.393367    0.113018    3.327637
     29          6           0       16.783659   -0.705216    4.248025
     30          6           0       14.022380    1.757997    5.152848
     31          6           0       14.183756    3.036378    4.291409
     32          7           0       11.308807   -0.347354    1.295324
     33          6           0       11.049038   -0.353313    2.674527
     34          6           0        9.701059   -0.754938    2.829038
     35          6           0        9.222837   -1.014129    1.550618
     36          6           0       10.230336   -0.764813    0.678087
     37          6           0        8.957708   -0.819438    4.125157
     38          6           0        8.122621   -1.501737    0.860065
     39          8           0        7.020851   -1.882983    1.295496
     40          6           0        8.433609   -1.583087   -0.664891
     41          6           0        7.370051   -0.634901   -1.301565
     42          8           0        7.342823    0.602929   -1.181856
     43          8           0        6.467656   -1.417877   -2.013333
     44          6           0        5.207831   -0.777726   -2.508915
     45          1           0       14.354790   -0.689722   -3.939375
     46          1           0       17.115388    0.886105    1.789689
     47          1           0       11.647264    0.016275    4.629122
     48          1           0        9.891969   -2.176776   -3.331575
     49          1           0       12.147469   -1.138678   -4.686053
     50          1           0       11.678498   -3.762296   -3.300696
     51          1           0       13.170882   -3.164861   -2.777972
     52          1           0       12.800133   -3.368060   -4.561190
     53          1           0       10.334801    0.343565   -4.591308
     54          1           0        9.220711    0.419112   -3.158998
     55          1           0        8.172020   -1.584249   -4.333942
     56          1           0        9.110924   -1.127522   -5.748121
     57          1           0       16.071130    0.627460   -4.544277
     58          1           0       17.708912    0.016860   -3.866036
     59          1           0       17.294748    1.693700   -3.989809
     60          1           0       20.360389    1.671049   -1.436715
     61          1           0       19.287247    2.859266   -2.173431
     62          1           0       19.309412    1.139207   -2.757005
     63          1           0       16.282368    1.376238    4.009459
     64          1           0       14.363833   -0.405385    5.170475
     65          1           0       16.684845   -1.561703    3.580570
     66          1           0       16.637080   -1.087962    5.258159
     67          1           0       17.843776   -0.450103    4.248405
     68          1           0       14.604567    1.777384    6.074300
     69          1           0       12.993731    1.595782    5.474649
     70          1           0       13.249855    3.587382    4.178606
     71          1           0       14.566915    2.713065    3.323145
     72          1           0       14.900498    3.740031    4.713734
     73          1           0        8.584297   -1.840722    4.199742
     74          1           0        8.172017   -0.064590    4.093983
     75          1           0        9.562486   -0.673131    5.020194
     76          1           0        8.240312   -2.602998   -0.996271
     77          1           0        4.685569   -0.416248   -1.623385
     78          1           0        4.511410   -1.398372   -3.072654
     79          1           0        5.684131    0.003643   -3.101181
     80         12           0      -12.586641   -0.478914   -0.145260
     81          6           0      -11.966293    2.993262    0.209544
     82          6           0       -9.227735   -0.936694   -0.334486
     83          6           0      -13.156764   -3.794271    0.347435
     84          6           0      -15.915721    0.146131    0.589100
     85          7           0      -10.864617    0.963435    0.101372
     86          6           0      -10.800462    2.331256    0.133517
     87          6           0       -9.403889    2.825407    0.053855
     88          6           0       -8.593833    1.543187   -0.458398
     89          6           0       -9.587766    0.460185   -0.211393
     90          6           0       -8.173415    1.681954   -1.912695
     91          6           0       -9.038504    3.386026    1.437265
     92          6           0       -8.493694    4.874776    1.505971
     93          1           0       -7.129420    5.207778    2.181669
     94          7           0      -11.419754   -2.175808   -0.047898
     95          6           0      -10.032213   -2.143311   -0.244596
     96          6           0       -9.577208   -3.496772   -0.354429
     97          6           0      -10.685733   -4.381216   -0.129591
     98          6           0      -11.839242   -3.450429   -0.004719
     99          6           0       -8.121302   -3.806748   -0.677923
    100          6           0      -10.701124   -5.892610   -0.077534
    101          8           0       -9.591365   -6.418219   -0.381916
    102          6           0      -11.841938   -6.838482    0.393298
    103          7           0      -14.312773   -1.699682    0.391601
    104          6           0      -14.290606   -3.046540    0.498342
    105          6           0      -15.661419   -3.650153    0.903603
    106          6           0      -16.574420   -2.376210    0.869317
    107          6           0      -15.502534   -1.207874    0.648077
    108          6           0      -16.057797   -4.728844   -0.088492
    109          6           0      -17.380806   -2.129974    2.107815
    110          6           0      -18.863101   -2.299060    1.912524
    111          7           0      -13.776860    1.138910    0.133873
    112          6           0      -15.145975    1.305873    0.377618
    113          6           0      -15.532500    2.619269    0.269621
    114          6           0      -14.317523    3.326772    0.165257
    115          6           0      -13.286547    2.390015    0.166607
    116          6           0      -16.975246    3.063472    0.153357
    117          6           0      -13.745374    4.684831   -0.034390
    118          8           0      -14.305799    5.729921   -0.153520
    119          6           0      -12.194082    4.436142    0.083612
    120          6           0      -11.527905    5.302628   -0.962834
    121          8           0      -10.933259    6.354087   -0.725607
    122          8           0      -11.641344    4.704842   -2.241519
    123          6           0      -10.904678    5.440898   -3.268543
    124          1           0       -8.182612   -1.081737   -0.616694
    125          1           0      -13.403314   -4.856564    0.413732
    126          1           0      -16.878497    0.407957    1.031465
    127          1           0       -9.346147    3.632295   -0.676801
    128          1           0       -7.692123    1.448744    0.146077
    129          1           0       -8.919669    2.179785   -2.530342
    130          1           0       -8.088917    0.682364   -2.340355
    131          1           0       -7.197219    2.148194   -2.045775
    132          1           0       -8.285541    2.721731    1.861114
    133          1           0       -9.834315    3.290064    2.175900
    134          1           0       -9.288309    5.335671    2.093283
    135          1           0       -8.609944    5.372354    0.543882
    136          1           0       -7.447986   -3.263224   -0.015086
    137          1           0       -7.955588   -3.447220   -1.693421
    138          1           0       -7.782135   -4.834378   -0.540336
    139          1           0      -12.590101   -6.732418   -0.391614
    140          1           0      -12.220416   -6.475772    1.349034
    141          1           0      -11.504787   -7.866493    0.528696
    142          1           0      -15.667456   -4.119455    1.887057
    143          1           0      -17.165143   -2.367965   -0.046335
    144          1           0      -15.215820   -5.414628   -0.184204
    145          1           0      -16.256961   -4.249949   -1.047723
    146          1           0      -16.985185   -5.280080    0.062377
    147          1           0      -17.283622   -1.117157    2.498794
    148          1           0      -17.133269   -2.731617    2.982152
    149          1           0      -19.218856   -3.010191    2.657046
    150          1           0      -19.113844   -2.755628    0.955041
    151          1           0      -19.427334   -1.366249    1.939764
    152          1           0      -16.944988    4.076951   -0.247993
    153          1           0      -17.485765    3.068235    1.116103
    154          1           0      -17.432101    2.341294   -0.522916
    155          1           0      -11.957703    4.947686    1.017361
    156          1           0      -10.604423    4.772797   -4.075866
    157          1           0       -9.942185    5.788048   -2.895469
    158          1           0      -11.450444    6.304083   -3.650523
 ---------------------------------------------------------------------

 SCF Done:  E(RwB97XD) =  -4070.61366109     A.U. after   19 cycles

 Excitation energies and oscillator strengths:

 Excited State   1:      Singlet-A      1.6034 eV  773.24 nm  f=0.4306  <S**2>=0.000
     310 -> 316       -0.16682
     312 -> 314        0.68150
     310 <- 316       -0.11267
 This state for optimization and/or second-order correction.
 Total Energy, E(TD-HF/TD-DFT) =  -4070.55473554
 Copying the excited state density for this state as the 1-particle RhoCI density.

 Excited State   2:      Singlet-A      1.6252 eV  762.90 nm  f=0.3164  <S**2>=0.000
     309 -> 315        0.17841
     311 -> 313        0.67961
     309 <- 315        0.11660

 Excited State   3:      Singlet-A      2.1619 eV  573.50 nm  f=0.1627  <S**2>=0.000
     309 -> 313        0.17443
     310 -> 314        0.61786
     312 -> 316        0.26519

 Excited State   4:      Singlet-A      2.1634 eV  573.09 nm  f=0.1184  <S**2>=0.000
     309 -> 313        0.62251
     310 -> 314       -0.17281
     311 -> 315       -0.26021

 Excited State   5:      Singlet-A      3.2317 eV  383.65 nm  f=0.0021  <S**2>=0.000
     304 -> 313        0.24861
     304 -> 317        0.10086
     307 -> 313        0.63549

 The electronic state is 1-A.
 Alpha  occ. eigenvalues --  -46.95318 -46.94670 -19.30819 -19.30010 -19.25924
 Alpha  occ. eigenvalues --  -19.25001 -19.24838 -19.23739 -19.23319 -19.22760
 Alpha  occ. eigenvalues --  -14.46944 -14.46776 -14.46563 -14.46072 -14.44653
 Alpha  occ. eigenvalues --  -14.43921 -14.43569 -14.43118 -10.44206 -10.43959
 Alpha  occ. eigenvalues --  -10.39631 -10.39448 -10.39238 -10.37677 -10.36015
 Alpha  occ. eigenvalues --  -10.35760 -10.35367 -10.35077 -10.35018 -10.34845
 Alpha  occ. eigenvalues --  -10.34692 -10.34669 -10.34561 -10.34504 -10.34338
 Alpha  occ. eigenvalues --  -10.34234 -10.34216 -10.33372 -10.33165 -10.33017
 Alpha  occ. eigenvalues --  -10.32821 -10.32664 -10.32535 -10.32511 -10.32413
 Alpha  occ. eigenvalues --  -10.32405 -10.32383 -10.32348 -10.32341 -10.32322
 Alpha  occ. eigenvalues --  -10.32216 -10.32213 -10.31997 -10.31982 -10.31835
 Alpha  occ. eigenvalues --  -10.31814 -10.31806 -10.31607 -10.31588 -10.31520
 Alpha  occ. eigenvalues --  -10.31349 -10.31250 -10.31213 -10.31055 -10.31042
 Alpha  occ. eigenvalues --  -10.30915 -10.30865 -10.30790 -10.30768 -10.30531
 Alpha  occ. eigenvalues --  -10.30412 -10.30340 -10.30328 -10.30249 -10.30141
 Alpha  occ. eigenvalues --  -10.29966 -10.29837 -10.29784 -10.29687 -10.29681
 Alpha  occ. eigenvalues --  -10.29638 -10.29397 -10.29262 -10.29087 -10.28974
 Alpha  occ. eigenvalues --  -10.27821  -3.21324  -3.20700  -1.94893  -1.94452
 Alpha  occ. eigenvalues --   -1.94297  -1.94269  -1.93830  -1.93672  -1.17713
 Alpha  occ. eigenvalues --   -1.16618  -1.14238  -1.11662  -1.10198  -1.10129
 Alpha  occ. eigenvalues --   -1.09809  -1.08886  -1.07215  -1.06863  -1.06251
 Alpha  occ. eigenvalues --   -1.05924  -1.05524  -1.05351  -1.04762  -1.04238
 Alpha  occ. eigenvalues --   -0.95245  -0.94552  -0.91744  -0.91218  -0.91019
 Alpha  occ. eigenvalues --   -0.90925  -0.90900  -0.90454  -0.89750  -0.89708
 Alpha  occ. eigenvalues --   -0.89078  -0.88926  -0.88474  -0.87865  -0.86733
 Alpha  occ. eigenvalues --   -0.86495  -0.86164  -0.85447  -0.84522  -0.84058
 Alpha  occ. eigenvalues --   -0.83821  -0.83519  -0.82948  -0.82619  -0.82412
 Alpha  occ. eigenvalues --   -0.82354  -0.80152  -0.79730  -0.79340  -0.78988
 Alpha  occ. eigenvalues --   -0.78866  -0.78776  -0.78384  -0.77966  -0.77421
 Alpha  occ. eigenvalues --   -0.77393  -0.75480  -0.75243  -0.74170  -0.74003
 Alpha  occ. eigenvalues --   -0.71705  -0.71335  -0.70884  -0.70752  -0.69612
 Alpha  occ. eigenvalues --   -0.69524  -0.69210  -0.68490  -0.68207  -0.67627
 Alpha  occ. eigenvalues --   -0.67338  -0.67330  -0.66904  -0.66593  -0.66456
 Alpha  occ. eigenvalues --   -0.66043  -0.65074  -0.63608  -0.62488  -0.62020
 Alpha  occ. eigenvalues --   -0.61874  -0.61760  -0.61565  -0.61137  -0.60928
 Alpha  occ. eigenvalues --   -0.60436  -0.60045  -0.59562  -0.58973  -0.58784
 Alpha  occ. eigenvalues --   -0.58188  -0.57945  -0.57748  -0.57588  -0.57568
 Alpha  occ. eigenvalues --   -0.57267  -0.56983  -0.56818  -0.56738  -0.56276
 Alpha  occ. eigenvalues --   -0.55795  -0.55486  -0.55448  -0.55128  -0.54969
 Alpha  occ. eigenvalues --   -0.54899  -0.54773  -0.54594  -0.54385  -0.54201
 Alpha  occ. eigenvalues --   -0.53968  -0.53857  -0.53638  -0.53631  -0.53396
 Alpha  occ. eigenvalues --   -0.53007  -0.52770  -0.52434  -0.52419  -0.52275
 Alpha  occ. eigenvalues --   -0.52206  -0.51957  -0.51787  -0.51569  -0.51561
 Alpha  occ. eigenvalues --   -0.51337  -0.51094  -0.50820  -0.50816  -0.50689
 Alpha  occ. eigenvalues --   -0.50527  -0.50453  -0.50226  -0.50030  -0.49903
 Alpha  occ. eigenvalues --   -0.49888  -0.49639  -0.49635  -0.49324  -0.49121
 Alpha  occ. eigenvalues --   -0.49004  -0.48805  -0.48522  -0.48513  -0.48384
 Alpha  occ. eigenvalues --   -0.48210  -0.47912  -0.47893  -0.47790  -0.47650
 Alpha  occ. eigenvalues --   -0.47643  -0.47395  -0.47393  -0.47210  -0.47089
 Alpha  occ. eigenvalues --   -0.46769  -0.46548  -0.46406  -0.46075  -0.45949
 Alpha  occ. eigenvalues --   -0.45845  -0.45687  -0.45612  -0.45383  -0.45377
 Alpha  occ. eigenvalues --   -0.45163  -0.45121  -0.45004  -0.44598  -0.44585
 Alpha  occ. eigenvalues --   -0.44386  -0.44335  -0.44304  -0.44280  -0.43947
 Alpha  occ. eigenvalues --   -0.43860  -0.43753  -0.43611  -0.43510  -0.43431
 Alpha  occ. eigenvalues --   -0.43372  -0.43057  -0.42986  -0.42809  -0.42618
 Alpha  occ. eigenvalues --   -0.42156  -0.42001  -0.41870  -0.41061  -0.40920
 Alpha  occ. eigenvalues --   -0.40637  -0.40184  -0.40112  -0.39970  -0.39698
 Alpha  occ. eigenvalues --   -0.39455  -0.39287  -0.39233  -0.38891  -0.38544
 Alpha  occ. eigenvalues --   -0.38324  -0.38099  -0.37338  -0.36643  -0.36178
 Alpha  occ. eigenvalues --   -0.36104  -0.35471  -0.35437  -0.33939  -0.33538
 Alpha  occ. eigenvalues --   -0.33078  -0.32734  -0.32508  -0.32124  -0.32052
 Alpha  occ. eigenvalues --   -0.31916  -0.31914  -0.31537  -0.26282  -0.26159
 Alpha  occ. eigenvalues --   -0.23421  -0.23000
 Alpha virt. eigenvalues --   -0.07651  -0.07355   0.00121   0.00433   0.02360
 Alpha virt. eigenvalues --    0.02604   0.04463   0.04477   0.05037   0.05400
 Alpha virt. eigenvalues --    0.06318   0.07123   0.07425   0.07497   0.08218

 Mulliken charges:
               1
     1  Mg   0.956060
     2  C   -0.066892
     3  C   -0.119122
     4  C   -0.020900
     5  C   -0.102706
     6  N   -0.406899
     7  C    0.020028
     8  C   -0.101636
     9  C   -0.087917
    10  C    0.034053
    11  C    0.034871
    12  C    0.039958
    13  C   -0.123631
    14  H    0.052594
    15  N   -0.463862
    16  C    0.229503
    17  C   -0.175582
    18  C   -0.078305
    19  C    0.188356
    20  C    0.069173
    21  C    0.055825
    22  O   -0.248520
    23  C   -0.006241
    24  N   -0.316432
    25  C   -0.057409
    26  C   -0.058061
    27  C   -0.099820
    28  C    0.111850
    29  C    0.018209
    30  C   -0.021954
    31  C   -0.053858
    32  N   -0.435047
    33  C    0.116991
    34  C   -0.197828
    35  C    0.053958
    36  C    0.194250
    37  C    0.092951
    38  C    0.016690
    39  O   -0.242812
    40  C   -0.028746
    41  C    0.287417
    42  O   -0.268756
    43  O   -0.389705
    44  C    0.142361
    45  H   -0.000968
    46  H    0.018662
    47  H    0.002577
    48  H    0.020136
    49  H    0.019425
    50  H    0.035637
    51  H    0.053101
    52  H    0.043470
    53  H    0.021637
    54  H    0.065515
    55  H    0.039968
    56  H    0.040184
    57  H    0.041088
    58  H    0.067718
    59  H    0.043146
    60  H    0.054718
    61  H    0.075068
    62  H    0.027193
    63  H    0.045795
    64  H    0.030960
    65  H    0.039598
    66  H    0.032805
    67  H    0.042667
    68  H    0.031281
    69  H    0.022921
    70  H    0.046464
    71  H    0.045704
    72  H    0.042306
    73  H    0.058193
    74  H    0.067972
    75  H    0.019686
    76  H    0.066981
    77  H    0.068152
    78  H    0.069442
    79  H    0.058339
    80  Mg   0.971959
    81  C    0.037911
    82  C   -0.077425
    83  C   -0.047484
    84  C   -0.093100
    85  N   -0.359166
    86  C   -0.051880
    87  C   -0.053941
    88  C   -0.081915
    89  C    0.068388
    90  C    0.030575
    91  C    0.005025
    92  C   -0.116349
    93  H    0.048449
    94  N   -0.473453
    95  C    0.150744
    96  C   -0.148524
    97  C   -0.063324
    98  C    0.180218
    99  C    0.070289
   100  C    0.021722
   101  O   -0.276180
   102  C    0.023471
   103  N   -0.303442
   104  C    0.005190
   105  C   -0.045742
   106  C   -0.064910
   107  C    0.055240
   108  C    0.009345
   109  C   -0.002888
   110  C   -0.061483
   111  N   -0.466354
   112  C    0.108706
   113  C   -0.190775
   114  C   -0.079740
   115  C    0.147550
   116  C    0.086697
   117  C    0.122271
   118  O   -0.159565
   119  C   -0.057608
   120  C    0.245688
   121  O   -0.241413
   122  O   -0.390743
   123  C    0.140064
   124  H    0.005897
   125  H   -0.060388
   126  H    0.006836
   127  H    0.035187
   128  H    0.038854
   129  H    0.037910
   130  H    0.024396
   131  H    0.047641
   132  H    0.031622
   133  H    0.047638
   134  H    0.050510
   135  H    0.054678
   136  H    0.034684
   137  H    0.046648
   138  H    0.065233
   139  H    0.062791
   140  H    0.064337
   141  H    0.063562
   142  H    0.043489
   143  H    0.042994
   144  H    0.033490
   145  H    0.024328
   146  H    0.040111
   147  H    0.030983
   148  H    0.026662
   149  H    0.031298
   150  H    0.020805
   151  H    0.039909
   152  H    0.062225
   153  H    0.051999
   154  H    0.046392
   155  H    0.069906
   156  H    0.047184
   157  H    0.044044
   158  H    0.064049
 Sum of Mulliken charges =  -0.00000

 Dipole moment (field-independent basis, Debye):
    X=              0.7391    Y=             -3.6336    Z=             -3.5706  Tot=              5.1477
 Quadrupole moment (field-independent basis, Debye-Ang):
   XX=           -403.7177   YY=           -559.1186   ZZ=           -463.8593
   XY=             69.7758   XZ=            -26.3732   YZ=             -4.3969

 Normal termination of Gaussian 16 at Sun Sep 19 10:25:17 2021.
