 Gaussian 16, Revision A.03,
 Gaussian 16:  ES64L-G16RevA.03 25-Dec-2016

 --------------------------------
 #p wB97XD/Def2SVP td=(nstates=5)
 --------------------------------

 --------------------------------
 TDDFT excited states in gaussian
 --------------------------------
 Symbolic Z-matrix:
 Charge =  0 Multiplicity = 1

                         Standard orientation:
 ---------------------------------------------------------------------
 Center     Atomic      Atomic             Coordinates (Angstroms)
 Number     Number       Type             X           Y           Z
 ---------------------------------------------------------------------
      1         12           0       -9.319615   -0.998231    0.517924
      2          6           0      -10.252010    2.222222   -0.484055
      3          6           0       -7.644606    0.324790    3.187113
      4          6           0       -8.197025   -4.033079    1.203989
      5          6           0      -10.947653   -2.228408   -2.416796
      6          7           0       -8.962082    1.073221    1.220089
      7          6           0       -9.476413    2.251963    0.727418
      8          6           0       -9.246364    3.384602    1.710862
      9          6           0       -8.178129    2.779654    2.705241
     10          6           0       -8.358715    1.257447    2.381166
     11          6           0       -6.757355    3.263030    2.443569
     12          6           0      -10.623363    3.901724    2.266141
     13          6           0      -10.476733    4.913821    3.436133
     14          1           0       -9.232984    5.778132    3.435658
     15          7           0       -8.145741   -1.724781    1.952722
     16          6           0       -7.444376   -1.021720    2.924122
     17          6           0       -6.607259   -1.913737    3.745540
     18          6           0       -6.818308   -3.202337    3.165323
     19          6           0       -7.746066   -3.013259    2.053267
     20          6           0       -5.823574   -1.445132    4.913862
     21          6           0       -6.184545   -4.493242    3.615740
     22          8           0       -6.462452   -5.598741    3.073574
     23          6           0       -5.246688   -4.534592    4.791661
     24          7           0       -9.596685   -2.890711   -0.454371
     25          6           0       -9.006714   -3.964207    0.072004
     26          6           0       -9.212504   -5.228383   -0.873317
     27          6           0      -10.093681   -4.622149   -2.102525
     28          6           0      -10.212813   -3.165649   -1.651815
     29          6           0       -7.788326   -5.780750   -1.291053
     30          6           0      -11.542547   -5.256692   -2.248446
     31          6           0      -11.628891   -6.561439   -3.091314
     32          7           0      -10.313682   -0.239967   -1.142617
     33          6           0      -11.032663   -0.840586   -2.209649
     34          6           0      -11.717851    0.245121   -3.038515
     35          6           0      -11.384687    1.461312   -2.450819
     36          6           0      -10.591740    1.098648   -1.248497
     37          6           0      -12.616535    0.065574   -4.221747
     38          6           0      -11.561871    2.894343   -2.477476
     39          8           0      -12.169844    3.640015   -3.251903
     40          6           0      -10.980197    3.449472   -1.084052
     41          6           0      -10.082481    4.652411   -1.262564
     42          8           0       -8.904913    4.585182   -1.490801
     43          8           0      -10.747445    5.843736   -0.894097
     44          6           0       -9.911544    7.011954   -0.579040
     45          1           0       -7.122450    0.899673    3.955256
     46          1           0       -7.810560   -5.029962    1.426774
     47          1           0      -11.372190   -2.520814   -3.379561
     48          1           0       -8.813428    4.215660    1.155531
     49          1           0       -8.398194    2.904748    3.765934
     50          1           0       -6.421026    3.704746    3.381462
     51          1           0       -6.772225    3.922974    1.576491
     52          1           0       -6.044263    2.444757    2.346301
     53          1           0      -11.176353    2.968053    2.364083
     54          1           0      -11.099442    4.404295    1.424865
     55          1           0      -10.515208    4.274683    4.318291
     56          1           0      -11.338226    5.581049    3.413053
     57          1           0       -4.798088   -1.631887    4.595576
     58          1           0       -6.097014   -1.943301    5.843618
     59          1           0       -5.836322   -0.387210    5.179155
     60          1           0       -5.792753   -4.246251    5.688819
     61          1           0       -4.505010   -3.822981    4.426729
     62          1           0       -4.718512   -5.472951    4.958535
     63          1           0       -9.801894   -5.862917   -0.210290
     64          1           0       -9.588090   -4.467881   -3.056720
     65          1           0       -6.948000   -5.209022   -0.897625
     66          1           0       -7.692452   -5.771861   -2.377124
     67          1           0       -7.712730   -6.764272   -0.828237
     68          1           0      -12.297154   -4.512174   -2.500529
     69          1           0      -11.832491   -5.555681   -1.241676
     70          1           0      -12.097281   -7.312235   -2.455888
     71          1           0      -10.628217   -6.811464   -3.444027
     72          1           0      -12.262834   -6.439853   -3.969949
     73          1           0      -13.624488    0.289723   -3.871946
     74          1           0      -12.535669   -0.951819   -4.606373
     75          1           0      -12.472069    0.727206   -5.075585
     76          1           0      -11.849075    3.688283   -0.471450
     77          1           0       -9.613654    7.408778   -1.549187
     78          1           0       -9.117368    6.742875    0.117659
     79          1           0      -10.552257    7.702333   -0.031092
     80         12           0        9.527335   -0.498570   -0.286478
     81          6           0        7.915784    2.755115   -0.266023
     82          6           0       12.344702    1.154939    0.546130
     83          6           0       10.937984   -3.363187   -0.369084
     84          6           0        6.503466   -1.902358   -1.479151
     85          7           0       10.043732    1.816142    0.136590
     86          6           0        9.220821    2.878475    0.170045
     87          6           0        9.965410    4.112294    0.714886
     88          6           0       11.453404    3.572304    0.485066
     89          6           0       11.287041    2.111345    0.446572
     90          6           0       12.316694    4.258539   -0.560296
     91          6           0        9.532729    4.347056    2.172483
     92          6           0        9.687630    5.830948    2.618247
     93          1           0        9.964757    7.027108    1.594862
     94          7           0       11.420624   -1.080674    0.092059
     95          6           0       12.499222   -0.253924    0.341557
     96          6           0       13.692582   -1.089314    0.435611
     97          6           0       13.282533   -2.432033    0.245414
     98          6           0       11.822255   -2.316317   -0.029350
     99          6           0       15.042242   -0.576696    0.677666
    100          6           0       14.137390   -3.802544    0.328950
    101          8           0       13.603457   -4.877761    0.313867
    102          6           0       15.622759   -3.800501    0.732587
    103          7           0        8.866525   -2.318187   -1.111535
    104          6           0        9.614375   -3.390687   -0.864648
    105          6           0        8.958824   -4.699491   -1.214731
    106          6           0        7.478286   -4.248677   -1.171643
    107          6           0        7.655202   -2.711481   -1.422428
    108          6           0        9.360705   -5.273355   -2.652540
    109          6           0        6.673300   -4.615631    0.145024
    110          6           0        7.053889   -5.886677    0.958728
    111          7           0        7.648688    0.227242   -0.883784
    112          6           0        6.517350   -0.410243   -1.274223
    113          6           0        5.429978    0.456990   -1.342322
    114          6           0        5.956036    1.673185   -1.011866
    115          6           0        7.296457    1.527526   -0.713680
    116          6           0        3.987042    0.066754   -1.650567
    117          6           0        5.549797    3.074030   -0.823882
    118          8           0        4.536452    3.694089   -1.109710
    119          6           0        6.844593    3.793874   -0.243845
    120          6           0        7.089908    4.971246   -1.058213
    121          8           0        7.607626    5.004940   -2.179081
    122          8           0        6.413442    5.989855   -0.487551
    123          6           0        6.254639    7.122599   -1.381842
    124          1           0       13.280035    1.711789    0.633764
    125          1           0       11.462499   -4.318733   -0.425275
    126          1           0        5.570157   -2.396994   -1.755481
    127          1           0        9.834576    4.978804    0.066579
    128          1           0       11.988021    3.789205    1.408850
    129          1           0       13.152490    4.796079   -0.113438
    130          1           0       11.717975    4.959166   -1.142019
    131          1           0       12.712561    3.586044   -1.321342
    132          1           0       10.230300    3.800908    2.807868
    133          1           0        8.539056    3.966414    2.408042
    134          1           0       10.383426    5.931383    3.451862
    135          1           0        8.775832    5.982474    3.195803
    136          1           0       15.023629    0.389041    1.182301
    137          1           0       15.495839   -0.497778   -0.310473
    138          1           0       15.656736   -1.221186    1.306642
    139          1           0       15.800101   -3.476177    1.757969
    140          1           0       16.118822   -3.242453   -0.061821
    141          1           0       16.041713   -4.798838    0.603794
    142          1           0        9.309461   -5.362142   -0.423859
    143          1           0        6.885476   -4.649264   -1.993600
    144          1           0        9.558367   -6.319617   -2.420497
    145          1           0       10.256711   -4.824550   -3.082750
    146          1           0        8.578312   -5.244579   -3.409957
    147          1           0        5.611162   -4.641640   -0.094289
    148          1           0        6.971124   -3.791818    0.793910
    149          1           0        7.845403   -5.657940    1.671959
    150          1           0        7.289517   -6.617046    0.183898
    151          1           0        6.200182   -6.307529    1.488795
    152          1           0        3.899177   -0.957701   -1.288030
    153          1           0        3.770991    0.026622   -2.717787
    154          1           0        3.327717    0.752426   -1.118662
    155          1           0        6.606001    4.071332    0.783665
    156          1           0        5.690251    7.944737   -0.942705
    157          1           0        5.946681    6.899206   -2.403424
    158          1           0        7.217216    7.603905   -1.558133
 ---------------------------------------------------------------------

 SCF Done:  E(RwB97XD) =  -4070.59869497     A.U. after   20 cycles

 Excitation energies and oscillator strengths:

 Excited State   1:      Singlet-A      1.6544 eV  749.43 nm  f=0.3924  <S**2>=0.000
     309 -> 315        0.20542
     312 -> 314        0.67790
     309 <- 315        0.12140
 This state for optimization and/or second-order correction.
 Total Energy, E(TD-HF/TD-DFT) =  -4070.53789744
 Copying the excited state density for this state as the 1-particle RhoCI density.

 Excited State   2:      Singlet-A      1.7988 eV  689.26 nm  f=0.3669  <S**2>=0.000
     310 -> 316       -0.19143
     311 -> 313        0.67933
     310 <- 316       -0.11149

 Excited State   3:      Singlet-A      2.1924 eV  565.51 nm  f=0.1446  <S**2>=0.000
     310 -> 313        0.65236
     311 -> 316        0.25640

 Excited State   4:      Singlet-A      2.2345 eV  554.85 nm  f=0.0354  <S**2>=0.000
     309 -> 314        0.58749
     312 -> 315       -0.38581

 Excited State   5:      Singlet-A      3.4696 eV  357.35 nm  f=0.0000  <S**2>=0.000
     312 -> 313        0.70679

 The electronic state is 1-A.
 Alpha  occ. eigenvalues --  -46.95693 -46.94281 -19.30100 -19.29052 -19.25596
 Alpha  occ. eigenvalues --  -19.25052 -19.24125 -19.23859 -19.23694 -19.23345
 Alpha  occ. eigenvalues --  -14.46595 -14.46083 -14.45996 -14.45667 -14.44567
 Alpha  occ. eigenvalues --  -14.44440 -14.44369 -14.43205 -10.43112 -10.42027
 Alpha  occ. eigenvalues --  -10.41030 -10.39439 -10.39128 -10.38800 -10.35426
 Alpha  occ. eigenvalues --  -10.35319 -10.34863 -10.34850 -10.34798 -10.34700
 Alpha  occ. eigenvalues --  -10.34631 -10.34527 -10.34261 -10.34250 -10.34235
 Alpha  occ. eigenvalues --  -10.34223 -10.34035 -10.33658 -10.33574 -10.33564
 Alpha  occ. eigenvalues --  -10.33453 -10.33353 -10.33277 -10.33230 -10.33105
 Alpha  occ. eigenvalues --  -10.32715 -10.32470 -10.32358 -10.32234 -10.32152
 Alpha  occ. eigenvalues --  -10.32129 -10.32060 -10.31987 -10.31667 -10.31647
 Alpha  occ. eigenvalues --  -10.31640 -10.31589 -10.31569 -10.31545 -10.31473
 Alpha  occ. eigenvalues --  -10.31439 -10.31432 -10.31306 -10.31284 -10.31136
 Alpha  occ. eigenvalues --  -10.31053 -10.30970 -10.30845 -10.30515 -10.30506
 Alpha  occ. eigenvalues --  -10.30274 -10.30210 -10.30139 -10.29957 -10.29954
 Alpha  occ. eigenvalues --  -10.29916 -10.29864 -10.29459 -10.29428 -10.29419
 Alpha  occ. eigenvalues --  -10.29371 -10.29318 -10.29103 -10.29066 -10.29031
 Alpha  occ. eigenvalues --  -10.27685  -3.21647  -3.20380  -1.95238  -1.94788
 Alpha  occ. eigenvalues --   -1.94597  -1.93980  -1.93493  -1.93384  -1.18647
 Alpha  occ. eigenvalues --   -1.17452  -1.14890  -1.11643  -1.11235  -1.09916
 Alpha  occ. eigenvalues --   -1.09815  -1.08797  -1.07803  -1.07231  -1.06731
 Alpha  occ. eigenvalues --   -1.06184  -1.05422  -1.05343  -1.04693  -1.03266
 Alpha  occ. eigenvalues --   -0.94296  -0.93437  -0.91178  -0.90720  -0.90623
 Alpha  occ. eigenvalues --   -0.90279  -0.89955  -0.89624  -0.89508  -0.89353
 Alpha  occ. eigenvalues --   -0.88829  -0.88515  -0.88108  -0.87484  -0.86303
 Alpha  occ. eigenvalues --   -0.86006  -0.85002  -0.84716  -0.84266  -0.83999
 Alpha  occ. eigenvalues --   -0.83889  -0.83692  -0.82666  -0.82550  -0.82066
 Alpha  occ. eigenvalues --   -0.81820  -0.80810  -0.80630  -0.79219  -0.78749
 Alpha  occ. eigenvalues --   -0.78740  -0.78530  -0.77639  -0.77546  -0.77195
 Alpha  occ. eigenvalues --   -0.76348  -0.74712  -0.73932  -0.73634  -0.73295
 Alpha  occ. eigenvalues --   -0.71600  -0.71199  -0.70719  -0.70402  -0.70154
 Alpha  occ. eigenvalues --   -0.69578  -0.68957  -0.68820  -0.67402  -0.67291
 Alpha  occ. eigenvalues --   -0.67051  -0.66971  -0.66613  -0.65767  -0.65663
 Alpha  occ. eigenvalues --   -0.65619  -0.63776  -0.63120  -0.62876  -0.62532
 Alpha  occ. eigenvalues --   -0.61482  -0.61323  -0.61227  -0.60561  -0.60372
 Alpha  occ. eigenvalues --   -0.59857  -0.59581  -0.59475  -0.59381  -0.58636
 Alpha  occ. eigenvalues --   -0.58589  -0.57998  -0.57665  -0.57400  -0.57146
 Alpha  occ. eigenvalues --   -0.56525  -0.56395  -0.55991  -0.55979  -0.55769
 Alpha  occ. eigenvalues --   -0.55744  -0.55547  -0.55473  -0.55043  -0.54952
 Alpha  occ. eigenvalues --   -0.54858  -0.54317  -0.54192  -0.54018  -0.53684
 Alpha  occ. eigenvalues --   -0.53677  -0.53529  -0.53217  -0.53216  -0.53067
 Alpha  occ. eigenvalues --   -0.52955  -0.52666  -0.52638  -0.52408  -0.52260
 Alpha  occ. eigenvalues --   -0.51934  -0.51920  -0.51653  -0.51320  -0.51227
 Alpha  occ. eigenvalues --   -0.51090  -0.51064  -0.50883  -0.50790  -0.50699
 Alpha  occ. eigenvalues --   -0.50662  -0.50521  -0.50296  -0.50276  -0.49920
 Alpha  occ. eigenvalues --   -0.49878  -0.49796  -0.49422  -0.49316  -0.49228
 Alpha  occ. eigenvalues --   -0.48932  -0.48672  -0.48645  -0.48159  -0.47961
 Alpha  occ. eigenvalues --   -0.47876  -0.47675  -0.47529  -0.47380  -0.47351
 Alpha  occ. eigenvalues --   -0.46999  -0.46953  -0.46814  -0.46647  -0.46556
 Alpha  occ. eigenvalues --   -0.46482  -0.46443  -0.46225  -0.45995  -0.45966
 Alpha  occ. eigenvalues --   -0.45853  -0.45778  -0.45748  -0.45280  -0.45259
 Alpha  occ. eigenvalues --   -0.45192  -0.44931  -0.44898  -0.44874  -0.44681
 Alpha  occ. eigenvalues --   -0.44588  -0.44380  -0.44335  -0.44221  -0.44112
 Alpha  occ. eigenvalues --   -0.43987  -0.43958  -0.43354  -0.43349  -0.43225
 Alpha  occ. eigenvalues --   -0.43154  -0.42692  -0.42288  -0.42140  -0.41936
 Alpha  occ. eigenvalues --   -0.41634  -0.41235  -0.40963  -0.40839  -0.40619
 Alpha  occ. eigenvalues --   -0.40320  -0.40171  -0.40018  -0.39991  -0.39761
 Alpha  occ. eigenvalues --   -0.39415  -0.38689  -0.38662  -0.38088  -0.37905
 Alpha  occ. eigenvalues --   -0.37660  -0.37649  -0.36317  -0.36151  -0.36007
 Alpha  occ. eigenvalues --   -0.35662  -0.35271  -0.34694  -0.33964  -0.33749
 Alpha  occ. eigenvalues --   -0.33342  -0.32933  -0.32840  -0.32456  -0.32342
 Alpha  occ. eigenvalues --   -0.32312  -0.32096  -0.31592  -0.25776  -0.25310
 Alpha  occ. eigenvalues --   -0.23217  -0.22083
 Alpha virt. eigenvalues --   -0.06596  -0.06104  -0.00103   0.00831   0.01968
 Alpha virt. eigenvalues --    0.02610   0.04383   0.04759   0.05549   0.06447
 Alpha virt. eigenvalues --    0.06737   0.06860   0.07850   0.07909   0.08629

 Mulliken charges:
               1
     1  Mg   0.985002
     2  C   -0.029787
     3  C   -0.097602
     4  C   -0.088285
     5  C   -0.091790
     6  N   -0.320832
     7  C   -0.000859
     8  C   -0.052683
     9  C   -0.133691
    10  C    0.011174
    11  C    0.044416
    12  C   -0.023214
    13  C   -0.099882
    14  H    0.047083
    15  N   -0.499587
    16  C    0.214920
    17  C   -0.158413
    18  C   -0.076791
    19  C    0.175382
    20  C    0.073411
    21  C    0.037566
    22  O   -0.272866
    23  C    0.020918
    24  N   -0.349090
    25  C    0.045827
    26  C   -0.087881
    27  C   -0.049430
    28  C    0.040713
    29  C    0.013555
    30  C   -0.039820
    31  C   -0.032199
    32  N   -0.451870
    33  C    0.125001
    34  C   -0.194064
    35  C   -0.008964
    36  C    0.139276
    37  C    0.070671
    38  C    0.151309
    39  O   -0.215059
    40  C   -0.144334
    41  C    0.289161
    42  O   -0.218672
    43  O   -0.406061
    44  C    0.143337
    45  H   -0.010978
    46  H    0.020902
    47  H    0.001100
    48  H    0.029075
    49  H    0.029148
    50  H    0.028598
    51  H    0.059748
    52  H    0.036829
    53  H    0.041005
    54  H    0.036869
    55  H    0.058192
    56  H    0.059385
    57  H    0.054437
    58  H    0.057460
    59  H    0.036344
    60  H    0.065402
    61  H    0.039345
    62  H    0.054666
    63  H    0.050363
    64  H    0.044570
    65  H    0.052818
    66  H    0.038264
    67  H    0.049218
    68  H    0.034771
    69  H    0.019051
    70  H    0.041530
    71  H    0.039407
    72  H    0.036748
    73  H    0.060369
    74  H    0.027025
    75  H    0.060538
    76  H    0.091608
    77  H    0.068763
    78  H    0.050435
    79  H    0.052005
    80  Mg   0.962825
    81  C   -0.002545
    82  C   -0.069746
    83  C   -0.087183
    84  C   -0.078782
    85  N   -0.252315
    86  C   -0.062760
    87  C   -0.061994
    88  C   -0.088824
    89  C   -0.000044
    90  C    0.039628
    91  C    0.010157
    92  C   -0.092204
    93  H    0.048719
    94  N   -0.472797
    95  C    0.161652
    96  C   -0.161931
    97  C   -0.088119
    98  C    0.122064
    99  C    0.059523
   100  C    0.076645
   101  O   -0.197385
   102  C   -0.024258
   103  N   -0.321512
   104  C    0.065312
   105  C   -0.102512
   106  C   -0.113692
   107  C    0.058351
   108  C    0.030232
   109  C   -0.010641
   110  C   -0.052908
   111  N   -0.409853
   112  C    0.090394
   113  C   -0.219181
   114  C   -0.051312
   115  C    0.154651
   116  C    0.096028
   117  C    0.138287
   118  O   -0.197549
   119  C   -0.092916
   120  C    0.252651
   121  O   -0.271917
   122  O   -0.331405
   123  C    0.153260
   124  H   -0.010547
   125  H    0.011975
   126  H    0.003662
   127  H    0.040562
   128  H    0.017626
   129  H    0.039818
   130  H    0.042906
   131  H    0.036725
   132  H    0.031704
   133  H    0.047771
   134  H    0.038429
   135  H    0.037056
   136  H    0.044072
   137  H    0.065995
   138  H    0.040867
   139  H    0.086344
   140  H    0.045292
   141  H    0.050854
   142  H    0.043726
   143  H    0.017799
   144  H    0.041978
   145  H    0.045943
   146  H    0.042710
   147  H    0.037497
   148  H    0.027500
   149  H    0.050284
   150  H    0.035040
   151  H    0.039788
   152  H    0.025214
   153  H    0.053693
   154  H    0.055593
   155  H    0.072916
   156  H    0.049716
   157  H    0.061250
   158  H    0.024152
 Sum of Mulliken charges =  -0.00000

 Dipole moment (field-independent basis, Debye):
    X=              6.0097    Y=             -1.1324    Z=              7.9481  Tot=             10.0285
 Quadrupole moment (field-independent basis, Debye-Ang):
   XX=           -412.8044   YY=           -506.6675   ZZ=           -497.9069
   XY=             26.8242   XZ=             -4.5836   YZ=             45.2864

 Normal termination of Gaussian 16 at Sun Sep 19 13:07:39 2021.
