 Gaussian 16, Revision A.03,
 Gaussian 16:  ES64L-G16RevA.03 25-Dec-2016

 --------------------------------
 #p wB97XD/Def2SVP td=(nstates=5)
 --------------------------------

 --------------------------------
 TDDFT excited states in gaussian
 --------------------------------
 Symbolic Z-matrix:
 Charge =  0 Multiplicity = 1

                         Standard orientation:
 ---------------------------------------------------------------------
 Center     Atomic      Atomic             Coordinates (Angstroms)
 Number     Number       Type             X           Y           Z
 ---------------------------------------------------------------------
      1         12           0       25.217667   -0.473521    0.067443
      2          6           0       23.576899    2.586118    0.712977
      3          6           0       26.050530    0.641741   -3.053565
      4          6           0       26.112956   -3.559032   -0.672939
      5          6           0       23.880278   -1.687070    3.121054
      6          7           0       24.934279    1.466664   -0.977686
      7          6           0       24.272952    2.509935   -0.516815
      8          6           0       24.610499    3.708548   -1.385024
      9          6           0       24.995094    3.054307   -2.767713
     10          6           0       25.353076    1.605919   -2.265516
     11          6           0       23.825745    3.193939   -3.815032
     12          6           0       25.823190    4.510026   -0.846065
     13          6           0       25.939922    6.012839   -1.357763
     14          1           0       24.936986    6.611847   -2.347441
     15          7           0       26.147341   -1.276670   -1.521059
     16          6           0       26.502560   -0.653975   -2.745071
     17          6           0       27.245536   -1.638010   -3.566517
     18          6           0       27.186267   -2.907512   -2.887048
     19          6           0       26.465706   -2.665179   -1.618324
     20          6           0       27.908904   -1.307545   -4.856808
     21          6           0       27.746426   -4.340316   -3.239490
     22          8           0       27.680827   -5.317407   -2.481192
     23          6           0       28.268341   -4.577797   -4.626914
     24          7           0       24.922345   -2.410186    1.042523
     25          6           0       25.430583   -3.513480    0.561283
     26          6           0       25.249071   -4.732429    1.421706
     27          6           0       24.508522   -4.142178    2.672904
     28          6           0       24.503205   -2.620777    2.320109
     29          6           0       24.593469   -5.881571    0.650235
     30          6           0       25.204230   -4.396370    4.004264
     31          6           0       24.282001   -4.749088    5.225858
     32          7           0       24.016211    0.263969    1.717071
     33          6           0       23.596602   -0.352771    2.912025
     34          6           0       22.995408    0.630581    3.745774
     35          6           0       22.791043    1.759978    2.890499
     36          6           0       23.457635    1.511118    1.717555
     37          6           0       22.704003    0.477881    5.211110
     38          6           0       22.335846    3.162146    2.731869
     39          8           0       21.738807    3.880837    3.506135
     40          6           0       22.624411    3.601474    1.218097
     41          6           0       22.891359    5.068800    1.135712
     42          8           0       23.783595    5.663669    1.664592
     43          8           0       21.881577    5.732824    0.414419
     44          6           0       21.594320    7.127820    0.810549
     45          1           0       26.180345    0.850292   -4.117973
     46          1           0       26.494884   -4.578088   -0.755993
     47          1           0       23.549008   -2.072168    4.087782
     48          1           0       23.728023    4.339406   -1.278980
     49          1           0       25.884387    3.517119   -3.196894
     50          1           0       22.974485    3.703141   -3.364420
     51          1           0       23.484471    2.167461   -3.949284
     52          1           0       24.083002    3.752165   -4.715287
     53          1           0       26.690223    3.952775   -1.203133
     54          1           0       25.779157    4.462232    0.241937
     55          1           0       26.944044    6.077425   -1.779649
     56          1           0       25.956401    6.612472   -0.447345
     57          1           0       28.006805   -0.263468   -5.151975
     58          1           0       27.388504   -1.738142   -5.711844
     59          1           0       28.918677   -1.699904   -4.733785
     60          1           0       29.322012   -4.329798   -4.753995
     61          1           0       27.586173   -3.932230   -5.181444
     62          1           0       28.056726   -5.623112   -4.850261
     63          1           0       26.280460   -4.983562    1.668894
     64          1           0       23.484296   -4.494763    2.787951
     65          1           0       23.980567   -5.556185   -0.190910
     66          1           0       23.920477   -6.354633    1.364263
     67          1           0       25.318674   -6.601596    0.270461
     68          1           0       25.790865   -3.531052    4.312320
     69          1           0       25.983801   -5.116884    3.757273
     70          1           0       23.227621   -4.627232    4.978382
     71          1           0       24.548586   -4.014027    5.984991
     72          1           0       24.380197   -5.729219    5.693708
     73          1           0       22.188905   -0.479297    5.293670
     74          1           0       22.060465    1.252034    5.629418
     75          1           0       23.637449    0.387981    5.767628
     76          1           0       21.692863    3.535427    0.656906
     77          1           0       21.852054    7.771822   -0.030376
     78          1           0       22.133771    7.422520    1.711358
     79          1           0       20.520592    7.155017    0.996034
     80         12           0      -24.465600   -0.809086    0.036885
     81          6           0      -25.410155    2.481116    0.416756
     82          6           0      -22.845479    0.115533   -3.010830
     83          6           0      -23.835350   -3.968514   -0.582368
     84          6           0      -26.204312   -1.687076    2.929904
     85          7           0      -24.203472    1.110142   -1.086256
     86          6           0      -24.643510    2.318858   -0.724386
     87          6           0      -24.110969    3.377328   -1.744539
     88          6           0      -23.407476    2.521071   -2.894832
     89          6           0      -23.532970    1.099484   -2.313659
     90          6           0      -24.098072    2.481332   -4.244513
     91          6           0      -23.232522    4.478537   -1.131903
     92          6           0      -23.710878    5.861319   -1.541519
     93          1           0      -22.740325    7.049752   -1.602917
     94          7           0      -23.406265   -1.763238   -1.541020
     95          6           0      -22.786246   -1.247719   -2.642549
     96          6           0      -22.141608   -2.228030   -3.396434
     97          6           0      -22.501312   -3.483691   -2.793721
     98          6           0      -23.279155   -3.111083   -1.561780
     99          6           0      -21.304571   -1.940170   -4.634326
    100          6           0      -22.220322   -4.894969   -3.283299
    101          8           0      -22.771413   -5.846786   -2.697047
    102          6           0      -21.419082   -5.157607   -4.492589
    103          7           0      -24.929910   -2.510363    1.049848
    104          6           0      -24.508324   -3.760031    0.644419
    105          6           0      -24.981891   -4.942755    1.568483
    106          6           0      -25.492400   -4.102665    2.816005
    107          6           0      -25.570969   -2.678308    2.236733
    108          6           0      -26.064505   -5.986400    1.084561
    109          6           0      -24.748514   -4.287550    4.215934
    110          6           0      -23.428394   -3.575242    4.348634
    111          7           0      -25.681726    0.091534    1.330678
    112          6           0      -26.339795   -0.339570    2.466781
    113          6           0      -27.037717    0.699615    3.106295
    114          6           0      -26.658989    1.812966    2.347336
    115          6           0      -25.822291    1.414877    1.264215
    116          6           0      -27.785319    0.491175    4.353930
    117          6           0      -26.955706    3.190764    2.257436
    118          8           0      -27.755509    3.835362    2.938784
    119          6           0      -26.127918    3.749466    0.985588
    120          6           0      -27.053782    4.359522    0.047597
    121          8           0      -27.817571    3.786085   -0.694961
    122          8           0      -27.044327    5.680026    0.181739
    123          6           0      -27.979609    6.462460   -0.568499
    124          1           0      -22.398204    0.398550   -3.965528
    125          1           0      -23.706178   -5.050150   -0.654391
    126          1           0      -26.737751   -2.005326    3.828074
    127          1           0      -25.055646    3.764795   -2.124723
    128          1           0      -22.455747    3.020364   -3.079955
    129          1           0      -24.965556    3.136506   -4.329482
    130          1           0      -24.485949    1.481796   -4.439084
    131          1           0      -23.363086    2.611091   -5.039479
    132          1           0      -22.168491    4.395727   -1.354133
    133          1           0      -23.281913    4.372353   -0.048467
    134          1           0      -24.411073    6.174199   -0.766119
    135          1           0      -24.173430    5.738921   -2.520708
    136          1           0      -21.091300   -0.876241   -4.738138
    137          1           0      -21.901791   -2.161528   -5.519150
    138          1           0      -20.433469   -2.592718   -4.679830
    139          1           0      -21.636723   -6.147822   -4.894435
    140          1           0      -20.374157   -5.172515   -4.181187
    141          1           0      -21.624205   -4.405616   -5.254133
    142          1           0      -24.144419   -5.496389    1.994215
    143          1           0      -26.483818   -4.461746    3.089313
    144          1           0      -26.344262   -5.723374    0.065199
    145          1           0      -27.001570   -5.787121    1.605982
    146          1           0      -25.826944   -7.048422    1.152480
    147          1           0      -24.505987   -5.347607    4.286399
    148          1           0      -25.375338   -4.082170    5.082857
    149          1           0      -23.320231   -3.307822    5.399192
    150          1           0      -23.191414   -2.709763    3.731125
    151          1           0      -22.662897   -4.293801    4.055696
    152          1           0      -27.439949   -0.273049    5.049731
    153          1           0      -28.870027    0.452154    4.261551
    154          1           0      -27.651421    1.460130    4.834192
    155          1           0      -25.428267    4.501045    1.350753
    156          1           0      -27.589864    6.750715   -1.545441
    157          1           0      -28.127520    7.390358   -0.016331
    158          1           0      -28.900202    5.897713   -0.716482
 ---------------------------------------------------------------------

 SCF Done:  E(RwB97XD) =  -4070.61217821     A.U. after   19 cycles

 Excitation energies and oscillator strengths:

 Excited State   1:      Singlet-A      1.6476 eV  752.51 nm  f=0.4141  <S**2>=0.000
     309 -> 316        0.17813
     311 -> 313        0.68444
     309 <- 316        0.11440
 This state for optimization and/or second-order correction.
 Total Energy, E(TD-HF/TD-DFT) =  -4070.55162949
 Copying the excited state density for this state as the 1-particle RhoCI density.

 Excited State   2:      Singlet-A      1.7665 eV  701.86 nm  f=0.3730  <S**2>=0.000
     310 -> 315        0.19124
     312 -> 314        0.67833
     310 <- 315        0.11015

 Excited State   3:      Singlet-A      2.1197 eV  584.93 nm  f=0.0960  <S**2>=0.000
     310 -> 314        0.63987
     312 -> 315       -0.27485

 Excited State   4:      Singlet-A      2.1651 eV  572.66 nm  f=0.1559  <S**2>=0.000
     309 -> 313        0.65108
     311 -> 316       -0.25706

 Excited State   5:      Singlet-A      3.2682 eV  379.36 nm  f=0.0032  <S**2>=0.000
     304 -> 314        0.16886
     306 -> 314       -0.15553
     308 -> 314        0.64096
     308 -> 317       -0.10634

 The electronic state is 1-A.
 Alpha  occ. eigenvalues --  -46.94884 -46.94029 -19.30005 -19.28484 -19.25438
 Alpha  occ. eigenvalues --  -19.24464 -19.23645 -19.23530 -19.23338 -19.23292
 Alpha  occ. eigenvalues --  -14.46892 -14.46779 -14.46540 -14.46332 -14.44452
 Alpha  occ. eigenvalues --  -14.44315 -14.43560 -14.42579 -10.42378 -10.42085
 Alpha  occ. eigenvalues --  -10.40874 -10.38840 -10.38775 -10.38520 -10.36355
 Alpha  occ. eigenvalues --  -10.35742 -10.35557 -10.35236 -10.35154 -10.34971
 Alpha  occ. eigenvalues --  -10.34918 -10.34915 -10.34799 -10.34665 -10.34599
 Alpha  occ. eigenvalues --  -10.34134 -10.34076 -10.33678 -10.33448 -10.33408
 Alpha  occ. eigenvalues --  -10.33045 -10.32974 -10.32608 -10.32476 -10.32431
 Alpha  occ. eigenvalues --  -10.32398 -10.32298 -10.32273 -10.32190 -10.32012
 Alpha  occ. eigenvalues --  -10.32001 -10.31995 -10.31965 -10.31824 -10.31752
 Alpha  occ. eigenvalues --  -10.31733 -10.31673 -10.31668 -10.31640 -10.31630
 Alpha  occ. eigenvalues --  -10.31629 -10.31616 -10.31406 -10.31382 -10.31228
 Alpha  occ. eigenvalues --  -10.30836 -10.30761 -10.30712 -10.30515 -10.30289
 Alpha  occ. eigenvalues --  -10.30255 -10.30167 -10.30154 -10.30141 -10.30018
 Alpha  occ. eigenvalues --  -10.29971 -10.29934 -10.29734 -10.29708 -10.29616
 Alpha  occ. eigenvalues --  -10.29554 -10.29423 -10.29418 -10.28759 -10.28661
 Alpha  occ. eigenvalues --  -10.28386  -3.20795  -3.20221  -1.94397  -1.93918
 Alpha  occ. eigenvalues --   -1.93816  -1.93756  -1.93368  -1.93200  -1.20087
 Alpha  occ. eigenvalues --   -1.17322  -1.12794  -1.11716  -1.11076  -1.10721
 Alpha  occ. eigenvalues --   -1.09950  -1.09184  -1.07120  -1.06600  -1.06527
 Alpha  occ. eigenvalues --   -1.05748  -1.05325  -1.04576  -1.03671  -1.03092
 Alpha  occ. eigenvalues --   -0.94040  -0.93746  -0.91271  -0.91172  -0.90865
 Alpha  occ. eigenvalues --   -0.90641  -0.90201  -0.89684  -0.89574  -0.89554
 Alpha  occ. eigenvalues --   -0.89439  -0.89195  -0.88723  -0.87330  -0.86514
 Alpha  occ. eigenvalues --   -0.85923  -0.85744  -0.85594  -0.84858  -0.84826
 Alpha  occ. eigenvalues --   -0.84320  -0.83614  -0.83139  -0.82588  -0.82560
 Alpha  occ. eigenvalues --   -0.81816  -0.80634  -0.80307  -0.79245  -0.79097
 Alpha  occ. eigenvalues --   -0.78825  -0.78298  -0.77875  -0.77306  -0.77208
 Alpha  occ. eigenvalues --   -0.77103  -0.75431  -0.74471  -0.73700  -0.73416
 Alpha  occ. eigenvalues --   -0.71760  -0.71551  -0.70822  -0.70619  -0.69739
 Alpha  occ. eigenvalues --   -0.69245  -0.69081  -0.68651  -0.67962  -0.67332
 Alpha  occ. eigenvalues --   -0.67122  -0.66911  -0.66564  -0.66563  -0.66344
 Alpha  occ. eigenvalues --   -0.65455  -0.64292  -0.63031  -0.62414  -0.62281
 Alpha  occ. eigenvalues --   -0.61980  -0.61101  -0.60986  -0.60588  -0.60488
 Alpha  occ. eigenvalues --   -0.60296  -0.60030  -0.59659  -0.59549  -0.58786
 Alpha  occ. eigenvalues --   -0.58497  -0.58479  -0.58087  -0.57415  -0.57089
 Alpha  occ. eigenvalues --   -0.57029  -0.56580  -0.56287  -0.56164  -0.55689
 Alpha  occ. eigenvalues --   -0.55446  -0.55148  -0.55124  -0.55072  -0.54769
 Alpha  occ. eigenvalues --   -0.54694  -0.54444  -0.54229  -0.54151  -0.54009
 Alpha  occ. eigenvalues --   -0.53938  -0.53683  -0.53665  -0.53288  -0.53275
 Alpha  occ. eigenvalues --   -0.53176  -0.52874  -0.52462  -0.52265  -0.52209
 Alpha  occ. eigenvalues --   -0.52082  -0.51951  -0.51922  -0.51596  -0.51411
 Alpha  occ. eigenvalues --   -0.51193  -0.51150  -0.51069  -0.50861  -0.50850
 Alpha  occ. eigenvalues --   -0.50652  -0.50320  -0.50257  -0.50056  -0.49955
 Alpha  occ. eigenvalues --   -0.49766  -0.49703  -0.49488  -0.49280  -0.49240
 Alpha  occ. eigenvalues --   -0.48945  -0.48803  -0.48565  -0.48451  -0.48446
 Alpha  occ. eigenvalues --   -0.48302  -0.48096  -0.47940  -0.47508  -0.47432
 Alpha  occ. eigenvalues --   -0.47358  -0.47340  -0.47048  -0.46966  -0.46853
 Alpha  occ. eigenvalues --   -0.46773  -0.46508  -0.46288  -0.46174  -0.45899
 Alpha  occ. eigenvalues --   -0.45830  -0.45656  -0.45554  -0.45429  -0.45335
 Alpha  occ. eigenvalues --   -0.45193  -0.45027  -0.44725  -0.44603  -0.44546
 Alpha  occ. eigenvalues --   -0.44478  -0.44223  -0.43949  -0.43914  -0.43626
 Alpha  occ. eigenvalues --   -0.43514  -0.43472  -0.43415  -0.43326  -0.43277
 Alpha  occ. eigenvalues --   -0.43073  -0.43003  -0.42913  -0.42900  -0.42372
 Alpha  occ. eigenvalues --   -0.42034  -0.41903  -0.41101  -0.40982  -0.40853
 Alpha  occ. eigenvalues --   -0.40703  -0.40095  -0.39727  -0.39653  -0.39611
 Alpha  occ. eigenvalues --   -0.39160  -0.38622  -0.38389  -0.38324  -0.38105
 Alpha  occ. eigenvalues --   -0.37686  -0.37361  -0.36229  -0.36221  -0.35795
 Alpha  occ. eigenvalues --   -0.35788  -0.35375  -0.35223  -0.33934  -0.33664
 Alpha  occ. eigenvalues --   -0.33422  -0.32711  -0.32545  -0.32523  -0.32213
 Alpha  occ. eigenvalues --   -0.32041  -0.31936  -0.30402  -0.26038  -0.25678
 Alpha  occ. eigenvalues --   -0.23281  -0.23167
 Alpha virt. eigenvalues --   -0.07457  -0.06829  -0.00108   0.00505   0.01875
 Alpha virt. eigenvalues --    0.02542   0.04590   0.04871   0.06025   0.06224
 Alpha virt. eigenvalues --    0.06975   0.07933   0.08098   0.08255   0.08982

 Mulliken charges:
               1
     1  Mg   0.949396
     2  C    0.045912
     3  C   -0.095095
     4  C   -0.065630
     5  C   -0.086080
     6  N   -0.314101
     7  C    0.001102
     8  C   -0.120518
     9  C   -0.103186
    10  C    0.089388
    11  C    0.035016
    12  C   -0.006502
    13  C   -0.094829
    14  H    0.041419
    15  N   -0.554516
    16  C    0.176001
    17  C   -0.150990
    18  C   -0.082839
    19  C    0.208141
    20  C    0.035091
    21  C    0.082050
    22  O   -0.237302
    23  C   -0.013233
    24  N   -0.304590
    25  C   -0.029635
    26  C   -0.047693
    27  C   -0.103720
    28  C    0.058275
    29  C    0.030171
    30  C   -0.003909
    31  C   -0.057110
    32  N   -0.438112
    33  C    0.134234
    34  C   -0.193310
    35  C   -0.035318
    36  C    0.077214
    37  C    0.080593
    38  C    0.135415
    39  O   -0.202637
    40  C   -0.093410
    41  C    0.221032
    42  O   -0.208240
    43  O   -0.410338
    44  C    0.136801
    45  H    0.001470
    46  H    0.012939
    47  H   -0.022010
    48  H    0.031997
    49  H    0.036199
    50  H    0.038410
    51  H    0.032942
    52  H    0.048367
    53  H    0.023431
    54  H    0.054553
    55  H    0.041807
    56  H    0.065407
    57  H    0.043015
    58  H    0.065258
    59  H    0.060762
    60  H    0.080027
    61  H    0.041621
    62  H    0.065176
    63  H    0.042251
    64  H    0.040178
    65  H    0.046652
    66  H    0.033113
    67  H    0.056297
    68  H    0.030822
    69  H    0.022383
    70  H    0.035954
    71  H    0.038528
    72  H    0.045681
    73  H    0.035914
    74  H    0.058404
    75  H    0.050942
    76  H    0.080234
    77  H    0.051947
    78  H    0.069234
    79  H    0.055686
    80  Mg   0.992170
    81  C   -0.044781
    82  C   -0.105202
    83  C   -0.051632
    84  C   -0.104071
    85  N   -0.349997
    86  C   -0.028337
    87  C   -0.021326
    88  C   -0.162804
    89  C    0.116228
    90  C    0.006224
    91  C    0.037907
    92  C   -0.145941
    93  H    0.028870
    94  N   -0.425374
    95  C    0.160137
    96  C   -0.175154
    97  C   -0.074135
    98  C    0.171528
    99  C    0.066484
   100  C    0.038112
   101  O   -0.260171
   102  C    0.004630
   103  N   -0.395846
   104  C    0.027571
   105  C   -0.070203
   106  C   -0.076025
   107  C    0.086839
   108  C    0.029263
   109  C   -0.031239
   110  C   -0.058222
   111  N   -0.470306
   112  C    0.132264
   113  C   -0.134445
   114  C   -0.037922
   115  C    0.195358
   116  C    0.072410
   117  C    0.096127
   118  O   -0.219395
   119  C   -0.078178
   120  C    0.235514
   121  O   -0.251525
   122  O   -0.328058
   123  C    0.135806
   124  H   -0.002100
   125  H    0.021875
   126  H   -0.004685
   127  H    0.033188
   128  H    0.042989
   129  H    0.043818
   130  H    0.040399
   131  H    0.035194
   132  H    0.039578
   133  H    0.030041
   134  H    0.063224
   135  H    0.056124
   136  H    0.042449
   137  H    0.057046
   138  H    0.056364
   139  H    0.055862
   140  H    0.067030
   141  H    0.044967
   142  H    0.038421
   143  H    0.027397
   144  H    0.039871
   145  H    0.027326
   146  H    0.056772
   147  H    0.029183
   148  H    0.032962
   149  H    0.037810
   150  H    0.047635
   151  H    0.028759
   152  H    0.045993
   153  H    0.055578
   154  H    0.045401
   155  H    0.065564
   156  H    0.042556
   157  H    0.055553
   158  H    0.066703
 Sum of Mulliken charges =  -0.00000

 Dipole moment (field-independent basis, Debye):
    X=              6.4030    Y=             -4.1083    Z=             -6.2252  Tot=              9.8301
 Quadrupole moment (field-independent basis, Debye-Ang):
   XX=           -583.6695   YY=           -514.0238   ZZ=           -467.7511
   XY=            -39.2114   XZ=            -84.7715   YZ=            -49.6250

 Normal termination of Gaussian 16 at Sun Sep 19 00:47:09 2021.
