 Gaussian 16, Revision A.03,
 Gaussian 16:  ES64L-G16RevA.03 25-Dec-2016

 --------------------------------
 #p wB97XD/Def2SVP td=(nstates=5)
 --------------------------------

 --------------------------------
 TDDFT excited states in gaussian
 --------------------------------
 Symbolic Z-matrix:
 Charge =  0 Multiplicity = 1

                         Standard orientation:
 ---------------------------------------------------------------------
 Center     Atomic      Atomic             Coordinates (Angstroms)
 Number     Number       Type             X           Y           Z
 ---------------------------------------------------------------------
      1         12           0       11.595359    0.096042    0.362874
      2          6           0        8.599275   -1.389180   -0.620563
      3          6           0       13.315235   -2.546854   -1.030577
      4          6           0       14.293469    1.718719    1.287764
      5          6           0        9.769793    3.220165    0.798423
      6          7           0       10.937006   -1.844860   -0.684073
      7          6           0        9.666567   -2.231543   -1.006698
      8          6           0        9.666791   -3.568894   -1.658029
      9          6           0       11.199502   -3.917050   -1.826335
     10          6           0       11.921982   -2.696621   -1.133229
     11          6           0       11.596766   -5.338681   -1.355175
     12          6           0        8.922243   -3.582388   -3.015195
     13          6           0        7.886471   -4.704690   -3.053529
     14          1           0        7.942419   -5.694222   -4.256318
     15          7           0       13.548317   -0.374628    0.181594
     16          6           0       14.091449   -1.528540   -0.381451
     17          6           0       15.528763   -1.426309   -0.164397
     18          6           0       15.848738   -0.183418    0.555993
     19          6           0       14.510811    0.448353    0.784226
     20          6           0       16.475765   -2.346417   -0.754676
     21          6           0       17.233384    0.271162    0.766607
     22          8           0       18.216444   -0.357750    0.434956
     23          6           0       17.593862    1.604229    1.323251
     24          7           0       11.942577    2.112254    0.890407
     25          6           0       13.123507    2.440464    1.506638
     26          6           0       13.106473    3.895734    1.924392
     27          6           0       11.867710    4.435634    1.313494
     28          6           0       11.162059    3.236980    0.912415
     29          6           0       13.294032    4.151995    3.475833
     30          6           0       12.131954    5.258907    0.006283
     31          6           0       11.189960    6.331425   -0.293966
     32          7           0        9.582320    0.822270    0.176247
     33          6           0        8.984891    2.061122    0.443129
     34          6           0        7.564578    1.901335    0.450369
     35          6           0        7.351551    0.601972    0.005395
     36          6           0        8.633553   -0.024294   -0.193137
     37          6           0        6.610923    2.980629    0.808785
     38          6           0        6.359360   -0.328127   -0.362123
     39          8           0        5.153296   -0.221218   -0.365269
     40          6           0        7.095643   -1.638779   -0.718611
     41          6           0        6.585490   -2.723539    0.134910
     42          8           0        6.997262   -3.003718    1.273306
     43          8           0        5.473369   -3.284580   -0.449807
     44          6           0        4.838123   -4.447665    0.148076
     45          1           0       13.789006   -3.442804   -1.435753
     46          1           0       15.103292    2.390896    1.582256
     47          1           0        9.260948    4.171647    0.966525
     48          1           0        9.370121   -4.252311   -0.861900
     49          1           0       11.532099   -3.928208   -2.863837
     50          1           0       10.635516   -5.853768   -1.339416
     51          1           0       12.169887   -5.404955   -0.430323
     52          1           0       12.221106   -5.817103   -2.109376
     53          1           0        9.557592   -3.820263   -3.868137
     54          1           0        8.472581   -2.595594   -3.123880
     55          1           0        6.990147   -4.107430   -3.220156
     56          1           0        7.884447   -5.175500   -2.071561
     57          1           0       15.912495   -3.112066   -1.288591
     58          1           0       17.083433   -2.921357   -0.055259
     59          1           0       17.090680   -1.814000   -1.481140
     60          1           0       16.924698    1.617071    2.183593
     61          1           0       17.319735    2.370205    0.597350
     62          1           0       18.640628    1.637008    1.626198
     63          1           0       14.005592    4.293677    1.455381
     64          1           0       11.157300    4.944371    1.965192
     65          1           0       13.592231    3.233285    3.981302
     66          1           0       12.469095    4.677239    3.958451
     67          1           0       14.176262    4.747921    3.707940
     68          1           0       12.189240    4.575315   -0.840873
     69          1           0       13.110101    5.738008    0.045573
     70          1           0       11.519291    7.236662    0.217275
     71          1           0       10.164586    6.067164   -0.033258
     72          1           0       11.316494    6.650706   -1.328949
     73          1           0        6.987956    3.580561    1.636943
     74          1           0        5.603096    2.626763    1.026552
     75          1           0        6.646671    3.647531   -0.052699
     76          1           0        6.830952   -2.018827   -1.705414
     77          1           0        4.266527   -4.325422    1.068152
     78          1           0        5.577348   -5.237479    0.280103
     79          1           0        4.080443   -4.734470   -0.580201
     80         12           0      -10.854557    0.823935    0.163977
     81          6           0      -11.562723   -2.572749    0.397316
     82          6           0       -7.549212   -0.020083   -0.457319
     83          6           0      -10.146725    3.954847   -0.624422
     84          6           0      -14.243881    1.512594    0.293455
     85          7           0       -9.722701   -1.059487   -0.170569
     86          6           0      -10.189700   -2.326335    0.113863
     87          6           0       -9.108285   -3.365593    0.085763
     88          6           0       -7.798082   -2.466688    0.188858
     89          6           0       -8.347878   -1.101965   -0.204222
     90          6           0       -6.822695   -2.527514    1.458509
     91          6           0       -9.166761   -4.382036   -1.146891
     92          6           0       -9.721502   -3.847850   -2.500903
     93          1           0       -8.955412   -4.317329   -3.714286
     94          7           0       -9.115554    1.826164   -0.572863
     95          6           0       -7.834027    1.288842   -0.746622
     96          6           0       -6.921558    2.262796   -1.279964
     97          6           0       -7.670737    3.460507   -1.365404
     98          6           0       -9.046442    3.142037   -0.879640
     99          6           0       -5.426293    1.952596   -1.365953
    100          6           0       -7.037657    4.783495   -1.853302
    101          8           0       -5.880295    4.837686   -2.281484
    102          6           0       -7.876762    5.984507   -1.724444
    103          7           0      -12.091574    2.432462   -0.230816
    104          6           0      -11.509133    3.688304   -0.264053
    105          6           0      -12.543099    4.833950   -0.199864
    106          6           0      -13.857163    3.951825   -0.142632
    107          6           0      -13.398253    2.563487   -0.072404
    108          6           0      -12.461721    5.836953    0.907296
    109          6           0      -14.794885    4.136990   -1.440639
    110          6           0      -16.237027    4.321655   -1.046170
    111          7           0      -12.603743   -0.253849    0.511813
    112          6           0      -13.919554    0.169941    0.535196
    113          6           0      -14.817075   -0.985345    0.764511
    114          6           0      -13.915012   -2.104767    0.720018
    115          6           0      -12.622706   -1.590507    0.562602
    116          6           0      -16.288654   -1.075758    0.730910
    117          6           0      -13.765482   -3.575607    0.713960
    118          8           0      -14.618422   -4.432702    0.730330
    119          6           0      -12.251998   -3.927403    0.548304
    120          6           0      -11.802445   -4.771559    1.655921
    121          8           0      -11.358687   -5.920041    1.646828
    122          8           0      -12.233601   -4.141039    2.852485
    123          6           0      -11.825717   -4.811662    4.105562
    124          1           0       -6.497030   -0.307238   -0.394560
    125          1           0      -10.002922    5.036186   -0.671798
    126          1           0      -15.278453    1.844642    0.396744
    127          1           0       -9.190416   -4.018806    0.954409
    128          1           0       -7.234292   -2.847533   -0.663100
    129          1           0       -7.059064   -3.287999    2.202539
    130          1           0       -6.818782   -1.614430    2.053650
    131          1           0       -5.836337   -2.862348    1.136265
    132          1           0       -9.684519   -5.297852   -0.863645
    133          1           0       -8.143509   -4.724374   -1.301170
    134          1           0       -9.767779   -2.758419   -2.495241
    135          1           0      -10.743499   -4.197737   -2.643885
    136          1           0       -4.917292    2.462234   -2.184664
    137          1           0       -5.294037    0.897682   -1.604866
    138          1           0       -5.001807    2.282812   -0.417571
    139          1           0       -7.976194    6.224597   -0.666293
    140          1           0       -8.839763    5.814295   -2.206879
    141          1           0       -7.319650    6.771382   -2.232846
    142          1           0      -12.583887    5.289637   -1.189475
    143          1           0      -14.244476    4.176959    0.851030
    144          1           0      -13.394467    6.399634    0.865499
    145          1           0      -11.685172    6.550980    0.632931
    146          1           0      -12.267651    5.340986    1.859063
    147          1           0      -14.629598    3.259078   -2.065045
    148          1           0      -14.515496    4.919129   -2.147676
    149          1           0      -16.782881    3.429909   -1.353347
    150          1           0      -16.745311    5.061780   -1.665096
    151          1           0      -16.319584    4.369541    0.039452
    152          1           0      -16.818719   -0.139039    0.552299
    153          1           0      -16.588614   -1.402118    1.726102
    154          1           0      -16.425444   -1.665006   -0.175607
    155          1           0      -12.199243   -4.457492   -0.402366
    156          1           0      -11.478115   -3.970579    4.706533
    157          1           0      -11.047461   -5.574873    4.107905
    158          1           0      -12.767190   -5.080101    4.585161
 ---------------------------------------------------------------------

 SCF Done:  E(RwB97XD) =  -4070.58092145     A.U. after   20 cycles

 Excitation energies and oscillator strengths:

 Excited State   1:      Singlet-A      1.6134 eV  768.48 nm  f=0.4490  <S**2>=0.000
     309 -> 315       -0.19244
     311 -> 313        0.67575
     309 <- 315       -0.12012
 This state for optimization and/or second-order correction.
 Total Energy, E(TD-HF/TD-DFT) =  -4070.52163143
 Copying the excited state density for this state as the 1-particle RhoCI density.

 Excited State   2:      Singlet-A      1.6629 eV  745.58 nm  f=0.3078  <S**2>=0.000
     310 -> 316        0.18636
     312 -> 314        0.67580
     310 <- 316        0.11380

 Excited State   3:      Singlet-A      2.1298 eV  582.13 nm  f=0.0933  <S**2>=0.000
     309 -> 313        0.63307
     311 -> 315        0.29970

 Excited State   4:      Singlet-A      2.1483 eV  577.13 nm  f=0.0897  <S**2>=0.000
     310 -> 314        0.62754
     312 -> 316       -0.30703

 Excited State   5:      Singlet-A      3.5370 eV  350.53 nm  f=0.0000  <S**2>=0.000
     312 -> 313        0.70677

 The electronic state is 1-A.
 Alpha  occ. eigenvalues --  -46.95357 -46.95287 -19.30126 -19.29501 -19.25410
 Alpha  occ. eigenvalues --  -19.24341 -19.23953 -19.23790 -19.23404 -19.22408
 Alpha  occ. eigenvalues --  -14.46928 -14.46752 -14.46694 -14.46551 -14.44911
 Alpha  occ. eigenvalues --  -14.44164 -14.43766 -14.43681 -10.43521 -10.42964
 Alpha  occ. eigenvalues --  -10.39058 -10.38971 -10.38207 -10.37653 -10.35682
 Alpha  occ. eigenvalues --  -10.35652 -10.35605 -10.35590 -10.35450 -10.35150
 Alpha  occ. eigenvalues --  -10.35113 -10.35086 -10.34950 -10.34644 -10.34574
 Alpha  occ. eigenvalues --  -10.34459 -10.34045 -10.33985 -10.33891 -10.33302
 Alpha  occ. eigenvalues --  -10.33099 -10.32965 -10.32849 -10.32710 -10.32706
 Alpha  occ. eigenvalues --  -10.32699 -10.32510 -10.32478 -10.32429 -10.32377
 Alpha  occ. eigenvalues --  -10.32294 -10.32291 -10.32274 -10.32212 -10.32205
 Alpha  occ. eigenvalues --  -10.32179 -10.32070 -10.32037 -10.31866 -10.31643
 Alpha  occ. eigenvalues --  -10.31411 -10.31344 -10.31323 -10.31322 -10.31207
 Alpha  occ. eigenvalues --  -10.31123 -10.31114 -10.31022 -10.30891 -10.30779
 Alpha  occ. eigenvalues --  -10.30757 -10.30678 -10.30649 -10.30354 -10.30335
 Alpha  occ. eigenvalues --  -10.30086 -10.29987 -10.29976 -10.29806 -10.29745
 Alpha  occ. eigenvalues --  -10.29505 -10.29353 -10.29351 -10.29064 -10.28786
 Alpha  occ. eigenvalues --  -10.28754  -3.21327  -3.21225  -1.94899  -1.94816
 Alpha  occ. eigenvalues --   -1.94465  -1.94357  -1.94289  -1.94180  -1.17655
 Alpha  occ. eigenvalues --   -1.16893  -1.12524  -1.12294  -1.12062  -1.11485
 Alpha  occ. eigenvalues --   -1.09033  -1.08924  -1.06989  -1.06971  -1.05819
 Alpha  occ. eigenvalues --   -1.05629  -1.05123  -1.05010  -1.04296  -1.03631
 Alpha  occ. eigenvalues --   -0.94640  -0.94342  -0.92649  -0.91458  -0.91431
 Alpha  occ. eigenvalues --   -0.91073  -0.90994  -0.89792  -0.89648  -0.89463
 Alpha  occ. eigenvalues --   -0.89189  -0.88722  -0.88273  -0.88052  -0.87168
 Alpha  occ. eigenvalues --   -0.86641  -0.86455  -0.86280  -0.85382  -0.84566
 Alpha  occ. eigenvalues --   -0.84504  -0.84178  -0.83387  -0.82793  -0.82707
 Alpha  occ. eigenvalues --   -0.82015  -0.80592  -0.80158  -0.79919  -0.79354
 Alpha  occ. eigenvalues --   -0.79068  -0.78652  -0.78260  -0.78057  -0.77598
 Alpha  occ. eigenvalues --   -0.77343  -0.75402  -0.74537  -0.74030  -0.74029
 Alpha  occ. eigenvalues --   -0.71321  -0.71262  -0.71169  -0.71027  -0.69993
 Alpha  occ. eigenvalues --   -0.69946  -0.69475  -0.68729  -0.68411  -0.68261
 Alpha  occ. eigenvalues --   -0.67896  -0.67293  -0.66802  -0.66703  -0.66422
 Alpha  occ. eigenvalues --   -0.65896  -0.64446  -0.64038  -0.62722  -0.62161
 Alpha  occ. eigenvalues --   -0.61477  -0.61456  -0.61302  -0.60978  -0.60847
 Alpha  occ. eigenvalues --   -0.60182  -0.59935  -0.59417  -0.59393  -0.59109
 Alpha  occ. eigenvalues --   -0.58401  -0.58202  -0.57834  -0.57686  -0.57415
 Alpha  occ. eigenvalues --   -0.57250  -0.57140  -0.56960  -0.56451  -0.56382
 Alpha  occ. eigenvalues --   -0.56184  -0.55712  -0.55148  -0.54776  -0.54747
 Alpha  occ. eigenvalues --   -0.54553  -0.54505  -0.54479  -0.54238  -0.54035
 Alpha  occ. eigenvalues --   -0.54021  -0.53825  -0.53682  -0.53589  -0.53456
 Alpha  occ. eigenvalues --   -0.53220  -0.53193  -0.52958  -0.52659  -0.52362
 Alpha  occ. eigenvalues --   -0.52276  -0.52118  -0.51967  -0.51620  -0.51461
 Alpha  occ. eigenvalues --   -0.51410  -0.51353  -0.51156  -0.51066  -0.50780
 Alpha  occ. eigenvalues --   -0.50657  -0.50487  -0.50427  -0.50409  -0.50111
 Alpha  occ. eigenvalues --   -0.50002  -0.49578  -0.49516  -0.49104  -0.49082
 Alpha  occ. eigenvalues --   -0.48945  -0.48781  -0.48724  -0.48571  -0.48363
 Alpha  occ. eigenvalues --   -0.48247  -0.48171  -0.48108  -0.48040  -0.47676
 Alpha  occ. eigenvalues --   -0.47561  -0.47241  -0.47217  -0.46965  -0.46890
 Alpha  occ. eigenvalues --   -0.46825  -0.46763  -0.46544  -0.46534  -0.46481
 Alpha  occ. eigenvalues --   -0.46467  -0.45977  -0.45776  -0.45596  -0.45426
 Alpha  occ. eigenvalues --   -0.45271  -0.45168  -0.45070  -0.44987  -0.44950
 Alpha  occ. eigenvalues --   -0.44860  -0.44654  -0.44468  -0.44358  -0.43991
 Alpha  occ. eigenvalues --   -0.43967  -0.43858  -0.43652  -0.43580  -0.43564
 Alpha  occ. eigenvalues --   -0.43495  -0.43372  -0.43087  -0.43031  -0.42590
 Alpha  occ. eigenvalues --   -0.42275  -0.42170  -0.41800  -0.41108  -0.40914
 Alpha  occ. eigenvalues --   -0.40451  -0.40344  -0.39865  -0.39653  -0.39316
 Alpha  occ. eigenvalues --   -0.39303  -0.39071  -0.38820  -0.38460  -0.38392
 Alpha  occ. eigenvalues --   -0.38310  -0.37579  -0.37055  -0.36687  -0.36350
 Alpha  occ. eigenvalues --   -0.35752  -0.35478  -0.35211  -0.33603  -0.33401
 Alpha  occ. eigenvalues --   -0.33033  -0.32711  -0.32670  -0.32070  -0.32045
 Alpha  occ. eigenvalues --   -0.31740  -0.31693  -0.31542  -0.26232  -0.25925
 Alpha  occ. eigenvalues --   -0.23379  -0.22928
 Alpha virt. eigenvalues --   -0.07522  -0.06911  -0.00600  -0.00222   0.02310
 Alpha virt. eigenvalues --    0.02820   0.04458   0.04653   0.04951   0.05826
 Alpha virt. eigenvalues --    0.06291   0.06483   0.07446   0.07555   0.07931

 Mulliken charges:
               1
     1  Mg   0.953191
     2  C    0.048242
     3  C   -0.057395
     4  C   -0.121970
     5  C   -0.096255
     6  N   -0.342813
     7  C   -0.024017
     8  C   -0.029628
     9  C   -0.145848
    10  C    0.045756
    11  C    0.012145
    12  C    0.023819
    13  C   -0.137489
    14  H    0.039403
    15  N   -0.537467
    16  C    0.202022
    17  C   -0.171417
    18  C   -0.063988
    19  C    0.269860
    20  C    0.097329
    21  C   -0.011550
    22  O   -0.238985
    23  C    0.006757
    24  N   -0.368796
    25  C    0.069679
    26  C   -0.083346
    27  C   -0.081737
    28  C    0.063034
    29  C    0.032046
    30  C    0.003048
    31  C   -0.018654
    32  N   -0.406913
    33  C    0.111839
    34  C   -0.185351
    35  C   -0.015269
    36  C    0.112707
    37  C    0.089697
    38  C    0.108559
    39  O   -0.187686
    40  C   -0.127710
    41  C    0.253632
    42  O   -0.269168
    43  O   -0.361140
    44  C    0.149147
    45  H    0.001516
    46  H   -0.005770
    47  H   -0.002657
    48  H    0.049422
    49  H    0.042653
    50  H    0.038415
    51  H    0.051654
    52  H    0.032441
    53  H    0.051970
    54  H    0.052092
    55  H    0.064268
    56  H    0.053150
    57  H    0.001060
    58  H    0.057472
    59  H    0.064916
    60  H    0.039519
    61  H    0.062535
    62  H    0.058194
    63  H    0.032807
    64  H    0.027041
    65  H    0.033969
    66  H    0.045390
    67  H    0.027805
    68  H    0.039483
    69  H    0.019978
    70  H    0.027074
    71  H    0.029308
    72  H    0.034685
    73  H    0.036043
    74  H    0.067878
    75  H    0.051511
    76  H    0.051060
    77  H    0.057642
    78  H    0.047427
    79  H    0.050727
    80  Mg   0.956371
    81  C   -0.040566
    82  C   -0.109741
    83  C   -0.099867
    84  C   -0.098637
    85  N   -0.351106
    86  C    0.005289
    87  C   -0.079340
    88  C   -0.050148
    89  C    0.025458
    90  C    0.014879
    91  C   -0.013970
    92  C   -0.131149
    93  H    0.040524
    94  N   -0.438421
    95  C    0.180614
    96  C   -0.147255
    97  C   -0.107052
    98  C    0.207255
    99  C    0.080090
   100  C    0.051199
   101  O   -0.235811
   102  C   -0.010261
   103  N   -0.368942
   104  C    0.022602
   105  C   -0.081736
   106  C   -0.120529
   107  C    0.042957
   108  C    0.052860
   109  C   -0.004536
   110  C   -0.029132
   111  N   -0.430859
   112  C    0.160497
   113  C   -0.200706
   114  C   -0.051433
   115  C    0.127395
   116  C    0.085817
   117  C    0.113213
   118  O   -0.186694
   119  C   -0.041036
   120  C    0.283690
   121  O   -0.240055
   122  O   -0.406663
   123  C    0.140500
   124  H   -0.004443
   125  H   -0.020624
   126  H   -0.017945
   127  H    0.039041
   128  H    0.033613
   129  H    0.033217
   130  H    0.048010
   131  H    0.044197
   132  H    0.053132
   133  H    0.034520
   134  H    0.067926
   135  H    0.053147
   136  H    0.060739
   137  H    0.037245
   138  H    0.065555
   139  H    0.070757
   140  H    0.064996
   141  H    0.051192
   142  H    0.031607
   143  H    0.032319
   144  H    0.042663
   145  H    0.037287
   146  H    0.047658
   147  H    0.039938
   148  H    0.030554
   149  H    0.027317
   150  H    0.038542
   151  H    0.043300
   152  H    0.018984
   153  H    0.066595
   154  H    0.074598
   155  H    0.069187
   156  H    0.037450
   157  H    0.075518
   158  H    0.056644
 Sum of Mulliken charges =  -0.00000

 Dipole moment (field-independent basis, Debye):
    X=              0.3813    Y=              6.7698    Z=              2.2378  Tot=              7.1403
 Quadrupole moment (field-independent basis, Debye-Ang):
   XX=           -541.3998   YY=           -482.9250   ZZ=           -500.1295
   XY=            -64.3342   XZ=            -18.7828   YZ=             20.9468

 Normal termination of Gaussian 16 at Sun Sep 19 15:18:58 2021.
