 Gaussian 16, Revision A.03,
 Gaussian 16:  ES64L-G16RevA.03 25-Dec-2016

 --------------------------------
 #p wB97XD/Def2SVP td=(nstates=5)
 --------------------------------

 --------------------------------
 TDDFT excited states in gaussian
 --------------------------------
 Symbolic Z-matrix:
 Charge =  0 Multiplicity = 1

                         Standard orientation:
 ---------------------------------------------------------------------
 Center     Atomic      Atomic             Coordinates (Angstroms)
 Number     Number       Type             X           Y           Z
 ---------------------------------------------------------------------
      1         12           0      -26.854238   -0.634751   -0.186343
      2          6           0      -25.191949    2.253005   -1.270366
      3          6           0      -28.271805    1.289365    2.425988
      4          6           0      -28.200409   -3.477364    1.093055
      5          6           0      -24.851569   -2.496403   -2.294563
      6          7           0      -26.845665    1.516235    0.347606
      7          6           0      -26.210097    2.519915   -0.389060
      8          6           0      -26.813570    3.913773    0.012993
      9          6           0      -27.689358    3.561383    1.220947
     10          6           0      -27.565681    2.006368    1.385515
     11          6           0      -27.197103    4.316238    2.485112
     12          6           0      -27.533373    4.499032   -1.195872
     13          6           0      -27.631168    6.011810   -1.305996
     14          1           0      -27.289054    6.859520   -0.059908
     15          7           0      -28.078495   -1.084697    1.502499
     16          6           0      -28.524696   -0.160242    2.466013
     17          6           0      -29.298026   -0.830038    3.496904
     18          6           0      -29.379561   -2.231883    3.133843
     19          6           0      -28.517955   -2.314684    1.877342
     20          6           0      -30.045234   -0.106870    4.624711
     21          6           0      -30.111557   -3.386905    3.789848
     22          8           0      -30.062159   -4.507361    3.300113
     23          6           0      -31.049755   -3.094786    4.897193
     24          7           0      -26.589356   -2.704163   -0.626251
     25          6           0      -27.333204   -3.668613   -0.016386
     26          6           0      -27.089403   -5.034353   -0.710176
     27          6           0      -26.051817   -4.722961   -1.857522
     28          6           0      -25.869609   -3.192400   -1.688312
     29          6           0      -26.595177   -6.073610    0.311979
     30          6           0      -26.550181   -5.038069   -3.292950
     31          6           0      -25.937027   -6.355142   -3.758433
     32          7           0      -25.234464   -0.307120   -1.469556
     33          6           0      -24.457093   -1.129733   -2.214529
     34          6           0      -23.334112   -0.318032   -2.743510
     35          6           0      -23.623762    0.993061   -2.502486
     36          6           0      -24.776511    0.936275   -1.678142
     37          6           0      -22.230054   -0.941196   -3.581040
     38          6           0      -23.240716    2.393702   -2.724805
     39          8           0      -22.277442    2.845631   -3.332016
     40          6           0      -24.294569    3.216313   -2.008930
     41          6           0      -23.547977    4.168744   -1.171912
     42          8           0      -22.975550    4.002769   -0.086317
     43          8           0      -23.504281    5.369064   -1.851157
     44          6           0      -22.751393    6.439052   -1.233570
     45          1           0      -28.753185    1.930632    3.166970
     46          1           0      -28.755917   -4.323034    1.503879
     47          1           0      -24.202258   -3.163540   -2.865465
     48          1           0      -25.903237    4.448099    0.287500
     49          1           0      -28.664882    4.003428    1.018573
     50          1           0      -26.748723    3.684520    3.252104
     51          1           0      -28.095398    4.623086    3.020097
     52          1           0      -26.470337    5.092067    2.245063
     53          1           0      -28.506065    4.006224   -1.189972
     54          1           0      -27.073197    4.106547   -2.101912
     55          1           0      -28.627188    6.269746   -1.663331
     56          1           0      -26.932536    6.207462   -2.120227
     57          1           0      -29.822725    0.958289    4.690931
     58          1           0      -29.787716   -0.553892    5.585826
     59          1           0      -31.110818   -0.306133    4.517316
     60          1           0      -31.874467   -2.499479    4.504534
     61          1           0      -30.518468   -2.727694    5.775271
     62          1           0      -31.551213   -3.995619    5.251081
     63          1           0      -28.051975   -5.392831   -1.074219
     64          1           0      -25.136325   -5.233762   -1.556247
     65          1           0      -25.638283   -6.549827    0.100238
     66          1           0      -27.376561   -6.822450    0.184231
     67          1           0      -26.440654   -5.683646    1.317645
     68          1           0      -26.091147   -4.356356   -4.009172
     69          1           0      -27.635768   -5.084512   -3.381292
     70          1           0      -26.785721   -6.900285   -4.171232
     71          1           0      -25.611447   -7.008499   -2.949337
     72          1           0      -25.140966   -6.266204   -4.498200
     73          1           0      -22.193610   -2.030823   -3.568381
     74          1           0      -21.240113   -0.579497   -3.305736
     75          1           0      -22.459414   -0.761224   -4.631919
     76          1           0      -24.893049    3.718649   -2.768223
     77          1           0      -21.767171    6.044434   -0.979913
     78          1           0      -23.213060    6.829440   -0.326354
     79          1           0      -22.466929    7.086199   -2.062563
     80         12           0       26.869156   -0.713420    0.206640
     81          6           0       25.452937    2.366196    1.267068
     82          6           0       27.945878    1.051473   -2.663524
     83          6           0       27.902091   -3.536565   -1.061127
     84          6           0       25.445499   -2.260721    2.977136
     85          7           0       26.705338    1.505111   -0.626929
     86          6           0       26.158092    2.544825    0.084133
     87          6           0       26.360912    3.896010   -0.580315
     88          6           0       27.062475    3.406522   -1.919141
     89          6           0       27.295550    1.900115   -1.726549
     90          6           0       26.266268    3.843726   -3.145159
     91          6           0       27.258260    4.804137    0.288936
     92          6           0       26.956508    6.350822    0.324060
     93          1           0       26.125636    6.957449   -0.831131
     94          7           0       27.870411   -1.183200   -1.582375
     95          6           0       28.140183   -0.328303   -2.651431
     96          6           0       28.831819   -1.104597   -3.692738
     97          6           0       28.911331   -2.440777   -3.180878
     98          6           0       28.241497   -2.388846   -1.867240
     99          6           0       29.220130   -0.553793   -4.959355
    100          6           0       29.526318   -3.673610   -3.835607
    101          8           0       29.431978   -4.792852   -3.307264
    102          6           0       30.399011   -3.543415   -5.021682
    103          7           0       26.607313   -2.647205    0.815935
    104          6           0       27.223891   -3.638930    0.167700
    105          6           0       26.917380   -5.020549    0.831821
    106          6           0       26.311311   -4.577117    2.201121
    107          6           0       26.078294   -3.109364    2.024747
    108          6           0       26.026875   -5.975332   -0.042163
    109          6           0       27.443937   -4.853895    3.262142
    110          6           0       28.446085   -3.717583    3.664464
    111          7           0       25.784521   -0.112053    1.857529
    112          6           0       25.258261   -0.885585    2.907959
    113          6           0       24.468693    0.007519    3.791883
    114          6           0       24.488027    1.237850    3.145407
    115          6           0       25.287890    1.183017    2.023618
    116          6           0       23.642329   -0.549850    4.848711
    117          6           0       23.871811    2.560949    3.206507
    118          8           0       23.053868    2.974130    4.020724
    119          6           0       24.456053    3.368967    1.954473
    120          6           0       23.367059    3.844930    1.067186
    121          8           0       22.937797    3.267287    0.072609
    122          8           0       22.905832    5.089806    1.535413
    123          6           0       21.801735    5.774065    0.901315
    124          1           0       28.519783    1.553213   -3.445915
    125          1           0       28.239506   -4.512348   -1.417788
    126          1           0       25.088967   -2.848869    3.824978
    127          1           0       25.420976    4.410300   -0.782297
    128          1           0       27.979875    3.988530   -2.002797
    129          1           0       26.829648    4.421331   -3.877174
    130          1           0       25.356923    4.412246   -2.950132
    131          1           0       26.008372    2.931278   -3.684414
    132          1           0       28.306423    4.692826    0.011592
    133          1           0       27.118245    4.339445    1.265545
    134          1           0       27.884268    6.918415    0.260148
    135          1           0       26.644720    6.553517    1.348648
    136          1           0       30.277693   -0.788758   -5.081311
    137          1           0       28.859438    0.468656   -5.067382
    138          1           0       28.556856   -1.112578   -5.620357
    139          1           0       29.857655   -3.299714   -5.936316
    140          1           0       30.889485   -4.497245   -5.215023
    141          1           0       31.045462   -2.681097   -4.861123
    142          1           0       27.938051   -5.401709    0.865032
    143          1           0       25.440749   -5.174636    2.472835
    144          1           0       26.657615   -6.674953   -0.590773
    145          1           0       25.389639   -5.335689   -0.651955
    146          1           0       25.397346   -6.520003    0.661292
    147          1           0       27.916189   -5.811292    3.041065
    148          1           0       26.890717   -4.888231    4.201160
    149          1           0       29.408633   -4.228062    3.677567
    150          1           0       28.261711   -3.319486    4.663108
    151          1           0       28.535986   -2.886476    2.965816
    152          1           0       23.059334   -1.371557    4.434718
    153          1           0       22.951558    0.239248    5.147523
    154          1           0       24.229238   -0.735403    5.747863
    155          1           0       24.942144    4.227659    2.418613
    156          1           0       20.844180    5.596091    1.390111
    157          1           0       21.849317    5.685100   -0.184112
    158          1           0       22.117144    6.811396    1.016983
 ---------------------------------------------------------------------

 SCF Done:  E(RwB97XD) =  -4070.60315422     A.U. after   19 cycles

 Excitation energies and oscillator strengths:

 Excited State   1:      Singlet-A      1.6258 eV  762.61 nm  f=0.3935  <S**2>=0.000
     310 -> 316        0.17889
     311 -> 313        0.68467
     310 <- 316        0.11345
 This state for optimization and/or second-order correction.
 Total Energy, E(TD-HF/TD-DFT) =  -4070.54340724
 Copying the excited state density for this state as the 1-particle RhoCI density.

 Excited State   2:      Singlet-A      1.6997 eV  729.44 nm  f=0.3715  <S**2>=0.000
     309 -> 315        0.19453
     312 -> 314        0.67893
     309 <- 315        0.11677

 Excited State   3:      Singlet-A      2.1420 eV  578.83 nm  f=0.1177  <S**2>=0.000
     310 -> 313        0.64313
     311 -> 316       -0.27651

 Excited State   4:      Singlet-A      2.2204 eV  558.38 nm  f=0.0706  <S**2>=0.000
     309 -> 314        0.62146
     312 -> 315       -0.32310

 Excited State   5:      Singlet-A      3.4350 eV  360.94 nm  f=0.0955  <S**2>=0.000
     305 -> 313       -0.35740
     307 -> 313        0.46959
     310 -> 313       -0.10471
     311 -> 316       -0.35074

 The electronic state is 1-A.
 Alpha  occ. eigenvalues --  -46.95440 -46.94804 -19.29658 -19.29187 -19.24774
 Alpha  occ. eigenvalues --  -19.24714 -19.24305 -19.24298 -19.24269 -19.23789
 Alpha  occ. eigenvalues --  -14.46774 -14.46707 -14.46317 -14.45814 -14.44744
 Alpha  occ. eigenvalues --  -14.44264 -14.43736 -14.43487 -10.43290 -10.43189
 Alpha  occ. eigenvalues --  -10.39470 -10.39367 -10.39342 -10.39269 -10.36066
 Alpha  occ. eigenvalues --  -10.35298 -10.35259 -10.35099 -10.35027 -10.34862
 Alpha  occ. eigenvalues --  -10.34727 -10.34667 -10.34646 -10.34510 -10.34426
 Alpha  occ. eigenvalues --  -10.34412 -10.34178 -10.34027 -10.33767 -10.33280
 Alpha  occ. eigenvalues --  -10.33204 -10.33188 -10.33132 -10.32991 -10.32884
 Alpha  occ. eigenvalues --  -10.32522 -10.32403 -10.32276 -10.32231 -10.32177
 Alpha  occ. eigenvalues --  -10.32137 -10.31813 -10.31796 -10.31746 -10.31671
 Alpha  occ. eigenvalues --  -10.31627 -10.31595 -10.31583 -10.31557 -10.31427
 Alpha  occ. eigenvalues --  -10.31418 -10.31395 -10.31387 -10.31324 -10.31167
 Alpha  occ. eigenvalues --  -10.31038 -10.30736 -10.30702 -10.30510 -10.30384
 Alpha  occ. eigenvalues --  -10.30380 -10.30371 -10.30317 -10.30280 -10.30192
 Alpha  occ. eigenvalues --  -10.29585 -10.29386 -10.29344 -10.29308 -10.29175
 Alpha  occ. eigenvalues --  -10.29110 -10.29068 -10.28885 -10.28791 -10.28739
 Alpha  occ. eigenvalues --  -10.28652  -3.21290  -3.20793  -1.94890  -1.94389
 Alpha  occ. eigenvalues --   -1.94369  -1.94289  -1.93927  -1.93752  -1.17931
 Alpha  occ. eigenvalues --   -1.16774  -1.12705  -1.12194  -1.11837  -1.11428
 Alpha  occ. eigenvalues --   -1.09400  -1.09027  -1.06775  -1.06285  -1.06064
 Alpha  occ. eigenvalues --   -1.05051  -1.04780  -1.04626  -1.03685  -1.03334
 Alpha  occ. eigenvalues --   -0.95310  -0.93900  -0.91842  -0.91103  -0.90615
 Alpha  occ. eigenvalues --   -0.90502  -0.90218  -0.89893  -0.89273  -0.89024
 Alpha  occ. eigenvalues --   -0.88787  -0.88608  -0.88066  -0.87501  -0.86238
 Alpha  occ. eigenvalues --   -0.86032  -0.85737  -0.85174  -0.84607  -0.84555
 Alpha  occ. eigenvalues --   -0.84322  -0.83833  -0.82822  -0.82728  -0.82380
 Alpha  occ. eigenvalues --   -0.81977  -0.80932  -0.80085  -0.79173  -0.78983
 Alpha  occ. eigenvalues --   -0.78741  -0.78693  -0.77839  -0.77669  -0.76706
 Alpha  occ. eigenvalues --   -0.76471  -0.74496  -0.74066  -0.73254  -0.72973
 Alpha  occ. eigenvalues --   -0.71106  -0.71024  -0.70836  -0.70386  -0.69856
 Alpha  occ. eigenvalues --   -0.69803  -0.69069  -0.68715  -0.67310  -0.66903
 Alpha  occ. eigenvalues --   -0.66816  -0.66634  -0.66606  -0.66397  -0.66146
 Alpha  occ. eigenvalues --   -0.65871  -0.64091  -0.63488  -0.62337  -0.62140
 Alpha  occ. eigenvalues --   -0.61586  -0.61282  -0.61041  -0.61019  -0.60733
 Alpha  occ. eigenvalues --   -0.60323  -0.59986  -0.59811  -0.59631  -0.59113
 Alpha  occ. eigenvalues --   -0.58247  -0.57836  -0.57700  -0.57436  -0.57168
 Alpha  occ. eigenvalues --   -0.57004  -0.56705  -0.56146  -0.55911  -0.55720
 Alpha  occ. eigenvalues --   -0.55549  -0.55477  -0.55304  -0.55263  -0.55226
 Alpha  occ. eigenvalues --   -0.55072  -0.54840  -0.54740  -0.54676  -0.54159
 Alpha  occ. eigenvalues --   -0.53796  -0.53679  -0.53647  -0.53411  -0.53302
 Alpha  occ. eigenvalues --   -0.53197  -0.52738  -0.52681  -0.52465  -0.52309
 Alpha  occ. eigenvalues --   -0.51868  -0.51819  -0.51677  -0.51540  -0.51512
 Alpha  occ. eigenvalues --   -0.51206  -0.51180  -0.50942  -0.50872  -0.50802
 Alpha  occ. eigenvalues --   -0.50547  -0.50409  -0.50295  -0.50058  -0.49996
 Alpha  occ. eigenvalues --   -0.49775  -0.49518  -0.49330  -0.49270  -0.49093
 Alpha  occ. eigenvalues --   -0.48825  -0.48628  -0.48590  -0.48290  -0.47995
 Alpha  occ. eigenvalues --   -0.47942  -0.47906  -0.47810  -0.47261  -0.47150
 Alpha  occ. eigenvalues --   -0.46903  -0.46885  -0.46685  -0.46468  -0.46368
 Alpha  occ. eigenvalues --   -0.46298  -0.46179  -0.46122  -0.46118  -0.45958
 Alpha  occ. eigenvalues --   -0.45792  -0.45524  -0.45513  -0.45344  -0.45343
 Alpha  occ. eigenvalues --   -0.45256  -0.45126  -0.44960  -0.44875  -0.44787
 Alpha  occ. eigenvalues --   -0.44603  -0.44407  -0.44235  -0.43823  -0.43736
 Alpha  occ. eigenvalues --   -0.43657  -0.43415  -0.43319  -0.43178  -0.42981
 Alpha  occ. eigenvalues --   -0.42857  -0.42558  -0.42295  -0.42180  -0.41854
 Alpha  occ. eigenvalues --   -0.41728  -0.41249  -0.40807  -0.40475  -0.40332
 Alpha  occ. eigenvalues --   -0.39896  -0.39871  -0.39677  -0.39660  -0.39331
 Alpha  occ. eigenvalues --   -0.39072  -0.38597  -0.38589  -0.38290  -0.38084
 Alpha  occ. eigenvalues --   -0.37748  -0.37608  -0.36286  -0.36087  -0.36038
 Alpha  occ. eigenvalues --   -0.35977  -0.35491  -0.34860  -0.33542  -0.33495
 Alpha  occ. eigenvalues --   -0.33373  -0.33159  -0.33119  -0.32751  -0.32444
 Alpha  occ. eigenvalues --   -0.32358  -0.32159  -0.31440  -0.25780  -0.25713
 Alpha  occ. eigenvalues --   -0.22725  -0.22558
 Alpha virt. eigenvalues --   -0.07003  -0.06455   0.00237   0.00475   0.02246
 Alpha virt. eigenvalues --    0.02327   0.04003   0.04312   0.05545   0.06403
 Alpha virt. eigenvalues --    0.07115   0.07399   0.07700   0.07799   0.08228

 Mulliken charges:
               1
     1  Mg   0.955750
     2  C   -0.016242
     3  C   -0.071939
     4  C   -0.061323
     5  C   -0.075467
     6  N   -0.370184
     7  C   -0.076537
     8  C   -0.019226
     9  C   -0.128272
    10  C    0.112554
    11  C    0.004210
    12  C    0.005661
    13  C   -0.087416
    14  H    0.044134
    15  N   -0.442690
    16  C    0.155545
    17  C   -0.170756
    18  C   -0.084794
    19  C    0.094634
    20  C    0.080171
    21  C    0.059012
    22  O   -0.231352
    23  C   -0.015691
    24  N   -0.372776
    25  C    0.091405
    26  C   -0.107471
    27  C   -0.062927
    28  C    0.055552
    29  C    0.009057
    30  C    0.009714
    31  C   -0.064269
    32  N   -0.405670
    33  C    0.114635
    34  C   -0.207865
    35  C   -0.016063
    36  C    0.137512
    37  C    0.069672
    38  C    0.119919
    39  O   -0.196943
    40  C   -0.032868
    41  C    0.261147
    42  O   -0.260740
    43  O   -0.368893
    44  C    0.150848
    45  H   -0.002616
    46  H    0.022742
    47  H   -0.005005
    48  H    0.035192
    49  H    0.041283
    50  H    0.033205
    51  H    0.028431
    52  H    0.050200
    53  H    0.018842
    54  H    0.026428
    55  H    0.050750
    56  H    0.056881
    57  H    0.044921
    58  H    0.041655
    59  H    0.050594
    60  H    0.068889
    61  H    0.058676
    62  H    0.044867
    63  H    0.042162
    64  H    0.041198
    65  H    0.028411
    66  H    0.042372
    67  H    0.055144
    68  H    0.035725
    69  H    0.040887
    70  H    0.024667
    71  H    0.026475
    72  H    0.047220
    73  H    0.017839
    74  H    0.060246
    75  H    0.049671
    76  H    0.082121
    77  H    0.044840
    78  H    0.059124
    79  H    0.053206
    80  Mg   0.958793
    81  C    0.014342
    82  C   -0.116043
    83  C   -0.071687
    84  C   -0.091837
    85  N   -0.268392
    86  C   -0.050153
    87  C   -0.080562
    88  C   -0.081115
    89  C    0.061248
    90  C    0.017845
    91  C   -0.000828
    92  C   -0.101177
    93  H    0.041893
    94  N   -0.420510
    95  C    0.160683
    96  C   -0.187128
    97  C   -0.089502
    98  C    0.145855
    99  C    0.087259
   100  C    0.060773
   101  O   -0.251539
   102  C   -0.004323
   103  N   -0.411497
   104  C    0.041681
   105  C   -0.106361
   106  C   -0.056920
   107  C    0.053375
   108  C    0.041980
   109  C   -0.057105
   110  C   -0.040311
   111  N   -0.481708
   112  C    0.164165
   113  C   -0.192777
   114  C   -0.021509
   115  C    0.159947
   116  C    0.077995
   117  C    0.119462
   118  O   -0.196960
   119  C   -0.104433
   120  C    0.295994
   121  O   -0.245635
   122  O   -0.393137
   123  C    0.148806
   124  H    0.010752
   125  H    0.016605
   126  H   -0.005066
   127  H    0.045961
   128  H    0.028857
   129  H    0.025204
   130  H    0.045321
   131  H    0.027079
   132  H    0.030833
   133  H    0.034374
   134  H    0.044103
   135  H    0.052227
   136  H    0.062376
   137  H    0.037777
   138  H    0.061596
   139  H    0.050558
   140  H    0.063432
   141  H    0.049812
   142  H    0.039304
   143  H    0.036131
   144  H    0.056258
   145  H    0.049515
   146  H    0.029635
   147  H    0.044646
   148  H    0.027428
   149  H    0.033403
   150  H    0.043538
   151  H    0.047366
   152  H    0.057826
   153  H    0.044363
   154  H    0.045815
   155  H    0.074968
   156  H    0.071711
   157  H    0.047360
   158  H    0.039989
 Sum of Mulliken charges =  -0.00000

 Dipole moment (field-independent basis, Debye):
    X=             -1.4063    Y=              1.3202    Z=             -2.0601  Tot=              2.8222
 Quadrupole moment (field-independent basis, Debye-Ang):
   XX=            -67.6153   YY=           -483.2480   ZZ=           -488.8398
   XY=              7.1399   XZ=            -97.8300   YZ=             -6.8210

 Normal termination of Gaussian 16 at Sun Sep 19 22:55:27 2021.
