 Gaussian 16, Revision A.03,
 Gaussian 16:  ES64L-G16RevA.03 25-Dec-2016

 --------------------------------
 #p wB97XD/Def2SVP td=(nstates=5)
 --------------------------------

 --------------------------------
 TDDFT excited states in gaussian
 --------------------------------
 Symbolic Z-matrix:
 Charge =  0 Multiplicity = 1

                         Standard orientation:
 ---------------------------------------------------------------------
 Center     Atomic      Atomic             Coordinates (Angstroms)
 Number     Number       Type             X           Y           Z
 ---------------------------------------------------------------------
      1         12           0       12.748417    0.416235    0.279258
      2          6           0        9.356294   -0.390119   -0.289225
      3          6           0       13.300902    0.497690   -2.970753
      4          6           0       16.090077    0.285567    0.978592
      5          6           0       12.188328   -0.741149    3.746527
      6          7           0       11.438945    0.023996   -1.415386
      7          6           0       10.091656   -0.039561   -1.422943
      8          6           0        9.584992    0.156815   -2.865268
      9          6           0       10.799952    0.455382   -3.683847
     10          6           0       11.958612    0.284612   -2.655255
     11          6           0       10.854686   -0.372723   -5.032375
     12          6           0        8.404690    1.154842   -3.112632
     13          6           0        8.305965    2.051178   -4.420625
     14          1           0        6.949830    2.159819   -5.133023
     15          7           0       14.440375    0.644762   -0.854808
     16          6           0       14.450116    0.666393   -2.231216
     17          6           0       15.804163    0.886114   -2.653558
     18          6           0       16.699932    0.794522   -1.517912
     19          6           0       15.759149    0.514359   -0.410865
     20          6           0       16.070775    0.994502   -4.100249
     21          6           0       18.231284    1.002481   -1.417149
     22          8           0       18.789828    0.836802   -0.383187
     23          6           0       18.980988    1.649399   -2.535897
     24          7           0       13.945019   -0.213291    2.120058
     25          6           0       15.282171   -0.015772    2.091317
     26          6           0       15.949704   -0.316402    3.471353
     27          6           0       14.717773   -0.608015    4.381746
     28          6           0       13.527127   -0.542259    3.393392
     29          6           0       16.945810   -1.445343    3.481349
     30          6           0       14.471801    0.328043    5.616365
     31          6           0       13.871518    1.676005    5.400173
     32          7           0       11.182417   -0.389431    1.577562
     33          6           0       11.121318   -0.729730    2.898525
     34          6           0        9.754284   -1.024364    3.252746
     35          6           0        8.994218   -0.917848    2.058320
     36          6           0        9.926019   -0.573088    1.058266
     37          6           0        9.239245   -1.538395    4.550698
     38          6           0        7.697306   -1.061260    1.460947
     39          8           0        6.588819   -1.330341    1.909415
     40          6           0        7.859087   -0.678343   -0.078391
     41          6           0        7.243505   -1.705552   -1.013495
     42          8           0        7.642389   -2.836030   -1.125081
     43          8           0        6.209252   -1.114897   -1.721954
     44          6           0        5.527469   -2.039898   -2.627991
     45          1           0       13.536736    0.743380   -4.008658
     46          1           0       17.170963    0.311082    1.130087
     47          1           0       11.999111   -0.981209    4.794780
     48          1           0        9.171880   -0.839893   -3.020297
     49          1           0       10.717813    1.487859   -4.024583
     50          1           0        9.913638   -0.905594   -5.167692
     51          1           0       11.768938   -0.965957   -5.016787
     52          1           0       10.859393    0.286130   -5.900900
     53          1           0        8.409040    1.852405   -2.274724
     54          1           0        7.434665    0.662361   -3.039827
     55          1           0        9.046859    1.622259   -5.095612
     56          1           0        8.640015    3.061222   -4.182999
     57          1           0       17.032889    0.507046   -4.256187
     58          1           0       16.196285    2.053650   -4.321954
     59          1           0       15.376773    0.607115   -4.846352
     60          1           0       19.299169    0.790748   -3.125704
     61          1           0       19.752066    2.297930   -2.118908
     62          1           0       18.370632    2.233186   -3.225277
     63          1           0       16.394433    0.576910    3.910346
     64          1           0       14.573342   -1.608335    4.788706
     65          1           0       17.200357   -1.761771    2.468991
     66          1           0       16.554673   -2.336387    3.973136
     67          1           0       17.825263   -1.052811    3.991216
     68          1           0       15.410918    0.489494    6.145713
     69          1           0       13.925074   -0.249319    6.362257
     70          1           0       14.047236    1.996416    4.373074
     71          1           0       14.221878    2.545093    5.957427
     72          1           0       12.823093    1.562170    5.677583
     73          1           0        9.664246   -2.490356    4.867579
     74          1           0        8.227319   -1.885039    4.339587
     75          1           0        9.294800   -0.784351    5.336318
     76          1           0        7.362253    0.285065   -0.194610
     77          1           0        5.924443   -1.497568   -3.485564
     78          1           0        4.472778   -1.846919   -2.433238
     79          1           0        5.851530   -3.074202   -2.510662
     80         12           0      -12.293486   -0.567426   -0.531204
     81          6           0      -12.290554    2.925481    0.272535
     82          6           0       -8.816048   -0.263618   -1.109305
     83          6           0      -12.092318   -3.917017   -0.538931
     84          6           0      -15.504978   -0.760106    0.718824
     85          7           0      -10.701794    1.141071   -0.445797
     86          6           0      -11.008401    2.415467   -0.058387
     87          6           0       -9.726921    3.194885    0.190944
     88          6           0       -8.711140    2.217544   -0.535954
     89          6           0       -9.395812    0.918987   -0.733412
     90          6           0       -8.101416    2.698580   -1.895398
     91          6           0       -9.560603    3.481011    1.717904
     92          6           0       -9.124334    4.922841    2.207369
     93          1           0       -7.803740    5.099484    2.978212
     94          7           0      -10.802087   -1.878524   -0.954379
     95          6           0       -9.431856   -1.586057   -1.184397
     96          6           0       -8.695721   -2.801311   -1.480064
     97          6           0       -9.671066   -3.864745   -1.300136
     98          6           0      -10.913650   -3.215952   -0.925719
     99          6           0       -7.243637   -2.789676   -1.719819
    100          6           0       -9.334856   -5.349676   -1.522161
    101          8           0       -8.123637   -5.617879   -1.772924
    102          6           0      -10.344587   -6.515625   -1.464761
    103          7           0      -13.507523   -2.213117    0.259468
    104          6           0      -13.290712   -3.482499   -0.026864
    105          6           0      -14.424033   -4.291762    0.515827
    106          6           0      -15.514942   -3.239662    0.850679
    107          6           0      -14.774414   -1.948816    0.681224
    108          6           0      -15.008960   -5.503958   -0.327811
    109          6           0      -16.184274   -3.381188    2.313860
    110          6           0      -17.690985   -3.725589    2.406915
    111          7           0      -13.694463    0.761012    0.125184
    112          6           0      -14.936642    0.554704    0.594243
    113          6           0      -15.562866    1.771110    0.963138
    114          6           0      -14.561074    2.731435    0.804240
    115          6           0      -13.404738    2.064827    0.325929
    116          6           0      -16.937546    2.054303    1.419544
    117          6           0      -14.330331    4.129015    1.003221
    118          8           0      -15.079872    4.957664    1.469135
    119          6           0      -12.715029    4.313042    0.680984
    120          6           0      -12.531233    5.272253   -0.414637
    121          8           0      -13.199502    5.312225   -1.455472
    122          8           0      -11.467567    6.075212   -0.061947
    123          6           0      -11.100007    7.121700   -1.014345
    124          1           0       -7.743066   -0.234402   -1.304992
    125          1           0      -12.058457   -5.002083   -0.423889
    126          1           0      -16.581432   -0.733883    0.901534
    127          1           0       -9.782370    4.081706   -0.440907
    128          1           0       -8.016426    2.084381    0.294179
    129          1           0       -8.340232    1.941462   -2.643656
    130          1           0       -7.015734    2.792783   -1.889669
    131          1           0       -8.522188    3.619008   -2.301350
    132          1           0       -8.774930    2.760888    1.945382
    133          1           0      -10.405338    3.206131    2.349139
    134          1           0       -9.961921    5.272943    2.810396
    135          1           0       -9.190417    5.601159    1.357254
    136          1           0       -6.799467   -2.259971   -0.876743
    137          1           0       -7.017168   -2.189393   -2.600751
    138          1           0       -6.755545   -3.738401   -1.944483
    139          1           0      -10.623998   -6.666156   -0.421860
    140          1           0       -9.903188   -7.278931   -2.104724
    141          1           0      -11.197458   -6.118676   -2.016377
    142          1           0      -14.054808   -4.773289    1.420468
    143          1           0      -16.163452   -3.308964   -0.022758
    144          1           0      -15.392608   -6.193763    0.424327
    145          1           0      -14.205171   -5.922684   -0.933162
    146          1           0      -15.828122   -5.098463   -0.921909
    147          1           0      -15.973343   -2.420651    2.783652
    148          1           0      -15.570175   -4.076259    2.886300
    149          1           0      -18.234566   -3.063705    3.079783
    150          1           0      -17.790095   -4.758085    2.742969
    151          1           0      -18.198403   -3.735907    1.442099
    152          1           0      -17.191219    3.107990    1.307778
    153          1           0      -16.806611    1.756113    2.459916
    154          1           0      -17.583344    1.255515    1.055097
    155          1           0      -12.151593    4.522949    1.589443
    156          1           0      -11.960643    7.725684   -1.302660
    157          1           0      -10.634962    6.673101   -1.893416
    158          1           0      -10.382623    7.789575   -0.537417
 ---------------------------------------------------------------------

 SCF Done:  E(RwB97XD) =  -4070.57697067     A.U. after   20 cycles

 Excitation energies and oscillator strengths:

 Excited State   1:      Singlet-A      1.6365 eV  757.62 nm  f=0.5499  <S**2>=0.000
     309 -> 315        0.17402
     311 -> 313        0.62357
     312 -> 314        0.27887
     309 <- 315        0.11057
 This state for optimization and/or second-order correction.
 Total Energy, E(TD-HF/TD-DFT) =  -4070.51683048
 Copying the excited state density for this state as the 1-particle RhoCI density.

 Excited State   2:      Singlet-A      1.6428 eV  754.72 nm  f=0.2309  <S**2>=0.000
     310 -> 316       -0.17640
     311 -> 313       -0.27928
     312 -> 314        0.62201
     310 <- 316       -0.10959

 Excited State   3:      Singlet-A      2.1319 eV  581.55 nm  f=0.1074  <S**2>=0.000
     310 -> 314        0.64020
     312 -> 316        0.28532

 Excited State   4:      Singlet-A      2.1990 eV  563.81 nm  f=0.1287  <S**2>=0.000
     309 -> 313        0.63861
     311 -> 315       -0.29230

 Excited State   5:      Singlet-A      3.6648 eV  338.31 nm  f=0.0000  <S**2>=0.000
     312 -> 313        0.70700

 The electronic state is 1-A.
 Alpha  occ. eigenvalues --  -46.96327 -46.95178 -19.31450 -19.29964 -19.25470
 Alpha  occ. eigenvalues --  -19.24938 -19.24748 -19.24597 -19.23672 -19.23101
 Alpha  occ. eigenvalues --  -14.46792 -14.46475 -14.46370 -14.45897 -14.44484
 Alpha  occ. eigenvalues --  -14.44354 -14.44105 -14.43386 -10.43895 -10.42949
 Alpha  occ. eigenvalues --  -10.39686 -10.39432 -10.39168 -10.38806 -10.36149
 Alpha  occ. eigenvalues --  -10.35673 -10.35140 -10.35139 -10.34969 -10.34963
 Alpha  occ. eigenvalues --  -10.34739 -10.34715 -10.34605 -10.34346 -10.34329
 Alpha  occ. eigenvalues --  -10.34324 -10.34255 -10.33701 -10.33615 -10.33478
 Alpha  occ. eigenvalues --  -10.33026 -10.33025 -10.32879 -10.32825 -10.32722
 Alpha  occ. eigenvalues --  -10.32648 -10.32551 -10.32314 -10.32182 -10.32079
 Alpha  occ. eigenvalues --  -10.32064 -10.31871 -10.31775 -10.31693 -10.31665
 Alpha  occ. eigenvalues --  -10.31594 -10.31560 -10.31555 -10.31485 -10.31479
 Alpha  occ. eigenvalues --  -10.31397 -10.31357 -10.31312 -10.31165 -10.31128
 Alpha  occ. eigenvalues --  -10.31034 -10.30963 -10.30761 -10.30748 -10.30605
 Alpha  occ. eigenvalues --  -10.30480 -10.30442 -10.30431 -10.30413 -10.30408
 Alpha  occ. eigenvalues --  -10.30252 -10.30210 -10.30064 -10.30047 -10.29837
 Alpha  occ. eigenvalues --  -10.29258 -10.28941 -10.28908 -10.28892 -10.28773
 Alpha  occ. eigenvalues --  -10.28547  -3.22121  -3.21175  -1.95674  -1.95244
 Alpha  occ. eigenvalues --   -1.95070  -1.94754  -1.94287  -1.94159  -1.18674
 Alpha  occ. eigenvalues --   -1.18438  -1.15123  -1.13023  -1.11433  -1.10725
 Alpha  occ. eigenvalues --   -1.10318  -1.09374  -1.07399  -1.06686  -1.06211
 Alpha  occ. eigenvalues --   -1.05682  -1.05129  -1.04510  -1.04324  -1.03868
 Alpha  occ. eigenvalues --   -0.95094  -0.93567  -0.91175  -0.91157  -0.90733
 Alpha  occ. eigenvalues --   -0.90184  -0.90136  -0.89932  -0.89819  -0.89346
 Alpha  occ. eigenvalues --   -0.89300  -0.89109  -0.88027  -0.87897  -0.86520
 Alpha  occ. eigenvalues --   -0.85875  -0.85695  -0.85588  -0.84543  -0.84447
 Alpha  occ. eigenvalues --   -0.83898  -0.83844  -0.83264  -0.82774  -0.82374
 Alpha  occ. eigenvalues --   -0.82357  -0.80259  -0.80119  -0.79526  -0.79056
 Alpha  occ. eigenvalues --   -0.79006  -0.78749  -0.78158  -0.77795  -0.77216
 Alpha  occ. eigenvalues --   -0.76592  -0.75130  -0.74312  -0.74127  -0.73425
 Alpha  occ. eigenvalues --   -0.71724  -0.71664  -0.71314  -0.71186  -0.70358
 Alpha  occ. eigenvalues --   -0.70204  -0.68928  -0.68674  -0.68002  -0.67554
 Alpha  occ. eigenvalues --   -0.67045  -0.66923  -0.66705  -0.66224  -0.66082
 Alpha  occ. eigenvalues --   -0.65998  -0.64896  -0.63670  -0.62074  -0.62039
 Alpha  occ. eigenvalues --   -0.61857  -0.61502  -0.61438  -0.60833  -0.60796
 Alpha  occ. eigenvalues --   -0.60332  -0.60308  -0.59969  -0.59525  -0.59381
 Alpha  occ. eigenvalues --   -0.58115  -0.58038  -0.57839  -0.57837  -0.57539
 Alpha  occ. eigenvalues --   -0.57322  -0.56982  -0.56782  -0.56520  -0.56404
 Alpha  occ. eigenvalues --   -0.55990  -0.55668  -0.55593  -0.55291  -0.55225
 Alpha  occ. eigenvalues --   -0.54824  -0.54700  -0.54500  -0.54286  -0.53992
 Alpha  occ. eigenvalues --   -0.53665  -0.53580  -0.53276  -0.53134  -0.53116
 Alpha  occ. eigenvalues --   -0.52870  -0.52755  -0.52516  -0.52455  -0.52228
 Alpha  occ. eigenvalues --   -0.52184  -0.51946  -0.51917  -0.51834  -0.51458
 Alpha  occ. eigenvalues --   -0.51420  -0.51280  -0.51101  -0.50928  -0.50660
 Alpha  occ. eigenvalues --   -0.50659  -0.50515  -0.50338  -0.50288  -0.49790
 Alpha  occ. eigenvalues --   -0.49640  -0.49590  -0.49526  -0.49469  -0.49331
 Alpha  occ. eigenvalues --   -0.49169  -0.49065  -0.48911  -0.48719  -0.48503
 Alpha  occ. eigenvalues --   -0.48320  -0.48025  -0.47957  -0.47816  -0.47746
 Alpha  occ. eigenvalues --   -0.47470  -0.47455  -0.47364  -0.47313  -0.46892
 Alpha  occ. eigenvalues --   -0.46548  -0.46505  -0.46405  -0.46243  -0.45997
 Alpha  occ. eigenvalues --   -0.45640  -0.45620  -0.45564  -0.45506  -0.45462
 Alpha  occ. eigenvalues --   -0.45213  -0.45142  -0.44973  -0.44954  -0.44896
 Alpha  occ. eigenvalues --   -0.44842  -0.44700  -0.44514  -0.44326  -0.44179
 Alpha  occ. eigenvalues --   -0.43958  -0.43763  -0.43420  -0.43417  -0.43074
 Alpha  occ. eigenvalues --   -0.43004  -0.42802  -0.42708  -0.42476  -0.42168
 Alpha  occ. eigenvalues --   -0.42074  -0.42018  -0.41097  -0.40840  -0.40791
 Alpha  occ. eigenvalues --   -0.40594  -0.40142  -0.40039  -0.39843  -0.39712
 Alpha  occ. eigenvalues --   -0.39519  -0.39331  -0.38993  -0.38479  -0.37900
 Alpha  occ. eigenvalues --   -0.37683  -0.37662  -0.37090  -0.36583  -0.36031
 Alpha  occ. eigenvalues --   -0.35556  -0.35366  -0.35222  -0.33750  -0.33485
 Alpha  occ. eigenvalues --   -0.33085  -0.33026  -0.32622  -0.32254  -0.32161
 Alpha  occ. eigenvalues --   -0.32010  -0.31501  -0.31478  -0.26015  -0.25732
 Alpha  occ. eigenvalues --   -0.23044  -0.22846
 Alpha virt. eigenvalues --   -0.07222  -0.06995   0.00248   0.00298   0.02456
 Alpha virt. eigenvalues --    0.02474   0.04249   0.04571   0.04642   0.05538
 Alpha virt. eigenvalues --    0.06460   0.07007   0.07657   0.07810   0.08503

 Mulliken charges:
               1
     1  Mg   0.948407
     2  C   -0.025454
     3  C   -0.065410
     4  C   -0.063962
     5  C   -0.102283
     6  N   -0.370826
     7  C   -0.015917
     8  C   -0.028406
     9  C   -0.134648
    10  C    0.098598
    11  C    0.020670
    12  C   -0.029942
    13  C   -0.123548
    14  H    0.053356
    15  N   -0.508319
    16  C    0.144459
    17  C   -0.142087
    18  C   -0.082420
    19  C    0.113007
    20  C    0.033016
    21  C    0.056478
    22  O   -0.199138
    23  C   -0.017948
    24  N   -0.306796
    25  C    0.065732
    26  C   -0.068762
    27  C   -0.048043
    28  C    0.007284
    29  C    0.036408
    30  C   -0.047586
    31  C   -0.031047
    32  N   -0.393492
    33  C    0.166330
    34  C   -0.184906
    35  C   -0.031385
    36  C    0.105781
    37  C    0.061887
    38  C    0.130840
    39  O   -0.210150
    40  C   -0.060645
    41  C    0.252775
    42  O   -0.228522
    43  O   -0.379546
    44  C    0.117938
    45  H   -0.017357
    46  H    0.026216
    47  H   -0.005169
    48  H    0.048969
    49  H    0.042160
    50  H    0.042772
    51  H    0.050155
    52  H    0.032082
    53  H    0.030079
    54  H    0.046348
    55  H    0.034931
    56  H    0.055732
    57  H    0.037190
    58  H    0.055328
    59  H    0.058318
    60  H    0.064565
    61  H    0.073646
    62  H    0.037373
    63  H    0.039902
    64  H    0.035252
    65  H    0.044187
    66  H    0.034884
    67  H    0.041308
    68  H    0.023713
    69  H    0.022429
    70  H    0.035738
    71  H    0.033304
    72  H    0.037174
    73  H    0.045541
    74  H    0.051443
    75  H    0.052566
    76  H    0.070712
    77  H    0.051363
    78  H    0.068822
    79  H    0.086547
    80  Mg   0.980366
    81  C   -0.124069
    82  C   -0.080685
    83  C   -0.101761
    84  C   -0.096528
    85  N   -0.314537
    86  C   -0.024889
    87  C   -0.047697
    88  C   -0.085536
    89  C    0.061034
    90  C    0.030227
    91  C   -0.009649
    92  C   -0.101192
    93  H    0.050714
    94  N   -0.481405
    95  C    0.127729
    96  C   -0.142705
    97  C   -0.097795
    98  C    0.230326
    99  C    0.077116
   100  C    0.025846
   101  O   -0.277444
   102  C    0.020245
   103  N   -0.346971
   104  C    0.019019
   105  C   -0.090627
   106  C   -0.109015
   107  C    0.094314
   108  C    0.033644
   109  C    0.010076
   110  C   -0.047577
   111  N   -0.436710
   112  C    0.106347
   113  C   -0.206322
   114  C   -0.066859
   115  C    0.192963
   116  C    0.118089
   117  C    0.144131
   118  O   -0.188602
   119  C   -0.050550
   120  C    0.292233
   121  O   -0.254576
   122  O   -0.371122
   123  C    0.136720
   124  H    0.000134
   125  H   -0.036447
   126  H    0.002843
   127  H    0.018434
   128  H    0.029965
   129  H    0.037005
   130  H    0.045479
   131  H    0.036838
   132  H    0.031402
   133  H    0.053724
   134  H    0.047971
   135  H    0.042212
   136  H    0.048286
   137  H    0.033065
   138  H    0.069550
   139  H    0.084063
   140  H    0.065081
   141  H    0.043119
   142  H    0.038516
   143  H    0.032568
   144  H    0.040655
   145  H    0.041128
   146  H    0.031716
   147  H    0.033634
   148  H    0.025621
   149  H    0.046617
   150  H    0.035565
   151  H    0.033184
   152  H    0.080847
   153  H    0.046757
   154  H    0.029793
   155  H    0.059571
   156  H    0.065499
   157  H    0.052662
   158  H    0.056629
 Sum of Mulliken charges =  -0.00000

 Dipole moment (field-independent basis, Debye):
    X=              2.2432    Y=              2.4155    Z=             -2.4017  Tot=              4.0785
 Quadrupole moment (field-independent basis, Debye-Ang):
   XX=           -453.8812   YY=           -518.2765   ZZ=           -475.6232
   XY=            104.6097   XZ=            -36.5462   YZ=            -16.2408

 Normal termination of Gaussian 16 at Sun Sep 19 01:16:07 2021.
