 Gaussian 16, Revision A.03,
 Gaussian 16:  ES64L-G16RevA.03 25-Dec-2016

 --------------------------------
 #p wB97XD/Def2SVP td=(nstates=5)
 --------------------------------

 --------------------------------
 TDDFT excited states in gaussian
 --------------------------------
 Symbolic Z-matrix:
 Charge =  0 Multiplicity = 1

                         Standard orientation:
 ---------------------------------------------------------------------
 Center     Atomic      Atomic             Coordinates (Angstroms)
 Number     Number       Type             X           Y           Z
 ---------------------------------------------------------------------
      1         12           0       -5.008801    0.631323   -0.328012
      2          6           0       -2.871721   -1.992960   -1.127662
      3          6           0       -7.511580   -1.640489    0.235758
      4          6           0       -7.133404    3.256236    0.130387
      5          6           0       -2.339011    2.804731   -1.212230
      6          7           0       -5.183412   -1.550123   -0.466419
      7          6           0       -4.131454   -2.397209   -0.695789
      8          6           0       -4.674795   -3.818212   -0.526908
      9          6           0       -6.180633   -3.671699   -0.399402
     10          6           0       -6.296314   -2.171326   -0.155534
     11          6           0       -7.078631   -4.172887   -1.498445
     12          6           0       -3.990650   -4.685468    0.634151
     13          6           0       -4.678696   -6.049584    0.961919
     14          1           0       -4.197378   -7.321381    0.215641
     15          7           0       -6.994441    0.756837    0.262163
     16          6           0       -7.861213   -0.275401    0.412949
     17          6           0       -9.140291    0.303703    0.731802
     18          6           0       -9.021041    1.724072    0.692551
     19          6           0       -7.699762    1.981297    0.331431
     20          6           0      -10.319773   -0.573992    1.016849
     21          6           0      -10.180067    2.751370    0.847396
     22          8           0      -10.072158    3.902953    0.465581
     23          6           0      -11.503787    2.402822    1.337450
     24          7           0       -4.760607    2.603193   -0.505390
     25          6           0       -5.759920    3.534433   -0.224507
     26          6           0       -5.268957    4.985894   -0.363896
     27          6           0       -3.721750    4.783123   -0.502614
     28          6           0       -3.599445    3.282388   -0.709252
     29          6           0       -5.995292    5.840785   -1.318099
     30          6           0       -2.733247    5.366651    0.651718
     31          6           0       -1.648964    6.391311    0.304941
     32          7           0       -2.960402    0.474525   -1.103582
     33          6           0       -2.053107    1.449262   -1.411054
     34          6           0       -0.825612    0.886803   -1.863897
     35          6           0       -1.067568   -0.530558   -1.699557
     36          6           0       -2.425717   -0.711112   -1.314853
     37          6           0        0.362711    1.679748   -2.255293
     38          6           0       -0.429283   -1.825736   -1.751676
     39          8           0        0.707708   -2.200338   -1.961520
     40          6           0       -1.645084   -2.859188   -1.372719
     41          6           0       -1.760690   -3.953219   -2.370482
     42          8           0       -2.103867   -3.782109   -3.519691
     43          8           0       -1.456096   -5.156431   -1.853427
     44          6           0       -1.781616   -6.372920   -2.692681
     45          1           0       -8.297984   -2.361810    0.468719
     46          1           0       -7.836621    4.078631    0.276192
     47          1           0       -1.647378    3.626639   -1.409541
     48          1           0       -4.392808   -4.239754   -1.491633
     49          1           0       -6.524873   -4.237670    0.465846
     50          1           0       -7.377206   -3.216068   -1.925654
     51          1           0       -7.893838   -4.792981   -1.125312
     52          1           0       -6.524682   -4.675604   -2.291527
     53          1           0       -4.071981   -4.009513    1.485631
     54          1           0       -2.947094   -4.876149    0.386475
     55          1           0       -5.746339   -6.023471    0.747479
     56          1           0       -4.577678   -6.223952    2.033121
     57          1           0      -10.163201   -1.652277    1.059992
     58          1           0      -10.996197   -0.434706    0.174202
     59          1           0      -10.882711   -0.261537    1.896601
     60          1           0      -12.025303    1.536305    0.932217
     61          1           0      -12.230393    3.215186    1.343748
     62          1           0      -11.315000    2.251325    2.400027
     63          1           0       -5.488475    5.306250    0.654942
     64          1           0       -3.582886    5.228348   -1.487670
     65          1           0       -6.533088    6.695520   -0.906964
     66          1           0       -6.716320    5.209393   -1.837954
     67          1           0       -5.359090    6.311283   -2.067646
     68          1           0       -2.216091    4.516092    1.095382
     69          1           0       -3.197085    5.840019    1.517928
     70          1           0       -0.636638    5.989530    0.254460
     71          1           0       -1.694065    7.317431    0.877273
     72          1           0       -1.805283    6.687474   -0.732432
     73          1           0        0.035680    2.496183   -2.898743
     74          1           0        1.140591    1.072124   -2.716895
     75          1           0        0.675396    2.246150   -1.377481
     76          1           0       -1.342981   -3.325771   -0.435657
     77          1           0       -1.133867   -7.130067   -2.251387
     78          1           0       -1.535249   -6.155056   -3.731687
     79          1           0       -2.828028   -6.611510   -2.501859
     80         12           0        4.833911    0.600308    0.099148
     81          6           0        3.184614   -2.334679    0.835154
     82          6           0        7.647095   -1.272909   -0.433866
     83          6           0        6.529000    3.488022   -0.339252
     84          6           0        2.097094    2.424699    1.226336
     85          7           0        5.316425   -1.605404    0.350017
     86          6           0        4.494040   -2.577806    0.448092
     87          6           0        5.112213   -4.063331    0.308602
     88          6           0        6.634565   -3.656494    0.196624
     89          6           0        6.585321   -2.057849    0.106195
     90          6           0        7.545786   -4.051009    1.473778
     91          6           0        4.579261   -4.912251   -0.925742
     92          6           0        4.498721   -6.471330   -0.760210
     93          1           0        5.168504   -7.054211    0.447377
     94          7           0        6.737770    1.044673   -0.389273
     95          6           0        7.806067    0.104781   -0.669486
     96          6           0        8.975136    0.880147   -1.071193
     97          6           0        8.701622    2.264532   -0.940344
     98          6           0        7.265618    2.320087   -0.584777
     99          6           0       10.162917    0.117798   -1.537288
    100          6           0        9.579997    3.506958   -1.218012
    101          8           0        9.282582    4.639457   -0.978831
    102          6           0       11.017249    3.195228   -1.681911
    103          7           0        4.467644    2.702257    0.485213
    104          6           0        5.276020    3.684703    0.241080
    105          6           0        4.741330    5.027057    0.815908
    106          6           0        3.280521    4.704165    1.211637
    107          6           0        3.236612    3.179831    0.952337
    108          6           0        5.616325    5.515576    1.989888
    109          6           0        2.243223    5.547481    0.408517
    110          6           0        2.183571    7.036024    0.787805
    111          7           0        2.974950    0.174208    0.886159
    112          6           0        1.937454    1.034411    1.199038
    113          6           0        0.816128    0.208649    1.562589
    114          6           0        1.221129   -1.157844    1.490605
    115          6           0        2.561782   -1.062866    1.027545
    116          6           0       -0.446205    0.692671    1.986485
    117          6           0        0.851665   -2.533793    1.591033
    118          8           0       -0.236640   -3.028452    2.011132
    119          6           0        2.172219   -3.338063    1.276200
    120          6           0        2.487456   -4.125655    2.448850
    121          8           0        3.071126   -3.691883    3.441785
    122          8           0        1.884468   -5.347251    2.288750
    123          6           0        1.900674   -6.167304    3.518534
    124          1           0        8.566571   -1.841331   -0.585514
    125          1           0        7.133549    4.379342   -0.523320
    126          1           0        1.240945    3.044432    1.502594
    127          1           0        4.915156   -4.510687    1.283174
    128          1           0        7.087764   -4.137847   -0.669758
    129          1           0        6.881004   -4.214315    2.322485
    130          1           0        8.236825   -3.238120    1.696348
    131          1           0        8.170953   -4.938051    1.366588
    132          1           0        5.304131   -4.699885   -1.711145
    133          1           0        3.702815   -4.518630   -1.441678
    134          1           0        4.888393   -7.024711   -1.614539
    135          1           0        3.456661   -6.758353   -0.619090
    136          1           0       10.777437   -0.191293   -0.691269
    137          1           0       10.695769    0.613136   -2.349082
    138          1           0        9.786575   -0.784080   -2.019490
    139          1           0       11.097626    2.851409   -2.713610
    140          1           0       11.312834    2.434407   -0.960204
    141          1           0       11.741393    3.999956   -1.558465
    142          1           0        4.776245    5.682688   -0.053839
    143          1           0        3.153341    4.847344    2.284657
    144          1           0        6.176228    4.742639    2.516820
    145          1           0        5.118203    5.979074    2.842090
    146          1           0        6.312010    6.229998    1.549842
    147          1           0        1.246617    5.154257    0.604309
    148          1           0        2.439098    5.451678   -0.659987
    149          1           0        2.981184    7.223956    1.506565
    150          1           0        1.307087    7.203306    1.414000
    151          1           0        2.143959    7.782168   -0.005430
    152          1           0       -0.675561    1.498957    1.289672
    153          1           0       -0.487325    1.125766    2.985771
    154          1           0       -1.143230   -0.145230    2.021715
    155          1           0        1.862123   -4.006060    0.472202
    156          1           0        1.264913   -5.646980    4.235447
    157          1           0        2.915510   -6.392088    3.845006
    158          1           0        1.427930   -7.119366    3.276801
 ---------------------------------------------------------------------

 SCF Done:  E(RwB97XD) =  -4070.65003144     A.U. after   20 cycles

 Excitation energies and oscillator strengths:

 Excited State   1:      Singlet-A      1.6066 eV  771.74 nm  f=0.7854  <S**2>=0.000
     309 -> 315       -0.14911
     311 -> 314       -0.27538
     312 -> 313        0.62340
 This state for optimization and/or second-order correction.
 Total Energy, E(TD-HF/TD-DFT) =  -4070.59099134
 Copying the excited state density for this state as the 1-particle RhoCI density.

 Excited State   2:      Singlet-A      1.7228 eV  719.67 nm  f=0.1371  <S**2>=0.000
     310 -> 316       -0.18022
     311 -> 313        0.16198
     311 -> 314        0.59734
     312 -> 313        0.23990
     312 -> 314       -0.13379
     310 <- 316       -0.10434

 Excited State   3:      Singlet-A      2.1321 eV  581.52 nm  f=0.0020  <S**2>=0.000
     309 -> 313        0.41165
     309 -> 314       -0.12144
     310 -> 313        0.15193
     310 -> 314        0.45515
     311 -> 316        0.19204
     312 -> 315        0.19217

 Excited State   4:      Singlet-A      2.1596 eV  574.11 nm  f=0.1625  <S**2>=0.000
     309 -> 313        0.46187
     310 -> 314       -0.43131
     311 -> 316       -0.16944
     312 -> 315        0.19949

 Excited State   5:      Singlet-A      2.5990 eV  477.04 nm  f=0.0001  <S**2>=0.000
     311 -> 313        0.67162
     311 -> 314       -0.13340
     312 -> 313       -0.10225

 The electronic state is 1-A.
 Alpha  occ. eigenvalues --  -46.94282 -46.93850 -19.29659 -19.29241 -19.24880
 Alpha  occ. eigenvalues --  -19.23847 -19.23846 -19.23688 -19.23135 -19.22809
 Alpha  occ. eigenvalues --  -14.47017 -14.46342 -14.46222 -14.45733 -14.43922
 Alpha  occ. eigenvalues --  -14.43350 -14.43043 -14.42669 -10.41963 -10.41358
 Alpha  occ. eigenvalues --  -10.39949 -10.39292 -10.38559 -10.38473 -10.35578
 Alpha  occ. eigenvalues --  -10.35449 -10.35373 -10.34868 -10.34773 -10.34676
 Alpha  occ. eigenvalues --  -10.34385 -10.34371 -10.34213 -10.34111 -10.34044
 Alpha  occ. eigenvalues --  -10.33758 -10.33547 -10.33397 -10.33252 -10.32881
 Alpha  occ. eigenvalues --  -10.32685 -10.32558 -10.32552 -10.32503 -10.32410
 Alpha  occ. eigenvalues --  -10.32146 -10.32052 -10.31900 -10.31853 -10.31713
 Alpha  occ. eigenvalues --  -10.31614 -10.31509 -10.31475 -10.31453 -10.31180
 Alpha  occ. eigenvalues --  -10.31051 -10.31030 -10.30947 -10.30921 -10.30890
 Alpha  occ. eigenvalues --  -10.30823 -10.30808 -10.30798 -10.30656 -10.30629
 Alpha  occ. eigenvalues --  -10.30616 -10.30571 -10.30564 -10.30542 -10.30496
 Alpha  occ. eigenvalues --  -10.30485 -10.30470 -10.30411 -10.29882 -10.29816
 Alpha  occ. eigenvalues --  -10.29787 -10.29611 -10.29520 -10.29370 -10.29314
 Alpha  occ. eigenvalues --  -10.29197 -10.29171 -10.28968 -10.28965 -10.28147
 Alpha  occ. eigenvalues --  -10.28001  -3.20326  -3.19930  -1.93908  -1.93540
 Alpha  occ. eigenvalues --   -1.93457  -1.93300  -1.93055  -1.92908  -1.17620
 Alpha  occ. eigenvalues --   -1.17309  -1.14446  -1.12942  -1.11629  -1.09053
 Alpha  occ. eigenvalues --   -1.08742  -1.08534  -1.06902  -1.06811  -1.05965
 Alpha  occ. eigenvalues --   -1.05779  -1.05031  -1.05019  -1.04088  -1.02537
 Alpha  occ. eigenvalues --   -0.93964  -0.93922  -0.91029  -0.90537  -0.90414
 Alpha  occ. eigenvalues --   -0.89980  -0.89924  -0.89239  -0.89162  -0.88915
 Alpha  occ. eigenvalues --   -0.88609  -0.88510  -0.88429  -0.88313  -0.86232
 Alpha  occ. eigenvalues --   -0.85407  -0.85346  -0.85181  -0.84310  -0.83945
 Alpha  occ. eigenvalues --   -0.83885  -0.83210  -0.82939  -0.82573  -0.82357
 Alpha  occ. eigenvalues --   -0.81840  -0.80449  -0.80161  -0.79524  -0.79089
 Alpha  occ. eigenvalues --   -0.78703  -0.77821  -0.77438  -0.77279  -0.76768
 Alpha  occ. eigenvalues --   -0.76448  -0.74435  -0.73795  -0.73446  -0.73071
 Alpha  occ. eigenvalues --   -0.71265  -0.71023  -0.70575  -0.70288  -0.69819
 Alpha  occ. eigenvalues --   -0.69660  -0.68604  -0.68586  -0.67231  -0.67226
 Alpha  occ. eigenvalues --   -0.67171  -0.67099  -0.66371  -0.66089  -0.65816
 Alpha  occ. eigenvalues --   -0.65671  -0.63176  -0.63055  -0.62234  -0.61711
 Alpha  occ. eigenvalues --   -0.61294  -0.60967  -0.60683  -0.60624  -0.60440
 Alpha  occ. eigenvalues --   -0.59845  -0.59686  -0.59464  -0.59208  -0.58699
 Alpha  occ. eigenvalues --   -0.57985  -0.57652  -0.57456  -0.57246  -0.56827
 Alpha  occ. eigenvalues --   -0.56760  -0.56508  -0.56230  -0.56084  -0.55793
 Alpha  occ. eigenvalues --   -0.55455  -0.54885  -0.54800  -0.54784  -0.54632
 Alpha  occ. eigenvalues --   -0.54545  -0.54337  -0.54259  -0.54141  -0.53750
 Alpha  occ. eigenvalues --   -0.53665  -0.53610  -0.53225  -0.52779  -0.52697
 Alpha  occ. eigenvalues --   -0.52582  -0.52441  -0.52352  -0.52216  -0.52129
 Alpha  occ. eigenvalues --   -0.52013  -0.51863  -0.51773  -0.51204  -0.51114
 Alpha  occ. eigenvalues --   -0.50817  -0.50724  -0.50593  -0.50527  -0.50425
 Alpha  occ. eigenvalues --   -0.50177  -0.50132  -0.50103  -0.49914  -0.49729
 Alpha  occ. eigenvalues --   -0.49468  -0.49448  -0.49257  -0.49151  -0.48712
 Alpha  occ. eigenvalues --   -0.48661  -0.48485  -0.48238  -0.48142  -0.48109
 Alpha  occ. eigenvalues --   -0.48078  -0.47886  -0.47814  -0.47651  -0.47600
 Alpha  occ. eigenvalues --   -0.47213  -0.46813  -0.46627  -0.46599  -0.46501
 Alpha  occ. eigenvalues --   -0.46268  -0.46121  -0.46046  -0.45850  -0.45822
 Alpha  occ. eigenvalues --   -0.45705  -0.45690  -0.45413  -0.45332  -0.45096
 Alpha  occ. eigenvalues --   -0.44999  -0.44814  -0.44562  -0.44495  -0.44418
 Alpha  occ. eigenvalues --   -0.44227  -0.44185  -0.43748  -0.43661  -0.43563
 Alpha  occ. eigenvalues --   -0.43309  -0.43232  -0.43078  -0.43033  -0.42833
 Alpha  occ. eigenvalues --   -0.42770  -0.42581  -0.42246  -0.42078  -0.41755
 Alpha  occ. eigenvalues --   -0.41681  -0.41245  -0.41092  -0.40933  -0.40809
 Alpha  occ. eigenvalues --   -0.40400  -0.39920  -0.39430  -0.39105  -0.39027
 Alpha  occ. eigenvalues --   -0.38929  -0.38645  -0.38477  -0.38219  -0.37895
 Alpha  occ. eigenvalues --   -0.37832  -0.37651  -0.35886  -0.35872  -0.35670
 Alpha  occ. eigenvalues --   -0.35441  -0.35213  -0.34571  -0.33463  -0.32995
 Alpha  occ. eigenvalues --   -0.32978  -0.32810  -0.32143  -0.32032  -0.31908
 Alpha  occ. eigenvalues --   -0.31595  -0.31098  -0.30606  -0.25762  -0.25119
 Alpha  occ. eigenvalues --   -0.22645  -0.22596
 Alpha virt. eigenvalues --   -0.06860  -0.06358   0.00334   0.00659   0.02300
 Alpha virt. eigenvalues --    0.02998   0.04511   0.05110   0.06409   0.06912
 Alpha virt. eigenvalues --    0.07849   0.08050   0.08361   0.08711   0.08852

 Mulliken charges:
               1
     1  Mg   0.967207
     2  C    0.037846
     3  C   -0.087657
     4  C   -0.073299
     5  C   -0.108987
     6  N   -0.332328
     7  C   -0.001112
     8  C   -0.051326
     9  C   -0.151339
    10  C    0.061185
    11  C    0.051202
    12  C    0.005656
    13  C   -0.114659
    14  H    0.022860
    15  N   -0.488012
    16  C    0.172226
    17  C   -0.166699
    18  C   -0.058002
    19  C    0.126148
    20  C    0.053525
    21  C    0.071277
    22  O   -0.234542
    23  C   -0.004209
    24  N   -0.423113
    25  C    0.061397
    26  C   -0.086708
    27  C   -0.053793
    28  C    0.049308
    29  C    0.043401
    30  C    0.003184
    31  C   -0.058990
    32  N   -0.371236
    33  C    0.153740
    34  C   -0.173225
    35  C   -0.068472
    36  C    0.107741
    37  C    0.118915
    38  C    0.149200
    39  O   -0.204880
    40  C   -0.141166
    41  C    0.234701
    42  O   -0.256375
    43  O   -0.368540
    44  C    0.133866
    45  H   -0.016340
    46  H    0.027639
    47  H   -0.000989
    48  H    0.032686
    49  H    0.022221
    50  H    0.037852
    51  H    0.042682
    52  H    0.037605
    53  H    0.040912
    54  H    0.072407
    55  H    0.039928
    56  H    0.060271
    57  H    0.039761
    58  H    0.049132
    59  H    0.046739
    60  H    0.056274
    61  H    0.049351
    62  H    0.049680
    63  H    0.038012
    64  H    0.031362
    65  H    0.040012
    66  H    0.047023
    67  H    0.026898
    68  H    0.031351
    69  H    0.035262
    70  H    0.019411
    71  H    0.047388
    72  H    0.018333
    73  H    0.030318
    74  H    0.068136
    75  H    0.040394
    76  H    0.082887
    77  H    0.060712
    78  H    0.078995
    79  H    0.060551
    80  Mg   0.971998
    81  C    0.060082
    82  C   -0.074438
    83  C   -0.085983
    84  C   -0.107156
    85  N   -0.274810
    86  C   -0.095966
    87  C   -0.017884
    88  C   -0.136716
    89  C    0.065627
    90  C    0.000742
    91  C    0.020120
    92  C   -0.130738
    93  H    0.029753
    94  N   -0.532232
    95  C    0.160000
    96  C   -0.146477
    97  C   -0.101314
    98  C    0.148602
    99  C    0.050051
   100  C    0.084392
   101  O   -0.193697
   102  C   -0.045011
   103  N   -0.331688
   104  C    0.041663
   105  C   -0.054008
   106  C   -0.062537
   107  C    0.049768
   108  C    0.017327
   109  C   -0.035407
   110  C   -0.035477
   111  N   -0.428455
   112  C    0.160556
   113  C   -0.181327
   114  C    0.023346
   115  C    0.126138
   116  C    0.066164
   117  C    0.089211
   118  O   -0.268078
   119  C   -0.067366
   120  C    0.265659
   121  O   -0.263606
   122  O   -0.365772
   123  C    0.145737
   124  H   -0.003647
   125  H    0.011168
   126  H   -0.007311
   127  H    0.047079
   128  H    0.039987
   129  H    0.047234
   130  H    0.036983
   131  H    0.038737
   132  H    0.015707
   133  H    0.057758
   134  H    0.056063
   135  H    0.063956
   136  H    0.067048
   137  H    0.043247
   138  H    0.043312
   139  H    0.070721
   140  H    0.052994
   141  H    0.048624
   142  H    0.036552
   143  H    0.033791
   144  H    0.044107
   145  H    0.032644
   146  H    0.050325
   147  H    0.030250
   148  H    0.032099
   149  H    0.026594
   150  H    0.022789
   151  H    0.050562
   152  H    0.040100
   153  H    0.045354
   154  H    0.055771
   155  H    0.068853
   156  H    0.065723
   157  H    0.056067
   158  H    0.047196
 Sum of Mulliken charges =  -0.00000

 Dipole moment (field-independent basis, Debye):
    X=             -0.1931    Y=             -1.5676    Z=              0.5766  Tot=              1.6814
 Quadrupole moment (field-independent basis, Debye-Ang):
   XX=           -449.7197   YY=           -466.2615   ZZ=           -522.6833
   XY=              0.7471   XZ=            -28.9316   YZ=              4.3530

 Normal termination of Gaussian 16 at Mon Sep 20 04:25:19 2021.
