 Gaussian 16, Revision A.03,
 Gaussian 16:  ES64L-G16RevA.03 25-Dec-2016

 --------------------------------
 #p wB97XD/Def2SVP td=(nstates=5)
 --------------------------------

 --------------------------------
 TDDFT excited states in gaussian
 --------------------------------
 Symbolic Z-matrix:
 Charge =  0 Multiplicity = 1

                         Standard orientation:
 ---------------------------------------------------------------------
 Center     Atomic      Atomic             Coordinates (Angstroms)
 Number     Number       Type             X           Y           Z
 ---------------------------------------------------------------------
      1         12           0        9.163292   -0.355147    0.073664
      2          6           0        7.231073    2.294749   -1.360489
      3          6           0       11.635389    1.935810    0.605938
      4          6           0       11.054309   -2.754575    0.924203
      5          6           0        7.052684   -2.586674   -1.572934
      6          7           0        9.296852    1.810857   -0.363639
      7          6           0        8.464091    2.719908   -0.860938
      8          6           0        8.994181    4.179308   -0.732374
      9          6           0       10.556264    3.872802   -0.643222
     10          6           0       10.495892    2.469470   -0.066214
     11          6           0       11.244498    3.815508   -2.003205
     12          6           0        8.474670    4.888571    0.563306
     13          6           0        8.674857    6.406384    0.602327
     14          1           0        7.659470    7.230480    1.240452
     15          7           0       10.847305   -0.355086    1.106597
     16          6           0       11.723562    0.671071    1.226848
     17          6           0       12.813286    0.176798    2.095683
     18          6           0       12.594639   -1.279876    2.315662
     19          6           0       11.490488   -1.530143    1.424822
     20          6           0       13.881578    1.062287    2.659962
     21          6           0       13.279882   -2.288739    3.182131
     22          8           0       13.082730   -3.544991    3.049713
     23          6           0       14.267754   -1.766259    4.143467
     24          7           0        9.212022   -2.376928   -0.443698
     25          6           0       10.097667   -3.210488    0.112893
     26          6           0        9.765217   -4.641610   -0.189278
     27          6           0        8.321186   -4.625625   -0.870655
     28          6           0        8.099271   -3.093687   -0.917447
     29          6           0       10.752860   -5.379414   -1.103727
     30          6           0        7.227301   -5.509857   -0.221064
     31          6           0        6.871720   -4.965957    1.144525
     32          7           0        7.338696   -0.214689   -1.093456
     33          6           0        6.643824   -1.269852   -1.702108
     34          6           0        5.535701   -0.671763   -2.469194
     35          6           0        5.673742    0.699857   -2.265605
     36          6           0        6.812446    0.944802   -1.446065
     37          6           0        4.603549   -1.380701   -3.277238
     38          6           0        5.138652    2.017020   -2.569934
     39          8           0        4.129699    2.432171   -3.141910
     40          6           0        6.196378    3.109196   -2.096442
     41          6           0        5.448602    4.160664   -1.322779
     42          8           0        4.921637    3.892587   -0.223775
     43          8           0        5.672014    5.362605   -1.875922
     44          6           0        4.982220    6.454567   -1.138387
     45          1           0       12.563898    2.510098    0.608018
     46          1           0       11.614721   -3.619788    1.284460
     47          1           0        6.303107   -3.226030   -2.042838
     48          1           0        8.788129    4.815217   -1.593528
     49          1           0       11.064109    4.545184    0.047950
     50          1           0       10.522151    3.867005   -2.817750
     51          1           0       11.772448    2.861884   -2.022291
     52          1           0       12.012946    4.585043   -2.081179
     53          1           0        9.099439    4.597268    1.407620
     54          1           0        7.422080    4.659271    0.733013
     55          1           0        8.923200    6.801123   -0.383277
     56          1           0        9.555043    6.619306    1.209070
     57          1           0       13.876757    2.045010    2.190091
     58          1           0       14.839235    0.628574    2.372742
     59          1           0       13.822301    1.135955    3.745960
     60          1           0       15.048804   -1.231850    3.602250
     61          1           0       14.589958   -2.620561    4.737775
     62          1           0       13.781347   -1.030959    4.785097
     63          1           0        9.722922   -5.234390    0.723546
     64          1           0        8.354265   -4.962121   -1.907164
     65          1           0       11.167700   -6.284855   -0.660118
     66          1           0       11.542979   -4.681462   -1.379166
     67          1           0       10.354716   -5.652533   -2.080612
     68          1           0        7.596604   -6.524507   -0.075986
     69          1           0        6.314726   -5.570702   -0.814154
     70          1           0        7.640504   -5.395946    1.785550
     71          1           0        5.879486   -5.306059    1.442875
     72          1           0        6.984011   -3.882261    1.183003
     73          1           0        3.625308   -0.950159   -3.063585
     74          1           0        4.622524   -2.448362   -3.059651
     75          1           0        4.983182   -1.150597   -4.272621
     76          1           0        6.654892    3.513240   -2.998460
     77          1           0        4.356744    6.982770   -1.858120
     78          1           0        5.760014    7.024441   -0.629777
     79          1           0        4.236210    6.144949   -0.405622
     80         12           0       -8.563060   -0.955827    0.245092
     81          6           0      -10.866386    1.514751    0.714754
     82          6           0       -6.014932    1.416111    0.873483
     83          6           0       -6.263540   -3.293093   -0.435076
     84          6           0      -11.123433   -3.184012   -0.282601
     85          7           0       -8.421972    1.255017    0.423531
     86          6           0       -9.546305    2.040030    0.709348
     87          6           0       -9.163265    3.516933    1.009338
     88          6           0       -7.618111    3.379323    0.967398
     89          6           0       -7.301502    1.924662    0.670667
     90          6           0       -6.722543    4.331721    0.065781
     91          6           0       -9.687772    4.128892    2.382271
     92          6           0       -9.211837    5.592425    2.584857
     93          1           0      -10.334383    6.619464    2.430178
     94          7           0       -6.382654   -0.940164    0.272812
     95          6           0       -5.588615    0.064088    0.783408
     96          6           0       -4.214725   -0.394346    0.614100
     97          6           0       -4.302110   -1.769303    0.223458
     98          6           0       -5.681353   -2.082759    0.019262
     99          6           0       -3.072271    0.493176    0.926706
    100          6           0       -3.043197   -2.656117   -0.075346
    101          8           0       -3.101256   -3.779162   -0.616021
    102          6           0       -1.664004   -2.129003    0.223761
    103          7           0       -8.667975   -2.835977   -0.281805
    104          6           0       -7.545495   -3.672295   -0.539474
    105          6           0       -7.972877   -4.962671   -1.201412
    106          6           0       -9.411031   -5.052990   -0.694713
    107          6           0       -9.780358   -3.619766   -0.339490
    108          6           0       -7.878667   -4.909470   -2.763316
    109          6           0       -9.541923   -5.909192    0.584768
    110          6           0       -9.697677   -7.399033    0.437801
    111          7           0      -10.622909   -0.946737    0.158731
    112          6           0      -11.542688   -1.922750    0.091627
    113          6           0      -12.853158   -1.345682    0.150809
    114          6           0      -12.660883   -0.006107    0.414237
    115          6           0      -11.271735    0.190270    0.454862
    116          6           0      -14.093926   -2.162181    0.047078
    117          6           0      -13.341215    1.194501    0.653479
    118          8           0      -14.526901    1.449192    0.741000
    119          6           0      -12.175928    2.270382    0.868253
    120          6           0      -12.374828    3.362503   -0.122171
    121          8           0      -12.257360    3.290265   -1.321239
    122          8           0      -12.569697    4.536812    0.485201
    123          6           0      -12.733092    5.740980   -0.417320
    124          1           0       -5.300031    2.160576    1.229648
    125          1           0       -5.525353   -4.067435   -0.653259
    126          1           0      -11.987054   -3.851152   -0.311380
    127          1           0       -9.503900    4.136395    0.179616
    128          1           0       -7.214615    3.521477    1.970383
    129          1           0       -5.760755    4.629205    0.484440
    130          1           0       -7.331601    5.144389   -0.330496
    131          1           0       -6.429301    3.699806   -0.772440
    132          1           0       -9.331456    3.416959    3.125766
    133          1           0      -10.776947    4.088697    2.378198
    134          1           0       -8.340627    5.789775    1.960236
    135          1           0       -8.888214    5.669623    3.622425
    136          1           0       -2.572795    0.737634   -0.010967
    137          1           0       -2.501978   -0.020388    1.700749
    138          1           0       -3.414428    1.409599    1.407755
    139          1           0       -0.919914   -2.896850    0.011979
    140          1           0       -1.656569   -2.022956    1.309434
    141          1           0       -1.381738   -1.185752   -0.243163
    142          1           0       -7.357697   -5.799056   -0.868420
    143          1           0      -10.111074   -5.425596   -1.442233
    144          1           0       -8.681139   -4.305179   -3.184575
    145          1           0       -7.901341   -5.917524   -3.178189
    146          1           0       -6.905356   -4.469152   -2.977027
    147          1           0      -10.337316   -5.566051    1.245142
    148          1           0       -8.682069   -5.729749    1.230328
    149          1           0       -8.855170   -7.851903    0.959698
    150          1           0       -9.493075   -7.562415   -0.620398
    151          1           0      -10.676395   -7.783648    0.725113
    152          1           0      -14.481429   -2.390029    1.039306
    153          1           0      -14.086407   -3.037580   -0.603050
    154          1           0      -14.830528   -1.497582   -0.404727
    155          1           0      -12.259969    2.666448    1.880527
    156          1           0      -11.895370    5.730490   -1.114956
    157          1           0      -12.679305    6.689654    0.117387
    158          1           0      -13.684210    5.636749   -0.939904
 ---------------------------------------------------------------------

 SCF Done:  E(RwB97XD) =  -4070.63793970     A.U. after   19 cycles

 Excitation energies and oscillator strengths:

 Excited State   1:      Singlet-A      1.5904 eV  779.58 nm  f=0.6633  <S**2>=0.000
     309 -> 316       -0.15212
     311 -> 314        0.26217
     312 -> 313        0.63606
     309 <- 316       -0.10371
 This state for optimization and/or second-order correction.
 Total Energy, E(TD-HF/TD-DFT) =  -4070.57949349
 Copying the excited state density for this state as the 1-particle RhoCI density.

 Excited State   2:      Singlet-A      1.6259 eV  762.58 nm  f=0.1525  <S**2>=0.000
     310 -> 315        0.16899
     311 -> 314        0.63105
     312 -> 313       -0.26291
     310 <- 315        0.10609

 Excited State   3:      Singlet-A      2.1386 eV  579.73 nm  f=0.0872  <S**2>=0.000
     310 -> 314        0.63824
     311 -> 315       -0.28179

 Excited State   4:      Singlet-A      2.1958 eV  564.65 nm  f=0.1057  <S**2>=0.000
     309 -> 313        0.63659
     312 -> 316        0.29013

 Excited State   5:      Singlet-A      3.3910 eV  365.62 nm  f=0.0000  <S**2>=0.000
     312 -> 314        0.70646

 The electronic state is 1-A.
 Alpha  occ. eigenvalues --  -46.94196 -46.93636 -19.31651 -19.29983 -19.24290
 Alpha  occ. eigenvalues --  -19.24149 -19.23946 -19.23522 -19.23326 -19.23291
 Alpha  occ. eigenvalues --  -14.47129 -14.47114 -14.46147 -14.46114 -14.44088
 Alpha  occ. eigenvalues --  -14.43265 -14.43230 -14.43214 -10.43086 -10.42201
 Alpha  occ. eigenvalues --  -10.39490 -10.38899 -10.38803 -10.38515 -10.35913
 Alpha  occ. eigenvalues --  -10.35905 -10.35602 -10.35529 -10.35178 -10.34983
 Alpha  occ. eigenvalues --  -10.34684 -10.34612 -10.34320 -10.34245 -10.33955
 Alpha  occ. eigenvalues --  -10.33898 -10.33837 -10.33340 -10.33304 -10.33287
 Alpha  occ. eigenvalues --  -10.33043 -10.32902 -10.32799 -10.32790 -10.32576
 Alpha  occ. eigenvalues --  -10.32464 -10.32445 -10.32407 -10.32224 -10.32034
 Alpha  occ. eigenvalues --  -10.31956 -10.31936 -10.31857 -10.31779 -10.31638
 Alpha  occ. eigenvalues --  -10.31586 -10.31576 -10.31573 -10.31507 -10.31490
 Alpha  occ. eigenvalues --  -10.31304 -10.31294 -10.31217 -10.31161 -10.30976
 Alpha  occ. eigenvalues --  -10.30739 -10.30483 -10.30331 -10.30286 -10.30165
 Alpha  occ. eigenvalues --  -10.30154 -10.30139 -10.30088 -10.30046 -10.29902
 Alpha  occ. eigenvalues --  -10.29718 -10.29419 -10.29333 -10.29330 -10.29303
 Alpha  occ. eigenvalues --  -10.29298 -10.28941 -10.28879 -10.28869 -10.28757
 Alpha  occ. eigenvalues --  -10.28496  -3.20355  -3.19823  -1.93932  -1.93498
 Alpha  occ. eigenvalues --   -1.93422  -1.93336  -1.92967  -1.92797  -1.18975
 Alpha  occ. eigenvalues --   -1.18929  -1.12536  -1.10960  -1.10197  -1.09491
 Alpha  occ. eigenvalues --   -1.09181  -1.08990  -1.07294  -1.06640  -1.05834
 Alpha  occ. eigenvalues --   -1.05718  -1.05324  -1.04885  -1.04503  -1.03760
 Alpha  occ. eigenvalues --   -0.95148  -0.94008  -0.91461  -0.91128  -0.90755
 Alpha  occ. eigenvalues --   -0.90461  -0.90342  -0.90213  -0.89850  -0.89659
 Alpha  occ. eigenvalues --   -0.89658  -0.89293  -0.88889  -0.88218  -0.86955
 Alpha  occ. eigenvalues --   -0.86083  -0.85861  -0.85648  -0.84949  -0.84639
 Alpha  occ. eigenvalues --   -0.84227  -0.83622  -0.83250  -0.82967  -0.82635
 Alpha  occ. eigenvalues --   -0.82319  -0.80834  -0.80110  -0.79289  -0.79202
 Alpha  occ. eigenvalues --   -0.78932  -0.78904  -0.77956  -0.77939  -0.76913
 Alpha  occ. eigenvalues --   -0.76864  -0.75012  -0.74812  -0.73695  -0.73572
 Alpha  occ. eigenvalues --   -0.71829  -0.71218  -0.70905  -0.70728  -0.70050
 Alpha  occ. eigenvalues --   -0.69716  -0.69255  -0.67814  -0.67562  -0.67303
 Alpha  occ. eigenvalues --   -0.66919  -0.66681  -0.66666  -0.66436  -0.66273
 Alpha  occ. eigenvalues --   -0.65931  -0.64385  -0.63921  -0.62495  -0.61999
 Alpha  occ. eigenvalues --   -0.61833  -0.61801  -0.61038  -0.60912  -0.60660
 Alpha  occ. eigenvalues --   -0.60564  -0.60109  -0.59785  -0.59644  -0.59338
 Alpha  occ. eigenvalues --   -0.58358  -0.58300  -0.57972  -0.57809  -0.57565
 Alpha  occ. eigenvalues --   -0.57332  -0.56766  -0.56548  -0.56494  -0.56003
 Alpha  occ. eigenvalues --   -0.55894  -0.55306  -0.55242  -0.55207  -0.55130
 Alpha  occ. eigenvalues --   -0.54964  -0.54748  -0.54518  -0.54438  -0.54352
 Alpha  occ. eigenvalues --   -0.54031  -0.53892  -0.53611  -0.53522  -0.53361
 Alpha  occ. eigenvalues --   -0.53203  -0.53077  -0.52592  -0.52078  -0.51993
 Alpha  occ. eigenvalues --   -0.51967  -0.51928  -0.51653  -0.51620  -0.51524
 Alpha  occ. eigenvalues --   -0.51443  -0.51246  -0.51096  -0.50972  -0.50637
 Alpha  occ. eigenvalues --   -0.50601  -0.50488  -0.50464  -0.50441  -0.49932
 Alpha  occ. eigenvalues --   -0.49776  -0.49689  -0.49492  -0.49307  -0.49157
 Alpha  occ. eigenvalues --   -0.48854  -0.48756  -0.48646  -0.48558  -0.48378
 Alpha  occ. eigenvalues --   -0.48234  -0.48187  -0.48168  -0.47818  -0.47727
 Alpha  occ. eigenvalues --   -0.47646  -0.47230  -0.47151  -0.47022  -0.46587
 Alpha  occ. eigenvalues --   -0.46476  -0.46454  -0.46119  -0.46063  -0.46015
 Alpha  occ. eigenvalues --   -0.45977  -0.45496  -0.45475  -0.45452  -0.45392
 Alpha  occ. eigenvalues --   -0.45271  -0.45077  -0.45033  -0.44785  -0.44607
 Alpha  occ. eigenvalues --   -0.44594  -0.43977  -0.43782  -0.43656  -0.43512
 Alpha  occ. eigenvalues --   -0.43506  -0.43349  -0.43320  -0.43095  -0.42923
 Alpha  occ. eigenvalues --   -0.42839  -0.42805  -0.42603  -0.42499  -0.42349
 Alpha  occ. eigenvalues --   -0.42213  -0.42094  -0.41778  -0.41534  -0.41415
 Alpha  occ. eigenvalues --   -0.40408  -0.40131  -0.39850  -0.39775  -0.39409
 Alpha  occ. eigenvalues --   -0.39273  -0.39184  -0.38834  -0.38832  -0.38481
 Alpha  occ. eigenvalues --   -0.38357  -0.38264  -0.36352  -0.36041  -0.35908
 Alpha  occ. eigenvalues --   -0.35797  -0.35431  -0.35258  -0.33467  -0.33421
 Alpha  occ. eigenvalues --   -0.33250  -0.33092  -0.32589  -0.32171  -0.32106
 Alpha  occ. eigenvalues --   -0.31686  -0.31554  -0.31002  -0.26326  -0.26074
 Alpha  occ. eigenvalues --   -0.22989  -0.22701
 Alpha virt. eigenvalues --   -0.07202  -0.07175   0.00116   0.00585   0.01914
 Alpha virt. eigenvalues --    0.02669   0.04230   0.04712   0.06178   0.06579
 Alpha virt. eigenvalues --    0.07028   0.07115   0.07491   0.08192   0.08577

 Mulliken charges:
               1
     1  Mg   0.978428
     2  C   -0.020405
     3  C   -0.101377
     4  C   -0.061208
     5  C   -0.070898
     6  N   -0.323360
     7  C   -0.008589
     8  C   -0.058138
     9  C   -0.138191
    10  C    0.061881
    11  C    0.058248
    12  C    0.014021
    13  C   -0.126809
    14  H    0.051770
    15  N   -0.518380
    16  C    0.183458
    17  C   -0.196011
    18  C   -0.036895
    19  C    0.166697
    20  C    0.060826
    21  C    0.056755
    22  O   -0.279791
    23  C    0.001638
    24  N   -0.410166
    25  C    0.066230
    26  C   -0.084956
    27  C   -0.063969
    28  C    0.089584
    29  C    0.031798
    30  C   -0.016863
    31  C   -0.058255
    32  N   -0.398649
    33  C    0.097028
    34  C   -0.188251
    35  C   -0.040542
    36  C    0.126081
    37  C    0.081706
    38  C    0.128295
    39  O   -0.225596
    40  C   -0.076592
    41  C    0.275593
    42  O   -0.285553
    43  O   -0.335245
    44  C    0.120955
    45  H    0.007995
    46  H    0.010929
    47  H   -0.016595
    48  H    0.025976
    49  H    0.022600
    50  H    0.047184
    51  H    0.037991
    52  H    0.040203
    53  H    0.035416
    54  H    0.067187
    55  H    0.039138
    56  H    0.040811
    57  H    0.029661
    58  H    0.049136
    59  H    0.062124
    60  H    0.057915
    61  H    0.062005
    62  H    0.052967
    63  H    0.043055
    64  H    0.036108
    65  H    0.045507
    66  H    0.034275
    67  H    0.026052
    68  H    0.032990
    69  H    0.030273
    70  H    0.029167
    71  H    0.042632
    72  H    0.048974
    73  H    0.070004
    74  H    0.032545
    75  H    0.069874
    76  H    0.066132
    77  H    0.061153
    78  H    0.063147
    79  H    0.069163
    80  Mg   0.970789
    81  C   -0.005819
    82  C   -0.071347
    83  C   -0.076546
    84  C   -0.100215
    85  N   -0.340677
    86  C   -0.009881
    87  C   -0.022102
    88  C   -0.154077
    89  C    0.065358
    90  C    0.013086
    91  C   -0.006078
    92  C   -0.111271
    93  H    0.047245
    94  N   -0.435500
    95  C    0.162238
    96  C   -0.217233
    97  C   -0.078354
    98  C    0.134856
    99  C    0.083428
   100  C    0.066528
   101  O   -0.257729
   102  C   -0.006577
   103  N   -0.468619
   104  C    0.098881
   105  C   -0.069359
   106  C   -0.080524
   107  C    0.140141
   108  C    0.040723
   109  C   -0.043452
   110  C   -0.003927
   111  N   -0.427627
   112  C    0.106567
   113  C   -0.179459
   114  C    0.017563
   115  C    0.136460
   116  C    0.064839
   117  C    0.098472
   118  O   -0.192419
   119  C   -0.123784
   120  C    0.249363
   121  O   -0.247140
   122  O   -0.362920
   123  C    0.139213
   124  H   -0.003129
   125  H    0.019546
   126  H   -0.002420
   127  H    0.044284
   128  H    0.034713
   129  H    0.043114
   130  H    0.043048
   131  H    0.038375
   132  H    0.035344
   133  H    0.054369
   134  H    0.051235
   135  H    0.052783
   136  H    0.069287
   137  H    0.050033
   138  H    0.025996
   139  H    0.049779
   140  H    0.045691
   141  H    0.064665
   142  H    0.027634
   143  H    0.022690
   144  H    0.041885
   145  H    0.041603
   146  H    0.041817
   147  H    0.022208
   148  H    0.020499
   149  H    0.035009
   150  H    0.017735
   151  H    0.050942
   152  H    0.061801
   153  H    0.044577
   154  H    0.051055
   155  H    0.073541
   156  H    0.058131
   157  H    0.059703
   158  H    0.069344
 Sum of Mulliken charges =  -0.00000

 Dipole moment (field-independent basis, Debye):
    X=              7.2957    Y=              3.1673    Z=              2.8923  Tot=              8.4631
 Quadrupole moment (field-independent basis, Debye-Ang):
   XX=           -502.8358   YY=           -456.4639   ZZ=           -513.5979
   XY=             52.5336   XZ=            -13.0614   YZ=             16.8971

 Normal termination of Gaussian 16 at Sun Sep 19 10:30:58 2021.
