 Gaussian 16, Revision A.03,
 Gaussian 16:  ES64L-G16RevA.03 25-Dec-2016

 --------------------------------
 #p wB97XD/Def2SVP td=(nstates=5)
 --------------------------------

 --------------------------------
 TDDFT excited states in gaussian
 --------------------------------
 Symbolic Z-matrix:
 Charge =  0 Multiplicity = 1

                         Standard orientation:
 ---------------------------------------------------------------------
 Center     Atomic      Atomic             Coordinates (Angstroms)
 Number     Number       Type             X           Y           Z
 ---------------------------------------------------------------------
      1         12           0      -13.504492   -0.531706    0.184101
      2          6           0      -12.930052    2.911558   -0.632548
      3          6           0      -12.600193    0.211989    3.427663
      4          6           0      -13.428975   -3.750362    0.740664
      5          6           0      -14.160217   -1.049951   -3.179212
      6          7           0      -12.549412    1.354971    1.239354
      7          6           0      -12.559609    2.605474    0.683247
      8          6           0      -12.327459    3.666811    1.791882
      9          6           0      -12.157361    2.798237    3.107920
     10          6           0      -12.424488    1.331355    2.609052
     11          6           0      -10.768517    2.872470    3.871331
     12          6           0      -13.458107    4.718761    1.946301
     13          6           0      -13.063070    6.144319    2.100522
     14          1           0      -11.622013    6.605107    2.543490
     15          7           0      -13.057275   -1.682739    1.884284
     16          6           0      -12.835294   -1.214520    3.179079
     17          6           0      -12.591302   -2.367733    4.066582
     18          6           0      -12.951947   -3.535268    3.290170
     19          6           0      -13.155744   -3.026863    1.913774
     20          6           0      -12.148140   -2.302181    5.496801
     21          6           0      -13.079756   -5.023220    3.693286
     22          8           0      -13.684738   -5.894388    3.033470
     23          6           0      -12.598321   -5.408049    5.034256
     24          7           0      -13.695300   -2.098668   -1.038758
     25          6           0      -13.551173   -3.374015   -0.538289
     26          6           0      -13.981512   -4.439227   -1.584504
     27          6           0      -14.572851   -3.506601   -2.732294
     28          6           0      -14.136353   -2.118331   -2.297432
     29          6           0      -12.891093   -5.464312   -2.100699
     30          6           0      -16.075072   -3.559564   -2.961141
     31          6           0      -16.523014   -4.125568   -4.324980
     32          7           0      -13.735580    0.676115   -1.535381
     33          6           0      -13.974485    0.311514   -2.839270
     34          6           0      -13.917769    1.493444   -3.709384
     35          6           0      -13.568949    2.522788   -2.853143
     36          6           0      -13.466349    1.987880   -1.549593
     37          6           0      -14.103244    1.585020   -5.188073
     38          6           0      -13.332433    3.921612   -2.845524
     39          8           0      -13.454374    4.807305   -3.738945
     40          6           0      -12.918603    4.229853   -1.469115
     41          6           0      -11.609539    4.971960   -1.474746
     42          8           0      -10.557844    4.504853   -1.751116
     43          8           0      -11.795076    6.222714   -1.053249
     44          6           0      -10.773412    7.191138   -1.265055
     45          1           0      -12.316159    0.356586    4.472266
     46          1           0      -13.483333   -4.840863    0.786147
     47          1           0      -14.290947   -1.236824   -4.246365
     48          1           0      -11.401646    4.177353    1.524130
     49          1           0      -12.936432    3.055381    3.824943
     50          1           0      -10.080568    3.638785    3.515233
     51          1           0      -10.256203    1.928512    3.679753
     52          1           0      -10.929047    2.966903    4.945731
     53          1           0      -14.086686    4.539902    2.819436
     54          1           0      -14.130386    4.743718    1.089160
     55          1           0      -13.664223    6.609253    2.882488
     56          1           0      -13.279148    6.642124    1.155623
     57          1           0      -11.252093   -2.908913    5.625656
     58          1           0      -12.954771   -2.738519    6.085923
     59          1           0      -12.105068   -1.273787    5.856971
     60          1           0      -11.524177   -5.224531    5.061353
     61          1           0      -12.738737   -6.487212    5.090891
     62          1           0      -13.203040   -4.970919    5.828355
     63          1           0      -14.808103   -4.979534   -1.121972
     64          1           0      -14.084899   -3.805579   -3.659935
     65          1           0      -11.936337   -5.273404   -1.612011
     66          1           0      -12.822524   -5.505508   -3.188436
     67          1           0      -13.244236   -6.462922   -1.842973
     68          1           0      -16.635533   -2.651041   -2.740301
     69          1           0      -16.475591   -4.262337   -2.231287
     70          1           0      -17.320081   -3.593108   -4.843508
     71          1           0      -17.048143   -5.057879   -4.115554
     72          1           0      -15.732141   -4.251509   -5.063179
     73          1           0      -14.608707    0.712150   -5.602233
     74          1           0      -13.136648    1.533841   -5.689037
     75          1           0      -14.536164    2.565989   -5.383593
     76          1           0      -13.702468    4.866576   -1.059784
     77          1           0      -10.800686    7.432794   -2.328516
     78          1           0       -9.785850    6.757159   -1.107878
     79          1           0      -10.980008    8.109056   -0.714101
     80         12           0       12.553470   -0.747677   -0.141509
     81          6           0       15.155889    1.466858   -0.069466
     82          6           0       10.451376    1.561815    1.020281
     83          6           0       10.263186   -3.065444   -0.070144
     84          6           0       14.997324   -3.258421   -0.794421
     85          7           0       12.810649    1.279559    0.589414
     86          6           0       13.894537    2.026311    0.261447
     87          6           0       13.603991    3.500276    0.336840
     88          6           0       12.155666    3.485046    0.971595
     89          6           0       11.788846    2.017060    0.946358
     90          6           0       12.052453    4.156775    2.361951
     91          6           0       13.786039    4.303068   -1.091366
     92          6           0       14.571573    5.623355   -1.096472
     93          1           0       14.644951    6.407055    0.251611
     94          7           0       10.666065   -0.713357    0.215793
     95          6           0        9.912677    0.309074    0.698224
     96          6           0        8.554017   -0.075230    0.994167
     97          6           0        8.434584   -1.337734    0.496808
     98          6           0        9.847264   -1.790312    0.303559
     99          6           0        7.696572    0.929056    1.742341
    100          6           0        7.172066   -2.214409    0.378029
    101          8           0        7.174332   -3.354744   -0.023656
    102          6           0        5.916934   -1.538219    0.844923
    103          7           0       12.692433   -2.898841   -0.234498
    104          6           0       11.533043   -3.577892   -0.299823
    105          6           0       11.781930   -5.055625   -0.617801
    106          6           0       13.251258   -5.053181   -1.160794
    107          6           0       13.707078   -3.658879   -0.683928
    108          6           0       11.541888   -6.126331    0.530109
    109          6           0       13.419987   -5.153866   -2.723650
    110          6           0       12.820173   -4.152487   -3.675335
    111          7           0       14.644534   -0.952639   -0.483164
    112          6           0       15.529273   -2.023564   -0.645963
    113          6           0       16.918904   -1.563948   -0.764508
    114          6           0       16.819501   -0.180840   -0.551511
    115          6           0       15.425057    0.097691   -0.396105
    116          6           0       18.146453   -2.372237   -1.098154
    117          6           0       17.525586    1.012770   -0.442096
    118          8           0       18.715876    1.284021   -0.469101
    119          6           0       16.480873    2.156010   -0.363770
    120          6           0       16.996807    2.984102    0.750308
    121          8           0       16.851382    2.739453    1.950401
    122          8           0       17.765287    4.011915    0.285826
    123          6           0       18.606582    4.763707    1.222384
    124          1           0        9.758657    2.384106    1.212329
    125          1           0        9.542288   -3.883225   -0.120322
    126          1           0       15.625338   -4.119320   -1.036106
    127          1           0       14.231099    3.977346    1.090072
    128          1           0       11.464363    3.966362    0.280174
    129          1           0       11.998024    3.380377    3.124966
    130          1           0       11.129385    4.735390    2.397672
    131          1           0       12.951335    4.761974    2.480226
    132          1           0       12.767741    4.491302   -1.431785
    133          1           0       14.317063    3.682466   -1.812454
    134          1           0       14.087363    6.346463   -1.752254
    135          1           0       15.559291    5.462861   -1.528458
    136          1           0        8.060302    1.202243    2.733006
    137          1           0        6.704483    0.652077    2.098413
    138          1           0        7.639695    1.734356    1.009950
    139          1           0        5.761095   -0.602909    0.307849
    140          1           0        6.084533   -1.478947    1.920130
    141          1           0        4.959527   -2.027006    0.668048
    142          1           0       11.021911   -5.245984   -1.376422
    143          1           0       13.829347   -5.791579   -0.604760
    144          1           0       11.201635   -5.619486    1.432804
    145          1           0       12.484080   -6.575485    0.841922
    146          1           0       10.871225   -6.953293    0.291843
    147          1           0       13.006880   -6.150217   -2.882963
    148          1           0       14.467070   -5.162085   -3.024707
    149          1           0       12.149670   -3.487498   -3.129417
    150          1           0       12.213856   -4.656412   -4.427870
    151          1           0       13.515062   -3.469961   -4.164201
    152          1           0       18.799047   -2.511424   -0.237408
    153          1           0       18.697775   -1.888484   -1.904638
    154          1           0       17.734200   -3.353170   -1.335951
    155          1           0       16.374908    2.676282   -1.315887
    156          1           0       19.467106    5.217831    0.729669
    157          1           0       18.827869    4.191307    2.121913
    158          1           0       18.075417    5.594007    1.687391
 ---------------------------------------------------------------------

 SCF Done:  E(RwB97XD) =  -4070.59826312     A.U. after   19 cycles

 Excitation energies and oscillator strengths:

 Excited State   1:      Singlet-A      1.6707 eV  742.11 nm  f=0.4179  <S**2>=0.000
     309 -> 316        0.18116
     311 -> 313        0.68447
     309 <- 316        0.11411
 This state for optimization and/or second-order correction.
 Total Energy, E(TD-HF/TD-DFT) =  -4070.53686639
 Copying the excited state density for this state as the 1-particle RhoCI density.

 Excited State   2:      Singlet-A      1.7220 eV  719.98 nm  f=0.3769  <S**2>=0.000
     310 -> 315        0.19586
     312 -> 314        0.67971
     310 <- 315        0.11416

 Excited State   3:      Singlet-A      2.1576 eV  574.65 nm  f=0.1236  <S**2>=0.000
     309 -> 313        0.64760
     311 -> 316       -0.26959

 Excited State   4:      Singlet-A      2.2245 eV  557.37 nm  f=0.0567  <S**2>=0.000
     310 -> 314        0.61465
     312 -> 315       -0.33876

 Excited State   5:      Singlet-A      3.5521 eV  349.05 nm  f=0.0000  <S**2>=0.000
     312 -> 313        0.70708

 The electronic state is 1-A.
 Alpha  occ. eigenvalues --  -46.95328 -46.94279 -19.30341 -19.29101 -19.24953
 Alpha  occ. eigenvalues --  -19.24710 -19.24272 -19.23588 -19.23255 -19.22658
 Alpha  occ. eigenvalues --  -14.46736 -14.46302 -14.46255 -14.45606 -14.44621
 Alpha  occ. eigenvalues --  -14.44414 -14.44182 -14.43301 -10.43008 -10.42073
 Alpha  occ. eigenvalues --  -10.39923 -10.38939 -10.38878 -10.37495 -10.35861
 Alpha  occ. eigenvalues --  -10.35356 -10.35155 -10.35020 -10.34914 -10.34756
 Alpha  occ. eigenvalues --  -10.34596 -10.34427 -10.34367 -10.34268 -10.34211
 Alpha  occ. eigenvalues --  -10.34201 -10.33737 -10.33552 -10.33464 -10.33090
 Alpha  occ. eigenvalues --  -10.33074 -10.32970 -10.32885 -10.32877 -10.32640
 Alpha  occ. eigenvalues --  -10.32631 -10.32451 -10.32396 -10.32386 -10.32258
 Alpha  occ. eigenvalues --  -10.31989 -10.31965 -10.31885 -10.31864 -10.31715
 Alpha  occ. eigenvalues --  -10.31697 -10.31689 -10.31635 -10.31620 -10.31577
 Alpha  occ. eigenvalues --  -10.31511 -10.31362 -10.31332 -10.31322 -10.31156
 Alpha  occ. eigenvalues --  -10.30943 -10.30869 -10.30806 -10.30549 -10.30498
 Alpha  occ. eigenvalues --  -10.30374 -10.30217 -10.30160 -10.29883 -10.29882
 Alpha  occ. eigenvalues --  -10.29855 -10.29806 -10.29715 -10.29592 -10.29462
 Alpha  occ. eigenvalues --  -10.29396 -10.29340 -10.29237 -10.28983 -10.28980
 Alpha  occ. eigenvalues --  -10.28029  -3.21349  -3.20538  -1.94921  -1.94484
 Alpha  occ. eigenvalues --   -1.94318  -1.94100  -1.93683  -1.93548  -1.20930
 Alpha  occ. eigenvalues --   -1.16980  -1.13744  -1.12030  -1.11187  -1.10525
 Alpha  occ. eigenvalues --   -1.10464  -1.08074  -1.07617  -1.06994  -1.06729
 Alpha  occ. eigenvalues --   -1.06083  -1.05886  -1.04986  -1.04594  -1.03854
 Alpha  occ. eigenvalues --   -0.95725  -0.94285  -0.91579  -0.91111  -0.90497
 Alpha  occ. eigenvalues --   -0.90325  -0.90319  -0.89867  -0.89826  -0.89822
 Alpha  occ. eigenvalues --   -0.89367  -0.88849  -0.88458  -0.88292  -0.86609
 Alpha  occ. eigenvalues --   -0.86263  -0.85483  -0.85448  -0.84603  -0.84598
 Alpha  occ. eigenvalues --   -0.84472  -0.84043  -0.83737  -0.82966  -0.82558
 Alpha  occ. eigenvalues --   -0.82458  -0.80982  -0.80328  -0.79752  -0.79351
 Alpha  occ. eigenvalues --   -0.79175  -0.78870  -0.78358  -0.77606  -0.77203
 Alpha  occ. eigenvalues --   -0.77113  -0.75275  -0.74590  -0.73641  -0.73556
 Alpha  occ. eigenvalues --   -0.71532  -0.71463  -0.71012  -0.70984  -0.70098
 Alpha  occ. eigenvalues --   -0.69524  -0.69288  -0.68289  -0.67927  -0.67320
 Alpha  occ. eigenvalues --   -0.66956  -0.66911  -0.66879  -0.66723  -0.66553
 Alpha  occ. eigenvalues --   -0.65722  -0.65124  -0.63673  -0.63131  -0.62398
 Alpha  occ. eigenvalues --   -0.61966  -0.61387  -0.61264  -0.61241  -0.61228
 Alpha  occ. eigenvalues --   -0.60274  -0.59853  -0.59820  -0.59767  -0.59502
 Alpha  occ. eigenvalues --   -0.58524  -0.58298  -0.58170  -0.57227  -0.57209
 Alpha  occ. eigenvalues --   -0.57061  -0.56979  -0.56559  -0.56368  -0.55782
 Alpha  occ. eigenvalues --   -0.55570  -0.55422  -0.55314  -0.55095  -0.55002
 Alpha  occ. eigenvalues --   -0.54747  -0.54568  -0.54529  -0.54440  -0.54309
 Alpha  occ. eigenvalues --   -0.54149  -0.53732  -0.53579  -0.53573  -0.53493
 Alpha  occ. eigenvalues --   -0.53167  -0.53117  -0.52510  -0.52389  -0.52114
 Alpha  occ. eigenvalues --   -0.52110  -0.52024  -0.51869  -0.51463  -0.51347
 Alpha  occ. eigenvalues --   -0.51232  -0.51092  -0.50985  -0.50782  -0.50692
 Alpha  occ. eigenvalues --   -0.50620  -0.50458  -0.50291  -0.50229  -0.49989
 Alpha  occ. eigenvalues --   -0.49913  -0.49696  -0.49690  -0.49414  -0.49069
 Alpha  occ. eigenvalues --   -0.48945  -0.48781  -0.48718  -0.48553  -0.48406
 Alpha  occ. eigenvalues --   -0.48250  -0.48159  -0.48066  -0.47841  -0.47593
 Alpha  occ. eigenvalues --   -0.47373  -0.47265  -0.47118  -0.46832  -0.46742
 Alpha  occ. eigenvalues --   -0.46584  -0.46505  -0.46424  -0.46050  -0.45780
 Alpha  occ. eigenvalues --   -0.45738  -0.45709  -0.45473  -0.45433  -0.45043
 Alpha  occ. eigenvalues --   -0.44981  -0.44811  -0.44773  -0.44676  -0.44597
 Alpha  occ. eigenvalues --   -0.44345  -0.44224  -0.44042  -0.43927  -0.43756
 Alpha  occ. eigenvalues --   -0.43620  -0.43489  -0.43484  -0.43211  -0.43129
 Alpha  occ. eigenvalues --   -0.42972  -0.42957  -0.42667  -0.42427  -0.42258
 Alpha  occ. eigenvalues --   -0.42073  -0.41646  -0.41467  -0.41116  -0.41087
 Alpha  occ. eigenvalues --   -0.40353  -0.40156  -0.40070  -0.39924  -0.39179
 Alpha  occ. eigenvalues --   -0.39003  -0.38667  -0.38394  -0.38345  -0.38280
 Alpha  occ. eigenvalues --   -0.37840  -0.37120  -0.36762  -0.36314  -0.36202
 Alpha  occ. eigenvalues --   -0.35412  -0.35241  -0.34926  -0.34608  -0.33801
 Alpha  occ. eigenvalues --   -0.33651  -0.33374  -0.32945  -0.32905  -0.32676
 Alpha  occ. eigenvalues --   -0.32039  -0.31836  -0.31671  -0.26126  -0.25737
 Alpha  occ. eigenvalues --   -0.23193  -0.22404
 Alpha virt. eigenvalues --   -0.07365  -0.06139   0.00181   0.00369   0.01769
 Alpha virt. eigenvalues --    0.02327   0.04044   0.04609   0.05327   0.05902
 Alpha virt. eigenvalues --    0.07593   0.07722   0.08260   0.08397   0.08512

 Mulliken charges:
               1
     1  Mg   0.968482
     2  C   -0.021099
     3  C   -0.037292
     4  C   -0.068904
     5  C   -0.100296
     6  N   -0.318746
     7  C   -0.004922
     8  C   -0.025561
     9  C   -0.108455
    10  C    0.038741
    11  C    0.011120
    12  C    0.007042
    13  C   -0.131825
    14  H    0.014071
    15  N   -0.444981
    16  C    0.109635
    17  C   -0.188427
    18  C   -0.082112
    19  C    0.150559
    20  C    0.090689
    21  C    0.056716
    22  O   -0.259972
    23  C   -0.009940
    24  N   -0.429015
    25  C    0.096346
    26  C   -0.123009
    27  C   -0.081971
    28  C    0.106411
    29  C    0.027966
    30  C    0.012384
    31  C   -0.064960
    32  N   -0.411550
    33  C    0.113861
    34  C   -0.170825
    35  C   -0.051580
    36  C    0.144017
    37  C    0.088558
    38  C    0.114915
    39  O   -0.251353
    40  C   -0.028827
    41  C    0.225679
    42  O   -0.205982
    43  O   -0.332361
    44  C    0.138793
    45  H   -0.013899
    46  H    0.020229
    47  H   -0.001438
    48  H    0.045925
    49  H    0.041998
    50  H    0.040825
    51  H    0.040223
    52  H    0.040013
    53  H    0.033429
    54  H    0.031325
    55  H    0.045862
    56  H    0.057666
    57  H    0.058237
    58  H    0.041529
    59  H    0.035325
    60  H    0.054003
    61  H    0.047029
    62  H    0.066219
    63  H    0.046436
    64  H    0.023320
    65  H    0.051551
    66  H    0.034893
    67  H    0.038379
    68  H    0.040957
    69  H    0.022627
    70  H    0.029707
    71  H    0.032387
    72  H    0.037092
    73  H    0.031043
    74  H    0.058170
    75  H    0.072616
    76  H    0.069327
    77  H    0.047683
    78  H    0.056094
    79  H    0.061194
    80  Mg   0.992961
    81  C    0.010956
    82  C   -0.117762
    83  C   -0.080738
    84  C   -0.116932
    85  N   -0.330482
    86  C   -0.016986
    87  C   -0.037185
    88  C   -0.153995
    89  C    0.076250
    90  C    0.047322
    91  C    0.007339
    92  C   -0.126046
    93  H    0.026345
    94  N   -0.509703
    95  C    0.180053
    96  C   -0.131291
    97  C   -0.119685
    98  C    0.182711
    99  C    0.046340
   100  C    0.071696
   101  O   -0.201822
   102  C   -0.025291
   103  N   -0.321094
   104  C    0.020781
   105  C   -0.086038
   106  C   -0.050126
   107  C   -0.008392
   108  C    0.024221
   109  C   -0.010750
   110  C   -0.046787
   111  N   -0.398837
   112  C    0.159871
   113  C   -0.187025
   114  C    0.034817
   115  C    0.091385
   116  C    0.104736
   117  C    0.050693
   118  O   -0.214335
   119  C   -0.074769
   120  C    0.264560
   121  O   -0.268249
   122  O   -0.355787
   123  C    0.151813
   124  H   -0.008458
   125  H    0.016501
   126  H   -0.010590
   127  H    0.043090
   128  H    0.031938
   129  H    0.045690
   130  H    0.038580
   131  H    0.045897
   132  H    0.033267
   133  H    0.041167
   134  H    0.049131
   135  H    0.062488
   136  H    0.060410
   137  H    0.029764
   138  H    0.066632
   139  H    0.061655
   140  H    0.069289
   141  H    0.048253
   142  H    0.035107
   143  H    0.029160
   144  H    0.038272
   145  H    0.025881
   146  H    0.050257
   147  H    0.032266
   148  H    0.032263
   149  H    0.028572
   150  H    0.041201
   151  H    0.043823
   152  H    0.059401
   153  H    0.063929
   154  H    0.019671
   155  H    0.072663
   156  H    0.061540
   157  H    0.057148
   158  H    0.029399
 Sum of Mulliken charges =  -0.00000

 Dipole moment (field-independent basis, Debye):
    X=             -6.5327    Y=              1.5605    Z=              1.2490  Tot=              6.8316
 Quadrupole moment (field-independent basis, Debye-Ang):
   XX=           -624.9224   YY=           -490.9873   ZZ=           -488.2447
   XY=             -5.1284   XZ=            -49.2922   YZ=             29.6115

 Normal termination of Gaussian 16 at Mon Sep 20 08:07:55 2021.
