 Gaussian 16, Revision A.03,
 Gaussian 16:  ES64L-G16RevA.03 25-Dec-2016

 --------------------------------
 #p wB97XD/Def2SVP td=(nstates=5)
 --------------------------------

 --------------------------------
 TDDFT excited states in gaussian
 --------------------------------
 Symbolic Z-matrix:
 Charge =  0 Multiplicity = 1

                         Standard orientation:
 ---------------------------------------------------------------------
 Center     Atomic      Atomic             Coordinates (Angstroms)
 Number     Number       Type             X           Y           Z
 ---------------------------------------------------------------------
      1         12           0       21.937602   -0.889141    0.007041
      2          6           0       22.711067    2.540438   -0.768807
      3          6           0       18.703805    0.112591    0.446282
      4          6           0       21.286982   -4.019203    1.022361
      5          6           0       25.272572   -1.543919   -0.013039
      6          7           0       20.804667    1.191066   -0.209410
      7          6           0       21.375807    2.375184   -0.575600
      8          6           0       20.275293    3.345332   -0.783016
      9          6           0       18.995891    2.630989   -0.266088
     10          6           0       19.471494    1.194264    0.083338
     11          6           0       18.402144    3.339177    0.993036
     12          6           0       20.126949    3.883615   -2.184087
     13          6           0       19.185783    5.050832   -2.434593
     14          1           0       19.721819    6.182190   -3.207007
     15          7           0       20.234805   -1.834468    0.529697
     16          6           0       18.974938   -1.214258    0.755219
     17          6           0       18.018959   -2.300575    1.040938
     18          6           0       18.790721   -3.433624    1.284832
     19          6           0       20.199079   -3.102736    1.001643
     20          6           0       16.539254   -2.021739    1.202867
     21          6           0       18.349752   -4.857972    1.685708
     22          8           0       19.127008   -5.739422    2.097582
     23          6           0       16.918788   -5.178970    1.535220
     24          7           0       23.116851   -2.573382    0.518918
     25          6           0       22.676580   -3.756989    0.893544
     26          6           0       23.812812   -4.778844    1.172567
     27          6           0       25.015159   -4.029259    0.594479
     28          6           0       24.437033   -2.661948    0.309959
     29          6           0       23.957486   -5.075517    2.703392
     30          6           0       25.678873   -4.635592   -0.621344
     31          6           0       27.217801   -4.636735   -0.639074
     32          7           0       23.614219    0.229237   -0.409922
     33          6           0       24.921886   -0.203821   -0.382884
     34          6           0       25.861951    0.879562   -0.800998
     35          6           0       24.968339    1.925099   -0.917569
     36          6           0       23.655634    1.530492   -0.632289
     37          6           0       27.313911    0.775754   -1.141635
     38          6           0       24.916232    3.343168   -1.241356
     39          8           0       25.843330    4.065013   -1.590834
     40          6           0       23.448003    3.821012   -1.165083
     41          6           0       23.443752    4.999729   -0.336751
     42          8           0       23.538609    5.043432    0.913535
     43          8           0       23.147602    6.099394   -1.083408
     44          6           0       22.825942    7.334839   -0.403031
     45          1           0       17.652120    0.399360    0.506812
     46          1           0       21.106452   -4.981256    1.506105
     47          1           0       26.306202   -1.793193    0.235042
     48          1           0       20.540253    4.155205   -0.104572
     49          1           0       18.205597    2.598862   -1.016291
     50          1           0       17.355628    3.632763    1.080839
     51          1           0       18.982319    4.258046    1.076257
     52          1           0       18.643522    2.866959    1.945700
     53          1           0       19.715120    3.129250   -2.854696
     54          1           0       21.089169    3.986779   -2.684910
     55          1           0       18.846792    5.480519   -1.493152
     56          1           0       18.450219    4.674926   -3.145275
     57          1           0       16.087096   -2.494510    2.074480
     58          1           0       15.937836   -2.301467    0.338147
     59          1           0       16.286276   -0.976551    1.382565
     60          1           0       16.608712   -4.903192    0.527201
     61          1           0       16.457308   -4.522460    2.272051
     62          1           0       16.840069   -6.263422    1.602403
     63          1           0       23.562568   -5.671720    0.598616
     64          1           0       25.837011   -3.837225    1.283658
     65          1           0       24.893290   -4.684094    3.101241
     66          1           0       23.989071   -6.147629    2.897579
     67          1           0       23.115078   -4.568707    3.174373
     68          1           0       25.332469   -4.172619   -1.544789
     69          1           0       25.167558   -5.589203   -0.748751
     70          1           0       27.521921   -5.486989   -1.248774
     71          1           0       27.657303   -4.585826    0.357570
     72          1           0       27.419683   -3.678732   -1.117750
     73          1           0       27.521845    0.737197   -2.211086
     74          1           0       27.690837   -0.046955   -0.534704
     75          1           0       27.853722    1.587402   -0.652271
     76          1           0       23.238269    4.203399   -2.163989
     77          1           0       22.738996    7.248190    0.680363
     78          1           0       21.948674    7.802210   -0.849483
     79          1           0       23.591590    8.096052   -0.555093
     80         12           0      -22.811080    0.187496   -0.128056
     81          6           0      -19.326998    0.088393   -0.158151
     82          6           0      -22.853032   -1.893407   -2.876267
     83          6           0      -26.077414    0.337353    0.149263
     84          6           0      -22.630857    1.436919    3.290862
     85          7           0      -21.159990   -0.752259   -1.427051
     86          6           0      -19.808055   -0.685075   -1.238947
     87          6           0      -19.084254   -1.410694   -2.317061
     88          6           0      -20.232911   -2.085576   -3.167864
     89          6           0      -21.549134   -1.559865   -2.472880
     90          6           0      -20.108997   -1.884113   -4.699172
     91          6           0      -18.080241   -2.457045   -1.775270
     92          6           0      -16.699983   -2.256619   -2.398627
     93          1           0      -16.027704   -3.492129   -3.069868
     94          7           0      -24.271953   -0.643329   -1.243411
     95          6           0      -24.120707   -1.442992   -2.375307
     96          6           0      -25.472674   -1.686404   -2.861488
     97          6           0      -26.454201   -1.005127   -2.002075
     98          6           0      -25.608862   -0.312156   -0.979105
     99          6           0      -25.763966   -2.620874   -3.926268
    100          6           0      -27.905194   -1.208812   -2.148283
    101          8           0      -28.415617   -1.886433   -3.015594
    102          6           0      -28.917462   -0.687635   -1.188828
    103          7           0      -24.088565    0.741754    1.460903
    104          6           0      -25.413604    0.975519    1.193167
    105          6           0      -26.111744    1.495586    2.432018
    106          6           0      -25.098872    1.356865    3.506293
    107          6           0      -23.881487    1.103431    2.765130
    108          6           0      -26.780940    2.922512    2.277491
    109          6           0      -25.335756    0.106081    4.420531
    110          6           0      -24.883242    0.210393    5.803335
    111          7           0      -21.309535    0.710999    1.316198
    112          6           0      -21.372606    1.255189    2.605686
    113          6           0      -20.069198    1.700305    2.987618
    114          6           0      -19.228277    1.240517    1.981052
    115          6           0      -20.034768    0.593829    0.977796
    116          6           0      -19.778717    2.431019    4.246377
    117          6           0      -17.881356    1.132020    1.582770
    118          8           0      -16.873120    1.521228    2.128669
    119          6           0      -17.886471    0.453132    0.194933
    120          6           0      -17.209626    1.331977   -0.772006
    121          8           0      -17.744935    2.253237   -1.411323
    122          8           0      -15.855820    1.086897   -0.747133
    123          6           0      -14.971538    1.757581   -1.686280
    124          1           0      -22.789232   -2.500625   -3.781015
    125          1           0      -27.139170    0.413561    0.396705
    126          1           0      -22.626208    1.835940    4.307356
    127          1           0      -18.745855   -0.620803   -2.988218
    128          1           0      -20.251547   -3.172180   -3.089749
    129          1           0      -19.060320   -1.606182   -4.811416
    130          1           0      -20.819125   -1.198190   -5.161167
    131          1           0      -20.260505   -2.834411   -5.210528
    132          1           0      -18.316055   -3.484262   -2.052724
    133          1           0      -18.070725   -2.335358   -0.692278
    134          1           0      -16.123901   -2.079824   -1.490467
    135          1           0      -16.754831   -1.367311   -3.024765
    136          1           0      -24.816784   -3.009308   -4.301132
    137          1           0      -26.234587   -2.200833   -4.815696
    138          1           0      -26.335016   -3.458578   -3.524410
    139          1           0      -28.560417    0.338754   -1.104093
    140          1           0      -28.810433   -1.222948   -0.245016
    141          1           0      -29.921985   -0.731508   -1.610228
    142          1           0      -26.940925    0.799624    2.553848
    143          1           0      -24.858548    2.240204    4.098038
    144          1           0      -26.788720    3.229365    1.231437
    145          1           0      -26.404115    3.683913    2.961299
    146          1           0      -27.858076    2.910489    2.441700
    147          1           0      -24.883408   -0.768701    3.953210
    148          1           0      -26.398352   -0.128192    4.482663
    149          1           0      -25.678640    0.663287    6.396218
    150          1           0      -23.946004    0.760764    5.892047
    151          1           0      -24.860304   -0.781069    6.256787
    152          1           0      -20.570176    3.142902    4.480328
    153          1           0      -18.808454    2.927859    4.256191
    154          1           0      -19.865865    1.660972    5.012942
    155          1           0      -17.243696   -0.426166    0.150728
    156          1           0      -14.760475    2.818403   -1.550953
    157          1           0      -15.321577    1.582152   -2.703329
    158          1           0      -14.004067    1.286865   -1.515541
 ---------------------------------------------------------------------

 SCF Done:  E(RwB97XD) =  -4070.58844254     A.U. after   20 cycles

 Excitation energies and oscillator strengths:

 Excited State   1:      Singlet-A      1.6144 eV  767.98 nm  f=0.3705  <S**2>=0.000
     309 -> 315        0.19431
     311 -> 313        0.68133
     309 <- 315        0.12117
 This state for optimization and/or second-order correction.
 Total Energy, E(TD-HF/TD-DFT) =  -4070.52911381
 Copying the excited state density for this state as the 1-particle RhoCI density.

 Excited State   2:      Singlet-A      1.6935 eV  732.13 nm  f=0.3742  <S**2>=0.000
     310 -> 316        0.20454
     312 -> 314        0.67931
     310 <- 316        0.12254

 Excited State   3:      Singlet-A      2.1299 eV  582.11 nm  f=0.0994  <S**2>=0.000
     309 -> 313        0.63359
     311 -> 315       -0.30005

 Excited State   4:      Singlet-A      2.2626 eV  547.96 nm  f=0.0703  <S**2>=0.000
     310 -> 314        0.61593
     312 -> 316       -0.33991

 Excited State   5:      Singlet-A      3.2692 eV  379.25 nm  f=0.0024  <S**2>=0.000
     306 -> 313       -0.24379
     307 -> 313        0.52345
     308 -> 313        0.35449

 The electronic state is 1-A.
 Alpha  occ. eigenvalues --  -46.95316 -46.94842 -19.30407 -19.30137 -19.24355
 Alpha  occ. eigenvalues --  -19.24079 -19.23824 -19.23676 -19.23433 -19.22434
 Alpha  occ. eigenvalues --  -14.46955 -14.46581 -14.46477 -14.45713 -14.44942
 Alpha  occ. eigenvalues --  -14.44393 -14.44191 -14.43798 -10.42998 -10.42980
 Alpha  occ. eigenvalues --  -10.39225 -10.38481 -10.38235 -10.37680 -10.35713
 Alpha  occ. eigenvalues --  -10.35683 -10.35620 -10.35449 -10.35181 -10.35116
 Alpha  occ. eigenvalues --  -10.34956 -10.34793 -10.34607 -10.34587 -10.34561
 Alpha  occ. eigenvalues --  -10.34489 -10.34463 -10.34440 -10.34086 -10.33922
 Alpha  occ. eigenvalues --  -10.33198 -10.33129 -10.33005 -10.32741 -10.32737
 Alpha  occ. eigenvalues --  -10.32537 -10.32463 -10.32411 -10.32378 -10.32300
 Alpha  occ. eigenvalues --  -10.32236 -10.32171 -10.32140 -10.32101 -10.32037
 Alpha  occ. eigenvalues --  -10.32018 -10.31893 -10.31722 -10.31497 -10.31442
 Alpha  occ. eigenvalues --  -10.31433 -10.31374 -10.31352 -10.31257 -10.31236
 Alpha  occ. eigenvalues --  -10.31163 -10.31114 -10.31032 -10.30965 -10.30700
 Alpha  occ. eigenvalues --  -10.30386 -10.30368 -10.30226 -10.30125 -10.30091
 Alpha  occ. eigenvalues --  -10.29962 -10.29846 -10.29841 -10.29840 -10.29771
 Alpha  occ. eigenvalues --  -10.29562 -10.29389 -10.29090 -10.28817 -10.28785
 Alpha  occ. eigenvalues --  -10.28646  -3.21254  -3.20879  -1.94846  -1.94479
 Alpha  occ. eigenvalues --   -1.94386  -1.94210  -1.93996  -1.93861  -1.18311
 Alpha  occ. eigenvalues --   -1.17668  -1.12322  -1.12089  -1.11716  -1.11281
 Alpha  occ. eigenvalues --   -1.08937  -1.08159  -1.07772  -1.07018  -1.06618
 Alpha  occ. eigenvalues --   -1.05849  -1.05090  -1.05040  -1.04236  -1.03661
 Alpha  occ. eigenvalues --   -0.95161  -0.94669  -0.92680  -0.91953  -0.91493
 Alpha  occ. eigenvalues --   -0.91189  -0.91023  -0.90415  -0.89679  -0.89541
 Alpha  occ. eigenvalues --   -0.89221  -0.89010  -0.88579  -0.88304  -0.87198
 Alpha  occ. eigenvalues --   -0.86629  -0.86484  -0.85957  -0.85411  -0.84821
 Alpha  occ. eigenvalues --   -0.84533  -0.84530  -0.83411  -0.83199  -0.82864
 Alpha  occ. eigenvalues --   -0.82822  -0.80634  -0.80621  -0.79948  -0.79648
 Alpha  occ. eigenvalues --   -0.79374  -0.79100  -0.78485  -0.78279  -0.77373
 Alpha  occ. eigenvalues --   -0.77183  -0.75433  -0.74990  -0.74059  -0.73930
 Alpha  occ. eigenvalues --   -0.71459  -0.71351  -0.71227  -0.71059  -0.70042
 Alpha  occ. eigenvalues --   -0.69979  -0.69509  -0.68531  -0.68440  -0.68330
 Alpha  occ. eigenvalues --   -0.67927  -0.67374  -0.67323  -0.67109  -0.66729
 Alpha  occ. eigenvalues --   -0.66568  -0.64537  -0.64056  -0.62750  -0.62393
 Alpha  occ. eigenvalues --   -0.61901  -0.61507  -0.61493  -0.61488  -0.61007
 Alpha  occ. eigenvalues --   -0.60764  -0.60365  -0.59964  -0.59626  -0.59417
 Alpha  occ. eigenvalues --   -0.58474  -0.58432  -0.57857  -0.57699  -0.57523
 Alpha  occ. eigenvalues --   -0.57446  -0.57169  -0.56405  -0.56371  -0.56209
 Alpha  occ. eigenvalues --   -0.55962  -0.55830  -0.55421  -0.55177  -0.55130
 Alpha  occ. eigenvalues --   -0.54883  -0.54777  -0.54528  -0.54265  -0.54064
 Alpha  occ. eigenvalues --   -0.53912  -0.53802  -0.53715  -0.53640  -0.53619
 Alpha  occ. eigenvalues --   -0.53249  -0.53221  -0.53128  -0.52720  -0.52452
 Alpha  occ. eigenvalues --   -0.52393  -0.52222  -0.51998  -0.51864  -0.51650
 Alpha  occ. eigenvalues --   -0.51586  -0.51382  -0.51096  -0.51008  -0.50808
 Alpha  occ. eigenvalues --   -0.50603  -0.50514  -0.50447  -0.50313  -0.50269
 Alpha  occ. eigenvalues --   -0.49882  -0.49760  -0.49544  -0.49297  -0.49162
 Alpha  occ. eigenvalues --   -0.49112  -0.48977  -0.48976  -0.48755  -0.48602
 Alpha  occ. eigenvalues --   -0.48470  -0.48278  -0.48200  -0.48157  -0.47968
 Alpha  occ. eigenvalues --   -0.47706  -0.47514  -0.47274  -0.47091  -0.47014
 Alpha  occ. eigenvalues --   -0.46919  -0.46557  -0.46497  -0.46465  -0.46006
 Alpha  occ. eigenvalues --   -0.45878  -0.45833  -0.45632  -0.45624  -0.45452
 Alpha  occ. eigenvalues --   -0.45339  -0.45199  -0.45067  -0.45016  -0.44892
 Alpha  occ. eigenvalues --   -0.44502  -0.44465  -0.44353  -0.44019  -0.43981
 Alpha  occ. eigenvalues --   -0.43681  -0.43673  -0.43647  -0.43578  -0.43509
 Alpha  occ. eigenvalues --   -0.43399  -0.43214  -0.43119  -0.42979  -0.42768
 Alpha  occ. eigenvalues --   -0.42622  -0.42198  -0.42045  -0.41814  -0.41141
 Alpha  occ. eigenvalues --   -0.40712  -0.40487  -0.39843  -0.39685  -0.39335
 Alpha  occ. eigenvalues --   -0.39224  -0.39104  -0.38409  -0.38337  -0.38018
 Alpha  occ. eigenvalues --   -0.37915  -0.37666  -0.36381  -0.35884  -0.35773
 Alpha  occ. eigenvalues --   -0.35495  -0.35235  -0.35167  -0.33781  -0.33633
 Alpha  occ. eigenvalues --   -0.32991  -0.32758  -0.32698  -0.32533  -0.32439
 Alpha  occ. eigenvalues --   -0.32076  -0.31723  -0.31569  -0.26263  -0.26006
 Alpha  occ. eigenvalues --   -0.23410  -0.22726
 Alpha virt. eigenvalues --   -0.07552  -0.06511  -0.00630   0.00097   0.02280
 Alpha virt. eigenvalues --    0.02786   0.04429   0.04618   0.05802   0.06127
 Alpha virt. eigenvalues --    0.06452   0.06681   0.07417   0.07899   0.08128

 Mulliken charges:
               1
     1  Mg   0.974462
     2  C    0.002952
     3  C   -0.074065
     4  C   -0.058932
     5  C   -0.108682
     6  N   -0.330647
     7  C   -0.063301
     8  C    0.015636
     9  C   -0.121676
    10  C    0.063758
    11  C    0.011209
    12  C    0.011731
    13  C   -0.119995
    14  H    0.035311
    15  N   -0.515829
    16  C    0.190006
    17  C   -0.128800
    18  C   -0.091722
    19  C    0.167234
    20  C    0.036518
    21  C    0.055225
    22  O   -0.254780
    23  C    0.008719
    24  N   -0.326313
    25  C   -0.014144
    26  C   -0.059979
    27  C   -0.104900
    28  C    0.037475
    29  C    0.034235
    30  C    0.005200
    31  C   -0.035304
    32  N   -0.421065
    33  C    0.133258
    34  C   -0.209230
    35  C   -0.008991
    36  C    0.152653
    37  C    0.108934
    38  C    0.073423
    39  O   -0.209194
    40  C   -0.032150
    41  C    0.264715
    42  O   -0.283647
    43  O   -0.351485
    44  C    0.134894
    45  H   -0.012340
    46  H    0.030631
    47  H    0.003566
    48  H    0.033964
    49  H    0.037532
    50  H    0.041050
    51  H    0.017678
    52  H    0.035937
    53  H    0.014272
    54  H    0.025736
    55  H    0.056606
    56  H    0.056711
    57  H    0.040402
    58  H    0.054025
    59  H    0.039003
    60  H    0.053146
    61  H    0.060451
    62  H    0.061912
    63  H    0.043762
    64  H    0.028149
    65  H    0.033569
    66  H    0.048019
    67  H    0.054518
    68  H    0.023075
    69  H    0.008860
    70  H    0.052188
    71  H    0.038558
    72  H    0.041133
    73  H    0.077459
    74  H    0.017124
    75  H    0.049446
    76  H    0.080864
    77  H    0.066841
    78  H    0.047342
    79  H    0.046094
    80  Mg   0.953395
    81  C    0.048378
    82  C   -0.057482
    83  C   -0.121873
    84  C   -0.096250
    85  N   -0.342756
    86  C   -0.024211
    87  C   -0.029548
    88  C   -0.145910
    89  C    0.045788
    90  C    0.012179
    91  C    0.023741
    92  C   -0.137286
    93  H    0.039161
    94  N   -0.537427
    95  C    0.202054
    96  C   -0.171433
    97  C   -0.063916
    98  C    0.269761
    99  C    0.097360
   100  C   -0.011552
   101  O   -0.238970
   102  C    0.006763
   103  N   -0.368784
   104  C    0.069705
   105  C   -0.083398
   106  C   -0.081681
   107  C    0.062986
   108  C    0.032033
   109  C    0.003090
   110  C   -0.018650
   111  N   -0.407097
   112  C    0.111809
   113  C   -0.185433
   114  C   -0.015187
   115  C    0.112721
   116  C    0.089635
   117  C    0.108462
   118  O   -0.187671
   119  C   -0.127581
   120  C    0.253613
   121  O   -0.269038
   122  O   -0.361194
   123  C    0.149028
   124  H    0.001501
   125  H   -0.005742
   126  H   -0.002727
   127  H    0.049511
   128  H    0.042579
   129  H    0.038397
   130  H    0.051718
   131  H    0.032387
   132  H    0.051885
   133  H    0.051979
   134  H    0.064225
   135  H    0.053246
   136  H    0.001040
   137  H    0.057518
   138  H    0.064920
   139  H    0.039560
   140  H    0.062505
   141  H    0.058245
   142  H    0.032817
   143  H    0.027094
   144  H    0.034033
   145  H    0.045474
   146  H    0.027854
   147  H    0.039402
   148  H    0.020015
   149  H    0.027148
   150  H    0.029212
   151  H    0.034573
   152  H    0.036199
   153  H    0.067920
   154  H    0.051130
   155  H    0.050863
   156  H    0.058119
   157  H    0.047289
   158  H    0.050773
 Sum of Mulliken charges =  -0.00000

 Dipole moment (field-independent basis, Debye):
    X=             -5.2282    Y=             -2.3499    Z=              0.0114  Tot=              5.7320
 Quadrupole moment (field-independent basis, Debye-Ang):
   XX=           -622.1377   YY=           -514.2735   ZZ=           -502.5891
   XY=            -81.1145   XZ=           -102.5202   YZ=             10.9538

 Normal termination of Gaussian 16 at Mon Sep 20 03:31:40 2021.
