 Gaussian 16, Revision A.03,
 Gaussian 16:  ES64L-G16RevA.03 25-Dec-2016

 --------------------------------
 #p wB97XD/Def2SVP td=(nstates=5)
 --------------------------------

 --------------------------------
 TDDFT excited states in gaussian
 --------------------------------
 Symbolic Z-matrix:
 Charge =  0 Multiplicity = 1

                         Standard orientation:
 ---------------------------------------------------------------------
 Center     Atomic      Atomic             Coordinates (Angstroms)
 Number     Number       Type             X           Y           Z
 ---------------------------------------------------------------------
      1         12           0       28.695810   -0.021292   -0.150889
      2          6           0       25.376233   -0.775257   -0.194895
      3          6           0       28.064960    2.275436   -2.672061
      4          6           0       31.883470    0.985800    0.160864
      5          6           0       29.091322   -1.862387    2.822276
      6          7           0       26.852295    0.847855   -1.119396
      7          6           0       25.625410    0.308851   -0.972407
      8          6           0       24.583445    1.050502   -1.727152
      9          6           0       25.556520    1.802785   -2.831551
     10          6           0       26.949310    1.647945   -2.185264
     11          6           0       25.422529    1.203738   -4.262698
     12          6           0       23.883272    2.034634   -0.803571
     13          6           0       24.754961    3.103961    0.004164
     14          1           0       24.258776    4.534752    0.171606
     15          7           0       29.820739    1.418029   -1.107123
     16          6           0       29.420711    2.184064   -2.231155
     17          6           0       30.587400    2.831082   -2.731508
     18          6           0       31.688677    2.540574   -1.935807
     19          6           0       31.209380    1.586580   -0.921535
     20          6           0       30.446008    3.698373   -3.965852
     21          6           0       33.074990    3.131631   -2.030757
     22          8           0       33.245137    3.973696   -2.947378
     23          6           0       34.118226    2.982377   -1.072416
     24          7           0       30.192473   -0.232153    1.429868
     25          6           0       31.462119    0.238198    1.265320
     26          6           0       32.363249   -0.148544    2.462440
     27          6           0       31.424301   -1.072702    3.308782
     28          6           0       30.126707   -1.001988    2.521604
     29          6           0       33.667873   -0.797390    2.051942
     30          6           0       31.300199   -0.542242    4.835461
     31          6           0       31.339505   -1.655184    5.888931
     32          7           0       27.503413   -1.159178    1.150232
     33          6           0       27.806937   -1.999215    2.173390
     34          6           0       26.640137   -2.804068    2.413526
     35          6           0       25.610931   -2.422539    1.484727
     36          6           0       26.195551   -1.396043    0.761558
     37          6           0       26.429267   -3.681444    3.599701
     38          6           0       24.259359   -2.559465    1.045926
     39          8           0       23.457380   -3.387540    1.495905
     40          6           0       24.078005   -1.539063   -0.062568
     41          6           0       23.681215   -2.252684   -1.300752
     42          8           0       22.684837   -2.948457   -1.290770
     43          8           0       24.454743   -1.977923   -2.386909
     44          6           0       24.058649   -2.658831   -3.621166
     45          1           0       27.927575    2.781547   -3.629766
     46          1           0       32.962766    1.139677    0.101235
     47          1           0       29.179236   -2.592825    3.629634
     48          1           0       23.785494    0.478679   -2.200960
     49          1           0       25.217418    2.822850   -3.016681
     50          1           0       25.113433    1.978797   -4.963062
     51          1           0       24.626792    0.459631   -4.218951
     52          1           0       26.319396    0.706711   -4.634699
     53          1           0       23.240968    1.449780   -0.144848
     54          1           0       23.129734    2.466452   -1.462106
     55          1           0       25.761758    3.277668   -0.375915
     56          1           0       24.750489    2.675217    1.005868
     57          1           0       30.125420    4.673254   -3.598043
     58          1           0       29.651108    3.294117   -4.591353
     59          1           0       31.335939    3.807415   -4.586444
     60          1           0       34.773534    3.853617   -1.047703
     61          1           0       34.652388    2.034698   -1.152032
     62          1           0       33.615768    3.046090   -0.108187
     63          1           0       32.525594    0.805696    2.964827
     64          1           0       31.763132   -2.105220    3.226138
     65          1           0       33.839288   -0.807168    0.975879
     66          1           0       33.966979   -1.767293    2.448423
     67          1           0       34.403805   -0.050895    2.352117
     68          1           0       30.390045    0.024014    5.033414
     69          1           0       32.066067    0.194869    5.076082
     70          1           0       32.302194   -1.603942    6.396836
     71          1           0       31.331118   -2.614113    5.370339
     72          1           0       30.535718   -1.577150    6.621174
     73          1           0       27.025448   -4.590726    3.666224
     74          1           0       25.366307   -3.925292    3.586443
     75          1           0       26.653475   -3.168081    4.534798
     76          1           0       23.261516   -0.889986    0.255237
     77          1           0       23.024724   -2.385590   -3.833921
     78          1           0       24.208026   -3.738174   -3.588573
     79          1           0       24.742428   -2.410829   -4.432848
     80         12           0      -28.927938    0.215989    0.246395
     81          6           0      -25.815137   -1.462979    0.323447
     82          6           0      -29.711995   -1.650332   -2.337263
     83          6           0      -31.250695    2.485905   -0.373527
     84          6           0      -27.479766    2.487052    2.564464
     85          7           0      -27.848645   -1.520741   -0.728474
     86          6           0      -26.710005   -2.073679   -0.518585
     87          6           0      -26.590443   -3.399813   -1.297407
     88          6           0      -27.636167   -3.202656   -2.509480
     89          6           0      -28.435862   -1.988606   -1.877223
     90          6           0      -27.021670   -2.868637   -3.926170
     91          6           0      -27.057102   -4.647274   -0.380370
     92          6           0      -26.391157   -6.050820   -0.552728
     93          1           0      -25.842833   -6.388089   -1.988152
     94          7           0      -30.430172    0.290440   -1.038394
     95          6           0      -30.609256   -0.661204   -2.031093
     96          6           0      -31.851444   -0.307383   -2.804418
     97          6           0      -32.322502    0.920341   -2.176196
     98          6           0      -31.376722    1.352401   -1.143593
     99          6           0      -32.309192   -1.144579   -3.983820
    100          6           0      -33.589723    1.680101   -2.501256
    101          8           0      -33.928120    2.745803   -1.967808
    102          6           0      -34.520774    1.111873   -3.494102
    103          7           0      -29.383325    2.231967    1.095277
    104          6           0      -30.382387    2.935838    0.594448
    105          6           0      -30.711169    4.170734    1.545967
    106          6           0      -29.400015    4.144736    2.503716
    107          6           0      -28.726082    2.851428    2.053340
    108          6           0      -30.967033    5.510647    0.779967
    109          6           0      -29.620440    4.170758    4.051871
    110          6           0      -29.194601    5.418038    4.782890
    111          7           0      -27.111068    0.397095    1.445446
    112          6           0      -26.718485    1.389088    2.321927
    113          6           0      -25.397481    1.166793    2.739904
    114          6           0      -24.993278    0.077812    1.944586
    115          6           0      -26.021797   -0.358831    1.143587
    116          6           0      -24.615507    1.931175    3.685122
    117          6           0      -23.889160   -0.783077    1.765797
    118          8           0      -22.763281   -0.936361    2.312682
    119          6           0      -24.291003   -1.659269    0.495429
    120          6           0      -23.879555   -3.072087    0.692922
    121          8           0      -24.277512   -3.862316    1.546322
    122          8           0      -22.996387   -3.406312   -0.381737
    123          6           0      -22.443884   -4.766801   -0.395586
    124          1           0      -29.984190   -2.383580   -3.099866
    125          1           0      -32.060676    3.195776   -0.550101
    126          1           0      -27.073444    3.145973    3.335509
    127          1           0      -25.625926   -3.384542   -1.804260
    128          1           0      -28.140042   -4.153261   -2.680897
    129          1           0      -25.969266   -2.593689   -3.859178
    130          1           0      -27.503560   -2.002271   -4.378923
    131          1           0      -27.139421   -3.775230   -4.519635
    132          1           0      -28.137329   -4.784358   -0.431958
    133          1           0      -26.938403   -4.357313    0.663817
    134          1           0      -27.049428   -6.882837   -0.300616
    135          1           0      -25.451794   -6.017707    0.000578
    136          1           0      -33.382797   -1.334935   -3.960768
    137          1           0      -31.793167   -2.101957   -4.056584
    138          1           0      -31.956985   -0.686439   -4.907697
    139          1           0      -34.029699    0.968332   -4.456982
    140          1           0      -35.379243    1.772516   -3.615644
    141          1           0      -34.972109    0.156910   -3.224938
    142          1           0      -31.560930    3.981296    2.201702
    143          1           0      -28.654088    4.880053    2.198468
    144          1           0      -30.773098    5.381920   -0.285041
    145          1           0      -30.330932    6.190358    1.347311
    146          1           0      -31.982847    5.820112    1.022410
    147          1           0      -29.042841    3.347998    4.473811
    148          1           0      -30.668382    3.965862    4.271728
    149          1           0      -28.962090    6.111685    3.975960
    150          1           0      -28.267865    5.191851    5.311516
    151          1           0      -29.984939    5.854926    5.392039
    152          1           0      -25.217353    2.019969    4.589161
    153          1           0      -24.500568    2.992150    3.463072
    154          1           0      -23.690359    1.399956    3.909521
    155          1           0      -23.786634   -1.241364   -0.376401
    156          1           0      -21.719846   -4.881103   -1.202735
    157          1           0      -23.233627   -5.456344   -0.694390
    158          1           0      -21.921983   -4.950231    0.543008
 ---------------------------------------------------------------------

 SCF Done:  E(RwB97XD) =  -4070.57626950     A.U. after   20 cycles

 Excitation energies and oscillator strengths:

 Excited State   1:      Singlet-A      1.6885 eV  734.29 nm  f=0.3925  <S**2>=0.000
     309 -> 316       -0.18195
     312 -> 313        0.68311
     309 <- 316       -0.11275
 This state for optimization and/or second-order correction.
 Total Energy, E(TD-HF/TD-DFT) =  -4070.51421841
 Copying the excited state density for this state as the 1-particle RhoCI density.

 Excited State   2:      Singlet-A      1.7435 eV  711.14 nm  f=0.3630  <S**2>=0.000
     310 -> 315       -0.21770
     311 -> 314        0.67306
     310 <- 315       -0.11923

 Excited State   3:      Singlet-A      2.1633 eV  573.14 nm  f=0.1264  <S**2>=0.000
     309 -> 313        0.64778
     312 -> 316        0.25632

 Excited State   4:      Singlet-A      2.1695 eV  571.50 nm  f=0.0782  <S**2>=0.000
     310 -> 314        0.62758
     311 -> 315        0.30961

 Excited State   5:      Singlet-A      3.2087 eV  386.40 nm  f=0.0008  <S**2>=0.000
     306 -> 313       -0.33655
     308 -> 313        0.59946

 The electronic state is 1-A.
 Alpha  occ. eigenvalues --  -46.95724 -46.95456 -19.31579 -19.29173 -19.25142
 Alpha  occ. eigenvalues --  -19.24405 -19.24025 -19.23525 -19.23298 -19.23227
 Alpha  occ. eigenvalues --  -14.46710 -14.46660 -14.46642 -14.46287 -14.44606
 Alpha  occ. eigenvalues --  -14.44436 -14.43176 -14.43166 -10.43283 -10.43153
 Alpha  occ. eigenvalues --  -10.39083 -10.38808 -10.38519 -10.38426 -10.36472
 Alpha  occ. eigenvalues --  -10.35731 -10.35575 -10.35326 -10.35224 -10.35020
 Alpha  occ. eigenvalues --  -10.34823 -10.34798 -10.34694 -10.34629 -10.34491
 Alpha  occ. eigenvalues --  -10.34468 -10.34433 -10.34278 -10.34172 -10.33307
 Alpha  occ. eigenvalues --  -10.33156 -10.33021 -10.32750 -10.32716 -10.32583
 Alpha  occ. eigenvalues --  -10.32554 -10.32507 -10.32497 -10.32446 -10.32427
 Alpha  occ. eigenvalues --  -10.32408 -10.32379 -10.32358 -10.32156 -10.32081
 Alpha  occ. eigenvalues --  -10.31962 -10.31876 -10.31800 -10.31651 -10.31651
 Alpha  occ. eigenvalues --  -10.31572 -10.31517 -10.31459 -10.31430 -10.31360
 Alpha  occ. eigenvalues --  -10.31256 -10.31177 -10.31003 -10.30921 -10.30770
 Alpha  occ. eigenvalues --  -10.30416 -10.30400 -10.30334 -10.30232 -10.30204
 Alpha  occ. eigenvalues --  -10.30163 -10.30062 -10.29790 -10.29683 -10.29664
 Alpha  occ. eigenvalues --  -10.29512 -10.29413 -10.29213 -10.28802 -10.28666
 Alpha  occ. eigenvalues --  -10.28544  -3.21636  -3.21363  -1.95227  -1.94924
 Alpha  occ. eigenvalues --   -1.94768  -1.94583  -1.94501  -1.94312  -1.19565
 Alpha  occ. eigenvalues --   -1.16103  -1.11628  -1.11224  -1.10625  -1.10190
 Alpha  occ. eigenvalues --   -1.09502  -1.08926  -1.07788  -1.07211  -1.06971
 Alpha  occ. eigenvalues --   -1.06533  -1.05548  -1.04732  -1.03590  -1.03507
 Alpha  occ. eigenvalues --   -0.96038  -0.94949  -0.91421  -0.91229  -0.90901
 Alpha  occ. eigenvalues --   -0.90623  -0.90515  -0.89796  -0.89700  -0.89480
 Alpha  occ. eigenvalues --   -0.89263  -0.88852  -0.88332  -0.87771  -0.87009
 Alpha  occ. eigenvalues --   -0.86212  -0.85999  -0.85866  -0.85280  -0.84692
 Alpha  occ. eigenvalues --   -0.84642  -0.83949  -0.83444  -0.83382  -0.82844
 Alpha  occ. eigenvalues --   -0.82626  -0.80936  -0.80559  -0.79962  -0.79647
 Alpha  occ. eigenvalues --   -0.78963  -0.78886  -0.78048  -0.77823  -0.77166
 Alpha  occ. eigenvalues --   -0.76921  -0.75219  -0.74468  -0.74243  -0.74106
 Alpha  occ. eigenvalues --   -0.72069  -0.71066  -0.70938  -0.70779  -0.70503
 Alpha  occ. eigenvalues --   -0.69887  -0.69202  -0.69157  -0.68471  -0.67885
 Alpha  occ. eigenvalues --   -0.67577  -0.67550  -0.67336  -0.67196  -0.66592
 Alpha  occ. eigenvalues --   -0.66351  -0.65795  -0.63253  -0.62542  -0.62213
 Alpha  occ. eigenvalues --   -0.62119  -0.61698  -0.61324  -0.61294  -0.60721
 Alpha  occ. eigenvalues --   -0.60366  -0.60348  -0.60019  -0.59719  -0.59291
 Alpha  occ. eigenvalues --   -0.58961  -0.58735  -0.58568  -0.57764  -0.57753
 Alpha  occ. eigenvalues --   -0.57404  -0.57083  -0.56456  -0.56303  -0.56204
 Alpha  occ. eigenvalues --   -0.55736  -0.55689  -0.55467  -0.55435  -0.55110
 Alpha  occ. eigenvalues --   -0.55015  -0.54880  -0.54552  -0.54449  -0.54397
 Alpha  occ. eigenvalues --   -0.54181  -0.53800  -0.53705  -0.53453  -0.53330
 Alpha  occ. eigenvalues --   -0.53078  -0.53008  -0.52840  -0.52804  -0.52504
 Alpha  occ. eigenvalues --   -0.52314  -0.52261  -0.51831  -0.51567  -0.51492
 Alpha  occ. eigenvalues --   -0.51421  -0.51103  -0.51037  -0.50735  -0.50689
 Alpha  occ. eigenvalues --   -0.50613  -0.50576  -0.50406  -0.50307  -0.50056
 Alpha  occ. eigenvalues --   -0.49952  -0.49725  -0.49559  -0.49538  -0.49240
 Alpha  occ. eigenvalues --   -0.49023  -0.49001  -0.48723  -0.48648  -0.48405
 Alpha  occ. eigenvalues --   -0.48369  -0.48242  -0.48050  -0.47996  -0.47663
 Alpha  occ. eigenvalues --   -0.47547  -0.47518  -0.47289  -0.47131  -0.46866
 Alpha  occ. eigenvalues --   -0.46811  -0.46575  -0.46509  -0.46466  -0.46184
 Alpha  occ. eigenvalues --   -0.45896  -0.45847  -0.45685  -0.45498  -0.45493
 Alpha  occ. eigenvalues --   -0.45237  -0.44915  -0.44736  -0.44549  -0.44316
 Alpha  occ. eigenvalues --   -0.44221  -0.44178  -0.43884  -0.43825  -0.43730
 Alpha  occ. eigenvalues --   -0.43614  -0.43570  -0.43295  -0.43107  -0.43065
 Alpha  occ. eigenvalues --   -0.42945  -0.42924  -0.42654  -0.42529  -0.42339
 Alpha  occ. eigenvalues --   -0.42232  -0.41971  -0.41418  -0.41086  -0.40948
 Alpha  occ. eigenvalues --   -0.40649  -0.40418  -0.39905  -0.39786  -0.39693
 Alpha  occ. eigenvalues --   -0.39460  -0.39404  -0.38981  -0.38391  -0.38090
 Alpha  occ. eigenvalues --   -0.37880  -0.37606  -0.36706  -0.36578  -0.35967
 Alpha  occ. eigenvalues --   -0.35889  -0.35633  -0.35285  -0.34011  -0.33983
 Alpha  occ. eigenvalues --   -0.33223  -0.32809  -0.32614  -0.32383  -0.32305
 Alpha  occ. eigenvalues --   -0.32300  -0.31462  -0.31124  -0.26212  -0.26087
 Alpha  occ. eigenvalues --   -0.23488  -0.23465
 Alpha virt. eigenvalues --   -0.07485  -0.06961  -0.00731   0.00061   0.01821
 Alpha virt. eigenvalues --    0.02227   0.04133   0.04362   0.04474   0.05437
 Alpha virt. eigenvalues --    0.06749   0.07372   0.07866   0.08035   0.08132

 Mulliken charges:
               1
     1  Mg   0.931737
     2  C   -0.000937
     3  C   -0.065644
     4  C   -0.091593
     5  C   -0.077544
     6  N   -0.307372
     7  C    0.004154
     8  C   -0.074388
     9  C   -0.126311
    10  C    0.080245
    11  C    0.020486
    12  C    0.007958
    13  C   -0.131105
    14  H    0.036928
    15  N   -0.514454
    16  C    0.149004
    17  C   -0.151901
    18  C   -0.055460
    19  C    0.177897
    20  C    0.087372
    21  C    0.034399
    22  O   -0.271047
    23  C    0.017177
    24  N   -0.324862
    25  C    0.043790
    26  C   -0.057501
    27  C   -0.088525
    28  C    0.105921
    29  C    0.017438
    30  C   -0.009881
    31  C   -0.055801
    32  N   -0.439990
    33  C    0.094894
    34  C   -0.179743
    35  C    0.011882
    36  C    0.117465
    37  C    0.048051
    38  C    0.071028
    39  O   -0.201879
    40  C   -0.081155
    41  C    0.257032
    42  O   -0.227835
    43  O   -0.352639
    44  C    0.138921
    45  H   -0.003849
    46  H   -0.037252
    47  H   -0.005225
    48  H    0.022108
    49  H    0.037573
    50  H    0.038110
    51  H    0.026466
    52  H    0.039066
    53  H    0.025068
    54  H    0.032736
    55  H    0.077989
    56  H    0.066417
    57  H    0.053634
    58  H    0.029914
    59  H    0.063918
    60  H    0.061076
    61  H    0.077250
    62  H    0.047602
    63  H    0.049740
    64  H    0.040760
    65  H    0.036110
    66  H    0.051916
    67  H    0.027117
    68  H    0.036498
    69  H    0.027983
    70  H    0.034947
    71  H    0.031361
    72  H    0.047295
    73  H    0.038322
    74  H    0.058183
    75  H    0.037807
    76  H    0.089667
    77  H    0.063430
    78  H    0.059064
    79  H    0.050983
    80  Mg   0.950795
    81  C   -0.001421
    82  C   -0.092588
    83  C   -0.057175
    84  C   -0.097667
    85  N   -0.289262
    86  C   -0.079795
    87  C   -0.022131
    88  C   -0.152140
    89  C    0.044693
    90  C    0.020210
    91  C    0.019170
    92  C   -0.121884
    93  H   -0.003161
    94  N   -0.573515
    95  C    0.230672
    96  C   -0.157407
    97  C   -0.064040
    98  C    0.176430
    99  C    0.067541
   100  C    0.057023
   101  O   -0.243301
   102  C   -0.029286
   103  N   -0.281877
   104  C    0.040539
   105  C   -0.118719
   106  C   -0.082504
   107  C    0.022830
   108  C    0.039336
   109  C   -0.018044
   110  C   -0.035015
   111  N   -0.420957
   112  C    0.154750
   113  C   -0.152127
   114  C   -0.029653
   115  C    0.146147
   116  C    0.092541
   117  C    0.133355
   118  O   -0.250612
   119  C   -0.095426
   120  C    0.288908
   121  O   -0.246500
   122  O   -0.409297
   123  C    0.146580
   124  H   -0.006486
   125  H    0.019243
   126  H   -0.015411
   127  H    0.024982
   128  H    0.044101
   129  H    0.036962
   130  H    0.039600
   131  H    0.044106
   132  H    0.028276
   133  H    0.057694
   134  H    0.065760
   135  H    0.078838
   136  H    0.055803
   137  H    0.031540
   138  H    0.060667
   139  H    0.053822
   140  H    0.050831
   141  H    0.060019
   142  H    0.047711
   143  H    0.033930
   144  H    0.061749
   145  H    0.028991
   146  H    0.039250
   147  H    0.034203
   148  H    0.025054
   149  H    0.022691
   150  H    0.040444
   151  H    0.046558
   152  H    0.029881
   153  H    0.045564
   154  H    0.071965
   155  H    0.082489
   156  H    0.044142
   157  H    0.042297
   158  H    0.066721
 Sum of Mulliken charges =  -0.00000

 Dipole moment (field-independent basis, Debye):
    X=              1.0496    Y=              0.1880    Z=             -3.7573  Tot=              3.9057
 Quadrupole moment (field-independent basis, Debye-Ang):
   XX=            -93.8560   YY=           -519.7921   ZZ=           -477.3984
   XY=             12.6904   XZ=             88.5868   YZ=             41.5918

 Normal termination of Gaussian 16 at Sun Sep 19 18:21:50 2021.
