 Gaussian 16, Revision A.03,
 Gaussian 16:  ES64L-G16RevA.03 25-Dec-2016

 --------------------------------
 #p wB97XD/Def2SVP td=(nstates=5)
 --------------------------------

 --------------------------------
 TDDFT excited states in gaussian
 --------------------------------
 Symbolic Z-matrix:
 Charge =  0 Multiplicity = 1

                         Standard orientation:
 ---------------------------------------------------------------------
 Center     Atomic      Atomic             Coordinates (Angstroms)
 Number     Number       Type             X           Y           Z
 ---------------------------------------------------------------------
      1         12           0      -26.439738   -0.806674    0.121023
      2          6           0      -27.245349    2.673716   -0.274475
      3          6           0      -23.961285   -0.285798   -2.360275
      4          6           0      -25.582720   -4.189924    0.245333
      5          6           0      -29.052843   -1.268288    2.150531
      6          7           0      -25.849992    1.037956   -1.331537
      7          6           0      -26.244693    2.321344   -1.188600
      8          6           0      -25.552182    3.218581   -2.276524
      9          6           0      -24.688171    2.142256   -3.025961
     10          6           0      -24.758764    0.871383   -2.148558
     11          6           0      -25.167190    1.915478   -4.502335
     12          6           0      -24.708948    4.347748   -1.684740
     13          6           0      -24.847823    5.685510   -2.334130
     14          1           0      -24.104445    6.883322   -1.725415
     15          7           0      -24.888923   -2.019545   -0.720443
     16          6           0      -24.005265   -1.604382   -1.711111
     17          6           0      -23.118735   -2.710116   -2.015094
     18          6           0      -23.473468   -3.797360   -1.233791
     19          6           0      -24.756237   -3.389916   -0.567549
     20          6           0      -22.092702   -2.707245   -3.111614
     21          6           0      -22.880157   -5.263409   -1.155725
     22          8           0      -23.244360   -6.169312   -0.446635
     23          6           0      -21.608863   -5.569903   -1.917380
     24          7           0      -27.246873   -2.491542    0.901935
     25          6           0      -26.783240   -3.780896    0.870313
     26          6           0      -27.792909   -4.780275    1.481592
     27          6           0      -28.766349   -3.830132    2.300745
     28          6           0      -28.298730   -2.422669    1.766858
     29          6           0      -28.480888   -5.685905    0.410575
     30          6           0      -28.644962   -3.959181    3.849692
     31          6           0      -27.333001   -3.464323    4.454409
     32          7           0      -27.879756    0.359771    0.801240
     33          6           0      -28.914611    0.059674    1.730385
     34          6           0      -29.727381    1.244996    1.994278
     35          6           0      -29.078655    2.270088    1.282632
     36          6           0      -27.970621    1.715847    0.588657
     37          6           0      -30.893978    1.310888    2.866473
     38          6           0      -29.178126    3.699461    1.005686
     39          8           0      -29.952256    4.525550    1.459317
     40          6           0      -28.035999    4.023196   -0.100340
     41          6           0      -27.314127    5.172307    0.607571
     42          8           0      -26.568048    5.120597    1.601965
     43          8           0      -27.655539    6.309888    0.027795
     44          6           0      -26.869118    7.570527    0.344425
     45          1           0      -23.153705   -0.095871   -3.069914
     46          1           0      -25.393985   -5.261832    0.343302
     47          1           0      -29.842139   -1.474541    2.876019
     48          1           0      -26.383218    3.685206   -2.804359
     49          1           0      -23.632814    2.417263   -3.048221
     50          1           0      -24.409203    2.042284   -5.275300
     51          1           0      -26.097001    2.427226   -4.751384
     52          1           0      -25.422397    0.890407   -4.771974
     53          1           0      -23.726661    4.105259   -2.090604
     54          1           0      -24.699296    4.351204   -0.594229
     55          1           0      -25.839572    6.085430   -2.551445
     56          1           0      -24.389613    5.529010   -3.310744
     57          1           0      -21.967817   -1.711486   -3.536241
     58          1           0      -22.296787   -3.387266   -3.940133
     59          1           0      -21.079220   -2.971557   -2.809350
     60          1           0      -20.774889   -4.942395   -1.603212
     61          1           0      -21.933649   -5.419667   -2.947013
     62          1           0      -21.501354   -6.647593   -1.794251
     63          1           0      -27.163142   -5.462195    2.054061
     64          1           0      -29.799774   -3.757637    1.961086
     65          1           0      -28.171227   -6.728628    0.480367
     66          1           0      -28.440378   -5.371986   -0.631868
     67          1           0      -29.528731   -5.570013    0.688105
     68          1           0      -29.016522   -4.946579    4.124075
     69          1           0      -29.401389   -3.307982    4.287379
     70          1           0      -26.561335   -3.171339    3.743445
     71          1           0      -26.938356   -4.307914    5.020176
     72          1           0      -27.393715   -2.538621    5.025520
     73          1           0      -31.370715    2.289501    2.926039
     74          1           0      -30.528253    1.008559    3.847690
     75          1           0      -31.601452    0.554226    2.524336
     76          1           0      -28.448179    4.480783   -0.999668
     77          1           0      -27.102087    8.270942   -0.457903
     78          1           0      -25.790893    7.421321    0.295968
     79          1           0      -27.075353    7.974079    1.336426
     80         12           0       27.069759    0.586410    0.127955
     81          6           0       23.919895   -0.347445   -0.998684
     82          6           0       25.828060    0.498995    3.445952
     83          6           0       30.190531    0.338372    1.295607
     84          6           0       28.279178   -0.041063   -3.123544
     85          7           0       25.111763   -0.237091    1.147853
     86          6           0       23.948308   -0.294236    0.418853
     87          6           0       22.754593   -0.473917    1.303349
     88          6           0       23.313813    0.051099    2.704781
     89          6           0       24.865857    0.094681    2.474478
     90          6           0       22.734158    1.467416    3.209480
     91          6           0       22.205309   -1.989948    1.217455
     92          6           0       20.801644   -2.143408    1.521410
     93          1           0       20.520326   -3.160163    2.647987
     94          7           0       27.920627    0.620388    2.064645
     95          6           0       27.235550    0.590799    3.311567
     96          6           0       28.236316    0.672021    4.362072
     97          6           0       29.524365    0.649625    3.774015
     98          6           0       29.252130    0.619291    2.297640
     99          6           0       27.875816    0.599863    5.799063
    100          6           0       30.881140    0.612298    4.594446
    101          8           0       30.789562    0.622961    5.821022
    102          6           0       32.231562    0.874035    3.936475
    103          7           0       28.904630    0.104443   -0.805629
    104          6           0       30.050178    0.199751   -0.084175
    105          6           0       31.393642   -0.192442   -0.963220
    106          6           0       30.783728   -0.098654   -2.443356
    107          6           0       29.250018    0.017695   -2.174340
    108          6           0       32.624757    0.778342   -0.806504
    109          6           0       31.110395   -1.318662   -3.306661
    110          6           0       31.875008   -1.163143   -4.643080
    111          7           0       26.246901    0.226012   -1.731307
    112          6           0       26.852674    0.036178   -2.939361
    113          6           0       25.845739   -0.062526   -3.959745
    114          6           0       24.646935   -0.275997   -3.180526
    115          6           0       24.992440   -0.126046   -1.826616
    116          6           0       26.080119   -0.232485   -5.432983
    117          6           0       23.250243   -0.643382   -3.285908
    118          8           0       22.544264   -0.708255   -4.245998
    119          6           0       22.637767   -0.661281   -1.831319
    120          6           0       21.570841    0.423741   -1.566311
    121          8           0       21.709932    1.602058   -1.814880
    122          8           0       20.389085   -0.181668   -1.091451
    123          6           0       19.240189    0.662455   -0.959309
    124          1           0       25.369972    0.526363    4.436051
    125          1           0       31.182164    0.018705    1.622088
    126          1           0       28.697591   -0.208670   -4.117675
    127          1           0       21.983813    0.274948    1.118222
    128          1           0       23.088915   -0.703022    3.459848
    129          1           0       22.254107    1.253385    4.164300
    130          1           0       22.032712    1.913960    2.505408
    131          1           0       23.599997    2.111564    3.365472
    132          1           0       22.788873   -2.509832    1.977056
    133          1           0       22.557058   -2.280644    0.227203
    134          1           0       20.328566   -2.472548    0.597003
    135          1           0       20.388798   -1.196706    1.869748
    136          1           0       26.805680    0.737638    5.952729
    137          1           0       28.330351    1.431235    6.338456
    138          1           0       28.140708   -0.367781    6.225853
    139          1           0       32.531260    0.102875    3.226132
    140          1           0       32.969325    0.969413    4.733838
    141          1           0       32.167004    1.843817    3.442932
    142          1           0       31.572767   -1.231907   -0.689765
    143          1           0       31.001445    0.829608   -2.972038
    144          1           0       33.442676    0.256982   -0.310069
    145          1           0       32.334704    1.637094   -0.199913
    146          1           0       32.912549    1.080201   -1.814131
    147          1           0       30.227037   -1.930543   -3.487950
    148          1           0       31.670742   -2.101289   -2.795438
    149          1           0       31.321978   -1.348217   -5.564355
    150          1           0       32.646617   -1.932835   -4.613490
    151          1           0       32.307854   -0.166511   -4.737507
    152          1           0       25.150061    0.034923   -5.935176
    153          1           0       26.092170   -1.264158   -5.783150
    154          1           0       26.969730    0.264353   -5.819181
    155          1           0       22.155353   -1.638021   -1.785031
    156          1           0       18.706121    0.135478   -0.167968
    157          1           0       18.576776    0.587874   -1.820770
    158          1           0       19.534614    1.695615   -0.779328
 ---------------------------------------------------------------------

 SCF Done:  E(RwB97XD) =  -4070.56728292     A.U. after   19 cycles

 Excitation energies and oscillator strengths:

 Excited State   1:      Singlet-A      1.5889 eV  780.33 nm  f=0.3677  <S**2>=0.000
     310 -> 315        0.18992
     312 -> 314        0.68307
     310 <- 315        0.12270
 This state for optimization and/or second-order correction.
 Total Energy, E(TD-HF/TD-DFT) =  -4070.50889320
 Copying the excited state density for this state as the 1-particle RhoCI density.

 Excited State   2:      Singlet-A      1.6352 eV  758.21 nm  f=0.3884  <S**2>=0.000
     309 -> 316        0.17848
     311 -> 313        0.68608
     309 <- 316        0.11657

 Excited State   3:      Singlet-A      2.1589 eV  574.31 nm  f=0.0893  <S**2>=0.000
     310 -> 314        0.62443
     312 -> 315       -0.32205

 Excited State   4:      Singlet-A      2.1961 eV  564.57 nm  f=0.1042  <S**2>=0.000
     309 -> 313        0.63439
     311 -> 316       -0.29402

 Excited State   5:      Singlet-A      3.3901 eV  365.72 nm  f=0.0208  <S**2>=0.000
     305 -> 313        0.56160
     307 -> 313        0.12213
     308 -> 313       -0.35218
     311 -> 316        0.15560

 The electronic state is 1-A.
 Alpha  occ. eigenvalues --  -46.96163 -46.94613 -19.30358 -19.30129 -19.25665
 Alpha  occ. eigenvalues --  -19.24769 -19.24525 -19.24389 -19.23254 -19.22955
 Alpha  occ. eigenvalues --  -14.47058 -14.46935 -14.46622 -14.46121 -14.44841
 Alpha  occ. eigenvalues --  -14.44716 -14.44286 -14.43630 -10.43951 -10.42309
 Alpha  occ. eigenvalues --  -10.40425 -10.39562 -10.39406 -10.37983 -10.35970
 Alpha  occ. eigenvalues --  -10.35914 -10.35714 -10.35453 -10.35369 -10.35306
 Alpha  occ. eigenvalues --  -10.35254 -10.35187 -10.35125 -10.35123 -10.35117
 Alpha  occ. eigenvalues --  -10.34684 -10.34535 -10.34461 -10.34018 -10.33927
 Alpha  occ. eigenvalues --  -10.33607 -10.33362 -10.32920 -10.32882 -10.32720
 Alpha  occ. eigenvalues --  -10.32714 -10.32703 -10.32647 -10.32569 -10.32558
 Alpha  occ. eigenvalues --  -10.32490 -10.32464 -10.32454 -10.32400 -10.32383
 Alpha  occ. eigenvalues --  -10.32353 -10.32262 -10.32219 -10.32107 -10.32032
 Alpha  occ. eigenvalues --  -10.32003 -10.31715 -10.31690 -10.31639 -10.31327
 Alpha  occ. eigenvalues --  -10.30956 -10.30837 -10.30755 -10.30750 -10.30666
 Alpha  occ. eigenvalues --  -10.30592 -10.30503 -10.30371 -10.30368 -10.30216
 Alpha  occ. eigenvalues --  -10.30078 -10.30009 -10.29910 -10.29866 -10.29674
 Alpha  occ. eigenvalues --  -10.29586 -10.29535 -10.29448 -10.29434 -10.29200
 Alpha  occ. eigenvalues --  -10.28640  -3.22046  -3.20742  -1.95576  -1.95220
 Alpha  occ. eigenvalues --   -1.94978  -1.94319  -1.93882  -1.93715  -1.18238
 Alpha  occ. eigenvalues --   -1.18115  -1.13670  -1.12997  -1.12563  -1.12258
 Alpha  occ. eigenvalues --   -1.10932  -1.07460  -1.06903  -1.05767  -1.05108
 Alpha  occ. eigenvalues --   -1.04977  -1.04392  -1.04250  -1.03730  -1.03642
 Alpha  occ. eigenvalues --   -0.94200  -0.92808  -0.91110  -0.91085  -0.90593
 Alpha  occ. eigenvalues --   -0.90276  -0.90077  -0.89918  -0.89286  -0.88882
 Alpha  occ. eigenvalues --   -0.88813  -0.88394  -0.88384  -0.87772  -0.86026
 Alpha  occ. eigenvalues --   -0.86004  -0.85452  -0.85249  -0.84626  -0.84256
 Alpha  occ. eigenvalues --   -0.84169  -0.83426  -0.83108  -0.82959  -0.82232
 Alpha  occ. eigenvalues --   -0.82117  -0.80091  -0.79761  -0.79308  -0.79201
 Alpha  occ. eigenvalues --   -0.78868  -0.78698  -0.78060  -0.77884  -0.77053
 Alpha  occ. eigenvalues --   -0.76901  -0.74660  -0.74568  -0.73611  -0.73339
 Alpha  occ. eigenvalues --   -0.71958  -0.71149  -0.70718  -0.70420  -0.69485
 Alpha  occ. eigenvalues --   -0.69415  -0.68486  -0.68243  -0.67857  -0.67412
 Alpha  occ. eigenvalues --   -0.67054  -0.66842  -0.66585  -0.66462  -0.66107
 Alpha  occ. eigenvalues --   -0.66060  -0.64805  -0.63763  -0.61706  -0.61588
 Alpha  occ. eigenvalues --   -0.61445  -0.61280  -0.60991  -0.60904  -0.60535
 Alpha  occ. eigenvalues --   -0.59988  -0.59697  -0.59463  -0.59354  -0.58340
 Alpha  occ. eigenvalues --   -0.58176  -0.57630  -0.57400  -0.57293  -0.57028
 Alpha  occ. eigenvalues --   -0.56951  -0.56697  -0.56570  -0.55935  -0.55882
 Alpha  occ. eigenvalues --   -0.55263  -0.55190  -0.55139  -0.54821  -0.54685
 Alpha  occ. eigenvalues --   -0.54636  -0.54508  -0.54420  -0.54318  -0.54047
 Alpha  occ. eigenvalues --   -0.54043  -0.53701  -0.53597  -0.53448  -0.52963
 Alpha  occ. eigenvalues --   -0.52887  -0.52827  -0.52715  -0.52166  -0.52047
 Alpha  occ. eigenvalues --   -0.52022  -0.51733  -0.51688  -0.51588  -0.51546
 Alpha  occ. eigenvalues --   -0.51203  -0.51157  -0.51150  -0.51054  -0.50897
 Alpha  occ. eigenvalues --   -0.50720  -0.50551  -0.50373  -0.50352  -0.50061
 Alpha  occ. eigenvalues --   -0.49932  -0.49806  -0.49431  -0.49350  -0.49230
 Alpha  occ. eigenvalues --   -0.49000  -0.48929  -0.48661  -0.48567  -0.48360
 Alpha  occ. eigenvalues --   -0.48277  -0.48108  -0.48085  -0.47890  -0.47735
 Alpha  occ. eigenvalues --   -0.47582  -0.47416  -0.47197  -0.47178  -0.46889
 Alpha  occ. eigenvalues --   -0.46819  -0.46744  -0.46437  -0.46324  -0.46055
 Alpha  occ. eigenvalues --   -0.46030  -0.45903  -0.45879  -0.45581  -0.45457
 Alpha  occ. eigenvalues --   -0.45452  -0.45360  -0.45081  -0.45054  -0.44942
 Alpha  occ. eigenvalues --   -0.44890  -0.44729  -0.44625  -0.44495  -0.44433
 Alpha  occ. eigenvalues --   -0.44180  -0.44048  -0.43768  -0.43392  -0.43287
 Alpha  occ. eigenvalues --   -0.42957  -0.42889  -0.42815  -0.42365  -0.42257
 Alpha  occ. eigenvalues --   -0.42094  -0.41716  -0.41454  -0.41071  -0.40618
 Alpha  occ. eigenvalues --   -0.40519  -0.40183  -0.39964  -0.39700  -0.39529
 Alpha  occ. eigenvalues --   -0.39045  -0.38700  -0.38683  -0.38243  -0.38022
 Alpha  occ. eigenvalues --   -0.37638  -0.37574  -0.36755  -0.36250  -0.35887
 Alpha  occ. eigenvalues --   -0.35542  -0.35325  -0.34700  -0.33588  -0.33588
 Alpha  occ. eigenvalues --   -0.33456  -0.32975  -0.32792  -0.32496  -0.32436
 Alpha  occ. eigenvalues --   -0.32137  -0.31945  -0.31300  -0.26263  -0.26011
 Alpha  occ. eigenvalues --   -0.22988  -0.22744
 Alpha virt. eigenvalues --   -0.07126  -0.07051  -0.00112   0.00249   0.02510
 Alpha virt. eigenvalues --    0.02720   0.04252   0.04490   0.04496   0.06523
 Alpha virt. eigenvalues --    0.06724   0.07083   0.07608   0.07988   0.08426

 Mulliken charges:
               1
     1  Mg   0.988104
     2  C    0.030639
     3  C   -0.071639
     4  C   -0.057294
     5  C   -0.105007
     6  N   -0.311438
     7  C   -0.008589
     8  C   -0.088481
     9  C   -0.082958
    10  C    0.047640
    11  C    0.016140
    12  C    0.051427
    13  C   -0.150219
    14  H    0.031556
    15  N   -0.450275
    16  C    0.180597
    17  C   -0.160686
    18  C   -0.081993
    19  C    0.134232
    20  C    0.054958
    21  C    0.056991
    22  O   -0.216002
    23  C   -0.009268
    24  N   -0.398618
    25  C    0.036586
    26  C   -0.083145
    27  C   -0.076550
    28  C    0.060747
    29  C    0.027330
    30  C   -0.006011
    31  C   -0.051479
    32  N   -0.527350
    33  C    0.158590
    34  C   -0.163603
    35  C   -0.041790
    36  C    0.162110
    37  C    0.081425
    38  C    0.128537
    39  O   -0.198775
    40  C   -0.130141
    41  C    0.252256
    42  O   -0.286969
    43  O   -0.341672
    44  C    0.147765
    45  H   -0.001387
    46  H    0.022940
    47  H   -0.006051
    48  H    0.039126
    49  H    0.035213
    50  H    0.033077
    51  H    0.038313
    52  H    0.025656
    53  H    0.023417
    54  H    0.069108
    55  H    0.048331
    56  H    0.037547
    57  H    0.022382
    58  H    0.055841
    59  H    0.037926
    60  H    0.076472
    61  H    0.035007
    62  H    0.053188
    63  H    0.040835
    64  H    0.042983
    65  H    0.048279
    66  H    0.047200
    67  H    0.024254
    68  H    0.039496
    69  H    0.022284
    70  H    0.040669
    71  H    0.045467
    72  H    0.042421
    73  H    0.065318
    74  H    0.051800
    75  H    0.044429
    76  H    0.067558
    77  H    0.057694
    78  H    0.052499
    79  H    0.073028
    80  Mg   0.961189
    81  C   -0.078255
    82  C   -0.075568
    83  C   -0.093984
    84  C   -0.090936
    85  N   -0.325549
    86  C   -0.039471
    87  C   -0.084356
    88  C   -0.134146
    89  C    0.034946
    90  C    0.014940
    91  C    0.053072
    92  C   -0.094387
    93  H    0.019865
    94  N   -0.466710
    95  C    0.174525
    96  C   -0.161796
    97  C   -0.102799
    98  C    0.203906
    99  C    0.095385
   100  C    0.076031
   101  O   -0.234444
   102  C   -0.028164
   103  N   -0.403798
   104  C    0.073586
   105  C   -0.123963
   106  C   -0.024101
   107  C    0.034457
   108  C    0.024347
   109  C   -0.029770
   110  C   -0.054236
   111  N   -0.416193
   112  C    0.139401
   113  C   -0.160895
   114  C   -0.085659
   115  C    0.221641
   116  C    0.066579
   117  C    0.109003
   118  O   -0.181760
   119  C   -0.079654
   120  C    0.276194
   121  O   -0.220980
   122  O   -0.387175
   123  C    0.130574
   124  H    0.011390
   125  H   -0.019698
   126  H   -0.007346
   127  H    0.027418
   128  H    0.037138
   129  H    0.043864
   130  H    0.052421
   131  H    0.042182
   132  H    0.036895
   133  H    0.036932
   134  H    0.063435
   135  H    0.049692
   136  H    0.010706
   137  H    0.056818
   138  H    0.066390
   139  H    0.071103
   140  H    0.057634
   141  H    0.067768
   142  H    0.055949
   143  H    0.043570
   144  H    0.039932
   145  H    0.046119
   146  H    0.045231
   147  H    0.031551
   148  H    0.018915
   149  H    0.040053
   150  H    0.034078
   151  H    0.032258
   152  H    0.049854
   153  H    0.043560
   154  H    0.043552
   155  H    0.072449
   156  H    0.046048
   157  H    0.054200
   158  H    0.067042
 Sum of Mulliken charges =  -0.00000

 Dipole moment (field-independent basis, Debye):
    X=              4.1288    Y=             -1.4670    Z=             -2.6791  Tot=              5.1358
 Quadrupole moment (field-independent basis, Debye-Ang):
   XX=           -393.6658   YY=           -516.5862   ZZ=           -519.7939
   XY=             69.0472   XZ=             65.8278   YZ=            -13.7948

 Normal termination of Gaussian 16 at Sun Sep 19 08:44:01 2021.
