 Gaussian 16, Revision A.03,
 Gaussian 16:  ES64L-G16RevA.03 25-Dec-2016

 --------------------------------
 #p wB97XD/Def2SVP td=(nstates=5)
 --------------------------------

 --------------------------------
 TDDFT excited states in gaussian
 --------------------------------
 Symbolic Z-matrix:
 Charge =  0 Multiplicity = 1

                         Standard orientation:
 ---------------------------------------------------------------------
 Center     Atomic      Atomic             Coordinates (Angstroms)
 Number     Number       Type             X           Y           Z
 ---------------------------------------------------------------------
      1         12           0       -9.006727    0.173437    0.162024
      2          6           0       -6.237557   -2.116640    0.238134
      3          6           0       -6.837210    2.391545   -1.553807
      4          6           0      -11.517255    2.600140    0.093649
      5          6           0      -10.827462   -1.830364    2.119065
      6          7           0       -6.649450    0.158750   -0.388813
      7          6           0       -5.830175   -0.913990   -0.352440
      8          6           0       -4.407350   -0.519202   -0.888998
      9          6           0       -4.643225    0.994337   -1.235709
     10          6           0       -6.170821    1.208689   -1.133522
     11          6           0       -3.809906    1.953722   -0.316073
     12          6           0       -3.965280   -1.342094   -2.098829
     13          6           0       -2.553140   -1.828210   -2.086323
     14          1           0       -2.076376   -2.743265   -3.223542
     15          7           0       -9.254500    2.086468   -0.766992
     16          6           0       -8.241652    2.798973   -1.400323
     17          6           0       -8.804200    4.042334   -1.888772
     18          6           0      -10.142414    4.098387   -1.536052
     19          6           0      -10.349322    2.923076   -0.624340
     20          6           0       -8.012817    5.145137   -2.531148
     21          6           0      -11.239184    5.214342   -1.779264
     22          8           0      -12.396517    5.197334   -1.438084
     23          6           0      -10.893856    6.383600   -2.675830
     24          7           0      -10.794093    0.453904    1.071270
     25          6           0      -11.691791    1.481209    0.940220
     26          6           0      -12.872236    1.355966    1.931540
     27          6           0      -12.779646   -0.161850    2.388742
     28          6           0      -11.375163   -0.550241    1.787712
     29          6           0      -12.817359    2.409968    3.083332
     30          6           0      -13.933501   -1.068276    1.861829
     31          6           0      -13.944250   -1.317453    0.355309
     32          7           0       -8.677968   -1.561527    1.044497
     33          6           0       -9.570313   -2.362609    1.810188
     34          6           0       -8.919892   -3.604145    2.223423
     35          6           0       -7.664397   -3.559607    1.591085
     36          6           0       -7.551043   -2.333806    0.883210
     37          6           0       -9.512121   -4.652857    3.045298
     38          6           0       -6.440356   -4.339663    1.439645
     39          8           0       -6.179645   -5.460426    1.843875
     40          6           0       -5.405565   -3.396887    0.619319
     41          6           0       -5.033057   -4.354340   -0.515235
     42          8           0       -5.727925   -4.713953   -1.482688
     43          8           0       -3.821074   -4.830372   -0.288776
     44          6           0       -3.096498   -5.575584   -1.396735
     45          1           0       -6.183575    3.035142   -2.145746
     46          1           0      -12.355806    3.299813    0.132319
     47          1           0      -11.503197   -2.467299    2.693137
     48          1           0       -3.734992   -0.771621   -0.069737
     49          1           0       -4.391587    1.213568   -2.274226
     50          1           0       -3.160286    2.662624   -0.829442
     51          1           0       -3.299833    1.449958    0.505210
     52          1           0       -4.377324    2.707292    0.230530
     53          1           0       -3.828084   -0.556926   -2.842538
     54          1           0       -4.711840   -2.069055   -2.420535
     55          1           0       -2.148178   -2.302976   -1.191151
     56          1           0       -1.979595   -0.908022   -2.198229
     57          1           0       -6.994109    4.826925   -2.751181
     58          1           0       -7.944010    6.066240   -1.950321
     59          1           0       -8.376998    5.482939   -3.501525
     60          1           0      -10.625347    6.068737   -3.684168
     61          1           0      -10.088593    6.855639   -2.112865
     62          1           0      -11.756724    7.040745   -2.567416
     63          1           0      -13.738507    1.645432    1.335615
     64          1           0      -12.529649   -0.357265    3.431768
     65          1           0      -13.611154    3.153386    3.010862
     66          1           0      -11.871786    2.916790    3.272799
     67          1           0      -12.960510    1.768973    3.953425
     68          1           0      -14.851492   -0.744706    2.352638
     69          1           0      -13.788121   -2.058313    2.293690
     70          1           0      -13.216177   -0.752979   -0.226117
     71          1           0      -14.931424   -1.003794    0.016798
     72          1           0      -13.667123   -2.322440    0.039112
     73          1           0       -8.859566   -5.501641    3.250837
     74          1           0      -10.393048   -4.978868    2.492461
     75          1           0       -9.850718   -4.189469    3.973058
     76          1           0       -4.469873   -3.243318    1.156874
     77          1           0       -2.045014   -5.579542   -1.108716
     78          1           0       -3.133881   -5.054880   -2.353108
     79          1           0       -3.492567   -6.575131   -1.579729
     80         12           0        8.765239    0.634023    0.351007
     81          6           0        7.426776   -1.514574   -2.101572
     82          6           0        7.782616    3.198174   -1.573629
     83          6           0        9.574536    2.506546    2.904301
     84          6           0        9.020031   -2.262663    2.428208
     85          7           0        7.680100    0.793253   -1.597421
     86          6           0        7.294527   -0.167403   -2.470470
     87          6           0        6.705142    0.378790   -3.755109
     88          6           0        7.112570    1.900789   -3.619277
     89          6           0        7.549505    2.027088   -2.174506
     90          6           0        8.241934    2.381431   -4.621206
     91          6           0        5.163775    0.208258   -4.110065
     92          6           0        4.123959   -0.203417   -3.034231
     93          1           0        2.666667    0.379978   -3.155549
     94          7           0        8.793916    2.641927    0.532470
     95          6           0        8.261503    3.528861   -0.297530
     96          6           0        8.342156    4.879166    0.323227
     97          6           0        9.048085    4.671500    1.619257
     98          6           0        9.148468    3.215793    1.727736
     99          6           0        7.967903    6.154871   -0.382043
    100          6           0        9.410871    5.749472    2.606883
    101          8           0        9.184517    6.920160    2.310972
    102          6           0       10.009422    5.508805    4.041787
    103          7           0        9.145811    0.189689    2.496431
    104          6           0        9.601204    1.177685    3.186071
    105          6           0       10.087951    0.596203    4.587531
    106          6           0        9.656402   -0.865763    4.454890
    107          6           0        9.214171   -1.012831    3.011724
    108          6           0       11.558719    0.771067    5.001095
    109          6           0        8.355267   -1.240100    5.336723
    110          6           0        8.575028   -2.223669    6.500747
    111          7           0        8.284958   -1.434624    0.285277
    112          6           0        8.548947   -2.486106    1.122665
    113          6           0        8.341268   -3.779410    0.421032
    114          6           0        7.765850   -3.457496   -0.840700
    115          6           0        7.875886   -2.000249   -0.876082
    116          6           0        8.486701   -5.197831    1.016051
    117          6           0        7.196707   -3.930466   -2.058321
    118          8           0        6.816813   -5.042008   -2.464612
    119          6           0        7.018048   -2.691915   -2.972815
    120          6           0        7.845846   -2.950563   -4.235022
    121          8           0        7.545169   -3.236513   -5.363496
    122          8           0        9.168827   -2.591576   -3.955080
    123          6           0       10.155110   -2.646634   -5.078497
    124          1           0        7.444670    4.013502   -2.216954
    125          1           0        9.872319    3.175951    3.714996
    126          1           0        9.350650   -3.143254    2.982268
    127          1           0        7.319544   -0.055611   -4.543512
    128          1           0        6.244307    2.524743   -3.831678
    129          1           0        8.606969    1.550563   -5.224019
    130          1           0        9.056812    2.606263   -3.933947
    131          1           0        7.877628    3.225492   -5.207107
    132          1           0        5.110113   -0.508299   -4.929782
    133          1           0        4.801479    1.136221   -4.553773
    134          1           0        4.544086    0.122372   -2.082650
    135          1           0        3.856301   -1.259235   -3.061894
    136          1           0        8.340472    7.048526    0.118189
    137          1           0        6.890428    6.108804   -0.544622
    138          1           0        8.379855    6.023590   -1.383167
    139          1           0       10.897753    4.892650    4.185817
    140          1           0        9.261998    4.978694    4.632086
    141          1           0       10.270671    6.442883    4.538294
    142          1           0        9.582931    1.087103    5.418755
    143          1           0       10.366565   -1.650567    4.717691
    144          1           0       12.126964    1.326427    4.254752
    145          1           0       12.031205   -0.185955    5.224907
    146          1           0       11.687835    1.367971    5.903948
    147          1           0        7.578068   -1.704747    4.731501
    148          1           0        7.977096   -0.289103    5.712438
    149          1           0        7.735913   -2.883223    6.723437
    150          1           0        8.705853   -1.595470    7.381812
    151          1           0        9.446339   -2.795732    6.181670
    152          1           0        8.565324   -5.237178    2.102007
    153          1           0        9.414930   -5.569586    0.582821
    154          1           0        7.684197   -5.816933    0.615810
    155          1           0        5.966864   -2.590269   -3.240563
    156          1           0       10.004473   -3.381557   -5.868951
    157          1           0       11.077444   -2.946727   -4.581516
    158          1           0       10.416263   -1.718654   -5.587582
 ---------------------------------------------------------------------

 SCF Done:  E(RwB97XD) =  -4070.57842131     A.U. after   19 cycles

 Excitation energies and oscillator strengths:

 Excited State   1:      Singlet-A      1.5885 eV  780.51 nm  f=0.3304  <S**2>=0.000
     310 -> 316       -0.18964
     312 -> 314        0.68243
     310 <- 316       -0.12255
 This state for optimization and/or second-order correction.
 Total Energy, E(TD-HF/TD-DFT) =  -4070.52004513
 Copying the excited state density for this state as the 1-particle RhoCI density.

 Excited State   2:      Singlet-A      1.7167 eV  722.24 nm  f=0.4217  <S**2>=0.000
     309 -> 315       -0.19054
     311 -> 313        0.68062
     309 <- 315       -0.11523

 Excited State   3:      Singlet-A      2.1583 eV  574.45 nm  f=0.0930  <S**2>=0.000
     310 -> 314        0.62449
     312 -> 316        0.32169

 Excited State   4:      Singlet-A      2.2313 eV  555.65 nm  f=0.0944  <S**2>=0.000
     309 -> 313        0.63441
     311 -> 315        0.29983

 Excited State   5:      Singlet-A      3.3396 eV  371.25 nm  f=0.0000  <S**2>=0.000
     312 -> 313        0.70684

 The electronic state is 1-A.
 Alpha  occ. eigenvalues --  -46.96538 -46.94531 -19.29987 -19.29964 -19.25515
 Alpha  occ. eigenvalues --  -19.24732 -19.24457 -19.24293 -19.23702 -19.22813
 Alpha  occ. eigenvalues --  -14.47049 -14.46977 -14.46501 -14.46035 -14.45193
 Alpha  occ. eigenvalues --  -14.44844 -14.44637 -14.44203 -10.43904 -10.42168
 Alpha  occ. eigenvalues --  -10.39904 -10.39674 -10.39494 -10.39308 -10.35762
 Alpha  occ. eigenvalues --  -10.35751 -10.35717 -10.35363 -10.35295 -10.35265
 Alpha  occ. eigenvalues --  -10.35249 -10.35161 -10.35038 -10.35038 -10.34884
 Alpha  occ. eigenvalues --  -10.34809 -10.34603 -10.34550 -10.34307 -10.34206
 Alpha  occ. eigenvalues --  -10.33950 -10.33941 -10.33842 -10.33619 -10.33201
 Alpha  occ. eigenvalues --  -10.33039 -10.32988 -10.32809 -10.32791 -10.32545
 Alpha  occ. eigenvalues --  -10.32540 -10.32412 -10.32388 -10.32350 -10.32333
 Alpha  occ. eigenvalues --  -10.32303 -10.32220 -10.32136 -10.32092 -10.32044
 Alpha  occ. eigenvalues --  -10.31783 -10.31724 -10.31561 -10.31546 -10.31443
 Alpha  occ. eigenvalues --  -10.31249 -10.31245 -10.31219 -10.31097 -10.30767
 Alpha  occ. eigenvalues --  -10.30693 -10.30592 -10.30587 -10.30531 -10.30476
 Alpha  occ. eigenvalues --  -10.30415 -10.30108 -10.29979 -10.29873 -10.29850
 Alpha  occ. eigenvalues --  -10.29794 -10.29678 -10.29524 -10.29396 -10.29365
 Alpha  occ. eigenvalues --  -10.29136  -3.22468  -3.20660  -1.96044  -1.95588
 Alpha  occ. eigenvalues --   -1.95436  -1.94237  -1.93801  -1.93632  -1.18375
 Alpha  occ. eigenvalues --   -1.17958  -1.13602  -1.12160  -1.11863  -1.11761
 Alpha  occ. eigenvalues --   -1.09647  -1.08858  -1.07313  -1.06978  -1.06189
 Alpha  occ. eigenvalues --   -1.05689  -1.05459  -1.05019  -1.04168  -1.03648
 Alpha  occ. eigenvalues --   -0.95749  -0.92713  -0.91847  -0.90963  -0.90849
 Alpha  occ. eigenvalues --   -0.90644  -0.90523  -0.90322  -0.89842  -0.89205
 Alpha  occ. eigenvalues --   -0.89024  -0.88806  -0.88300  -0.87452  -0.86969
 Alpha  occ. eigenvalues --   -0.85938  -0.85927  -0.85370  -0.84928  -0.84147
 Alpha  occ. eigenvalues --   -0.83845  -0.83354  -0.82898  -0.82840  -0.82599
 Alpha  occ. eigenvalues --   -0.82026  -0.80594  -0.80014  -0.79756  -0.79116
 Alpha  occ. eigenvalues --   -0.79097  -0.78759  -0.78737  -0.77769  -0.77436
 Alpha  occ. eigenvalues --   -0.76971  -0.75464  -0.74508  -0.74486  -0.73524
 Alpha  occ. eigenvalues --   -0.71886  -0.71731  -0.71379  -0.70693  -0.70622
 Alpha  occ. eigenvalues --   -0.69643  -0.69371  -0.68894  -0.68147  -0.67793
 Alpha  occ. eigenvalues --   -0.67631  -0.67311  -0.67009  -0.66978  -0.66492
 Alpha  occ. eigenvalues --   -0.65963  -0.65307  -0.63625  -0.62715  -0.62339
 Alpha  occ. eigenvalues --   -0.61572  -0.61513  -0.61195  -0.60810  -0.60672
 Alpha  occ. eigenvalues --   -0.60224  -0.59606  -0.59383  -0.59272  -0.58475
 Alpha  occ. eigenvalues --   -0.58054  -0.57995  -0.57790  -0.57550  -0.57287
 Alpha  occ. eigenvalues --   -0.57187  -0.56941  -0.56632  -0.56494  -0.56026
 Alpha  occ. eigenvalues --   -0.55767  -0.55710  -0.55186  -0.55030  -0.55006
 Alpha  occ. eigenvalues --   -0.54835  -0.54694  -0.54512  -0.54237  -0.54097
 Alpha  occ. eigenvalues --   -0.53968  -0.53824  -0.53651  -0.53342  -0.53341
 Alpha  occ. eigenvalues --   -0.53154  -0.52803  -0.52736  -0.52634  -0.52106
 Alpha  occ. eigenvalues --   -0.51969  -0.51877  -0.51661  -0.51587  -0.51463
 Alpha  occ. eigenvalues --   -0.51122  -0.51119  -0.51048  -0.50937  -0.50801
 Alpha  occ. eigenvalues --   -0.50589  -0.50563  -0.50436  -0.50361  -0.50247
 Alpha  occ. eigenvalues --   -0.49982  -0.49914  -0.49647  -0.49491  -0.49329
 Alpha  occ. eigenvalues --   -0.49327  -0.49274  -0.48998  -0.48704  -0.48578
 Alpha  occ. eigenvalues --   -0.48488  -0.48362  -0.48180  -0.48179  -0.48026
 Alpha  occ. eigenvalues --   -0.47982  -0.47638  -0.47619  -0.47416  -0.47335
 Alpha  occ. eigenvalues --   -0.47082  -0.46925  -0.46719  -0.46243  -0.46243
 Alpha  occ. eigenvalues --   -0.46057  -0.45982  -0.45791  -0.45649  -0.45495
 Alpha  occ. eigenvalues --   -0.45382  -0.45346  -0.45207  -0.44946  -0.44833
 Alpha  occ. eigenvalues --   -0.44801  -0.44709  -0.44425  -0.44374  -0.44166
 Alpha  occ. eigenvalues --   -0.44141  -0.43949  -0.43682  -0.43499  -0.43213
 Alpha  occ. eigenvalues --   -0.43170  -0.42997  -0.42713  -0.42704  -0.42192
 Alpha  occ. eigenvalues --   -0.42004  -0.41990  -0.41365  -0.41273  -0.40948
 Alpha  occ. eigenvalues --   -0.40904  -0.40444  -0.40260  -0.39882  -0.39862
 Alpha  occ. eigenvalues --   -0.39397  -0.39058  -0.38835  -0.38589  -0.38472
 Alpha  occ. eigenvalues --   -0.37908  -0.37521  -0.37190  -0.36382  -0.35991
 Alpha  occ. eigenvalues --   -0.35794  -0.35237  -0.34571  -0.34222  -0.33616
 Alpha  occ. eigenvalues --   -0.33503  -0.33396  -0.32992  -0.32900  -0.32697
 Alpha  occ. eigenvalues --   -0.32418  -0.32055  -0.31552  -0.26551  -0.25926
 Alpha  occ. eigenvalues --   -0.23475  -0.22663
 Alpha virt. eigenvalues --   -0.07391  -0.06970  -0.00256  -0.00032   0.01284
 Alpha virt. eigenvalues --    0.02805   0.03724   0.04401   0.04576   0.06598
 Alpha virt. eigenvalues --    0.06620   0.06991   0.07704   0.07824   0.08153

 Mulliken charges:
               1
     1  Mg   0.987894
     2  C    0.030900
     3  C   -0.071598
     4  C   -0.057380
     5  C   -0.105127
     6  N   -0.311355
     7  C   -0.008693
     8  C   -0.088263
     9  C   -0.082917
    10  C    0.047628
    11  C    0.016264
    12  C    0.051430
    13  C   -0.150858
    14  H    0.033111
    15  N   -0.450118
    16  C    0.180440
    17  C   -0.160756
    18  C   -0.082073
    19  C    0.134155
    20  C    0.055116
    21  C    0.056953
    22  O   -0.216150
    23  C   -0.009191
    24  N   -0.398437
    25  C    0.036453
    26  C   -0.083131
    27  C   -0.076553
    28  C    0.060711
    29  C    0.027395
    30  C   -0.005982
    31  C   -0.051462
    32  N   -0.527409
    33  C    0.158673
    34  C   -0.163718
    35  C   -0.041753
    36  C    0.162012
    37  C    0.081449
    38  C    0.128552
    39  O   -0.198674
    40  C   -0.130063
    41  C    0.252395
    42  O   -0.287000
    43  O   -0.341801
    44  C    0.147511
    45  H   -0.001477
    46  H    0.022780
    47  H   -0.006223
    48  H    0.039250
    49  H    0.035107
    50  H    0.032950
    51  H    0.038472
    52  H    0.025462
    53  H    0.023220
    54  H    0.069064
    55  H    0.048684
    56  H    0.037217
    57  H    0.022339
    58  H    0.055726
    59  H    0.037727
    60  H    0.076400
    61  H    0.034961
    62  H    0.053037
    63  H    0.040735
    64  H    0.042867
    65  H    0.048149
    66  H    0.047169
    67  H    0.024113
    68  H    0.039341
    69  H    0.022232
    70  H    0.040773
    71  H    0.045349
    72  H    0.042452
    73  H    0.065296
    74  H    0.051770
    75  H    0.044235
    76  H    0.067664
    77  H    0.058862
    78  H    0.052638
    79  H    0.073069
    80  Mg   0.957787
    81  C   -0.036534
    82  C   -0.091816
    83  C   -0.036347
    84  C   -0.103344
    85  N   -0.341106
    86  C   -0.038173
    87  C    0.005305
    88  C   -0.158161
    89  C    0.057740
    90  C    0.033637
    91  C    0.002342
    92  C   -0.148844
    93  H    0.024212
    94  N   -0.476136
    95  C    0.164503
    96  C   -0.173568
    97  C   -0.081266
    98  C    0.167402
    99  C    0.085928
   100  C    0.055508
   101  O   -0.240395
   102  C   -0.027157
   103  N   -0.273870
   104  C    0.045597
   105  C   -0.055720
   106  C   -0.126046
   107  C    0.077323
   108  C    0.014215
   109  C   -0.042007
   110  C   -0.039908
   111  N   -0.402087
   112  C    0.126755
   113  C   -0.185874
   114  C   -0.008884
   115  C    0.160955
   116  C    0.075246
   117  C    0.093674
   118  O   -0.217968
   119  C   -0.083357
   120  C    0.279685
   121  O   -0.209471
   122  O   -0.398046
   123  C    0.134737
   124  H   -0.011249
   125  H   -0.053594
   126  H    0.003093
   127  H    0.041218
   128  H    0.036439
   129  H    0.035642
   130  H    0.038382
   131  H    0.054738
   132  H    0.045663
   133  H    0.044327
   134  H    0.073132
   135  H    0.074387
   136  H    0.077784
   137  H    0.040410
   138  H    0.037018
   139  H    0.056750
   140  H    0.057138
   141  H    0.052572
   142  H    0.035605
   143  H    0.023438
   144  H    0.033268
   145  H    0.036244
   146  H    0.027280
   147  H    0.043280
   148  H    0.025190
   149  H    0.044135
   150  H    0.037949
   151  H    0.028260
   152  H    0.043181
   153  H    0.055234
   154  H    0.069904
   155  H    0.068292
   156  H    0.066121
   157  H    0.045074
   158  H    0.047240
 Sum of Mulliken charges =  -0.00000

 Dipole moment (field-independent basis, Debye):
    X=              4.9994    Y=              3.8862    Z=              2.8047  Tot=              6.9255
 Quadrupole moment (field-independent basis, Debye-Ang):
   XX=           -446.5478   YY=           -574.1058   ZZ=           -486.6115
   XY=            -30.4597   XZ=             -3.7524   YZ=            -33.9940

 Normal termination of Gaussian 16 at Sun Sep 19 10:01:19 2021.
