 Gaussian 16, Revision A.03,
 Gaussian 16:  ES64L-G16RevA.03 25-Dec-2016

 --------------------------------
 #p wB97XD/Def2SVP td=(nstates=5)
 --------------------------------

 --------------------------------
 TDDFT excited states in gaussian
 --------------------------------
 Symbolic Z-matrix:
 Charge =  0 Multiplicity = 1

                         Standard orientation:
 ---------------------------------------------------------------------
 Center     Atomic      Atomic             Coordinates (Angstroms)
 Number     Number       Type             X           Y           Z
 ---------------------------------------------------------------------
      1         12           0       26.095040    0.445115   -0.240234
      2          6           0       23.332790   -1.569348    0.045589
      3          6           0       28.027166   -2.150588    0.894067
      4          6           0       28.882821    2.500815   -0.414951
      5          6           0       24.050505    3.152893   -0.953100
      6          7           0       25.734501   -1.654791    0.463592
      7          6           0       24.505628   -2.245747    0.385694
      8          6           0       24.570198   -3.638688    0.789823
      9          6           0       25.993742   -3.853900    1.278932
     10          6           0       26.668983   -2.463544    0.901139
     11          6           0       26.225062   -4.242801    2.779994
     12          6           0       24.148038   -4.599872   -0.373120
     13          6           0       23.420438   -5.928991    0.029384
     14          1           0       23.749682   -6.520681    1.413992
     15          7           0       28.188141    0.139504    0.083034
     16          6           0       28.763725   -1.033978    0.539169
     17          6           0       30.222879   -0.836405    0.654566
     18          6           0       30.496682    0.544333    0.261643
     19          6           0       29.181962    1.121631   -0.068147
     20          6           0       31.202815   -1.892267    1.139539
     21          6           0       31.845394    1.203795    0.091665
     22          8           0       31.896987    2.372439   -0.330298
     23          6           0       33.144063    0.570986    0.426432
     24          7           0       26.431125    2.548656   -0.551164
     25          6           0       27.646537    3.098408   -0.626661
     26          6           0       27.554947    4.563195   -1.085717
     27          6           0       26.001945    4.755638   -1.523757
     28          6           0       25.469436    3.357756   -1.049281
     29          6           0       28.046758    5.539437    0.026957
     30          6           0       25.755557    4.951722   -3.044828
     31          6           0       25.254866    6.341906   -3.464451
     32          7           0       24.079399    0.800634   -0.363008
     33          6           0       23.368063    1.967911   -0.650226
     34          6           0       21.914400    1.691144   -0.652313
     35          6           0       21.900498    0.306546   -0.361593
     36          6           0       23.224614   -0.177743   -0.187746
     37          6           0       20.823129    2.597767   -0.946707
     38          6           0       21.006882   -0.866198   -0.265314
     39          8           0       19.821716   -0.983444   -0.430777
     40          6           0       21.909698   -2.112875    0.045165
     41          6           0       21.391076   -2.772950    1.253926
     42          8           0       21.531495   -2.241492    2.367193
     43          8           0       20.897432   -4.026071    1.056015
     44          6           0       20.549941   -4.834693    2.220290
     45          1           0       28.613960   -2.997184    1.256583
     46          1           0       29.767398    3.141351   -0.428263
     47          1           0       23.459545    4.000507   -1.306044
     48          1           0       23.881154   -3.776348    1.623823
     49          1           0       26.537882   -4.538753    0.627515
     50          1           0       25.394599   -4.391047    3.471016
     51          1           0       26.873708   -3.487858    3.223638
     52          1           0       26.838676   -5.134915    2.907746
     53          1           0       25.007508   -4.798182   -1.013613
     54          1           0       23.571890   -4.032824   -1.104050
     55          1           0       23.615216   -6.700930   -0.715647
     56          1           0       22.342803   -5.807491    0.135053
     57          1           0       30.748179   -2.872664    1.277530
     58          1           0       31.613678   -1.627992    2.114343
     59          1           0       31.926752   -2.117444    0.356601
     60          1           0       33.916176    1.269789    0.105953
     61          1           0       33.292487   -0.398617   -0.050699
     62          1           0       33.166365    0.329659    1.489285
     63          1           0       28.118013    4.636686   -2.016215
     64          1           0       25.499254    5.533428   -0.949020
     65          1           0       28.767196    6.276146   -0.328721
     66          1           0       28.533186    4.992728    0.835253
     67          1           0       27.127456    5.978966    0.414724
     68          1           0       25.038651    4.244170   -3.459703
     69          1           0       26.656174    4.763228   -3.629585
     70          1           0       25.610273    7.085653   -2.751178
     71          1           0       24.165874    6.329521   -3.432029
     72          1           0       25.554068    6.478889   -4.502776
     73          1           0       19.902412    2.078543   -1.211846
     74          1           0       21.050957    3.301195   -1.747331
     75          1           0       20.523260    3.066287   -0.009220
     76          1           0       21.769403   -2.698184   -0.864222
     77          1           0       19.709707   -4.450016    2.798975
     78          1           0       21.426675   -5.025399    2.839143
     79          1           0       20.204442   -5.814389    1.890619
     80         12           0      -26.348238   -0.213478    0.221599
     81          6           0      -23.006947   -0.977466   -0.204461
     82          6           0      -25.569743    1.019532    3.339925
     83          6           0      -29.522313    1.085274    0.415747
     84          6           0      -27.025815   -1.362558   -2.951994
     85          7           0      -24.493853    0.177819    1.336843
     86          6           0      -23.252811   -0.300995    0.965847
     87          6           0      -22.190611   -0.006723    2.021757
     88          6           0      -23.089635    0.316284    3.272976
     89          6           0      -24.437326    0.560848    2.610025
     90          6           0      -23.089393   -0.740530    4.468540
     91          6           0      -21.133451    1.084359    1.658581
     92          6           0      -19.694819    0.739050    1.980549
     93          1           0      -19.144676    1.580800    3.121427
     94          7           0      -27.347799    0.893761    1.668287
     95          6           0      -26.880918    1.269295    2.864400
     96          6           0      -27.918663    1.926215    3.640133
     97          6           0      -29.089465    2.006573    2.904792
     98          6           0      -28.695247    1.365086    1.577605
     99          6           0      -27.648846    2.541773    5.094904
    100          6           0      -30.473408    2.557660    3.388006
    101          8           0      -30.552136    3.069295    4.540673
    102          6           0      -31.671230    2.541779    2.517610
    103          7           0      -28.035258    0.078542   -1.216205
    104          6           0      -29.236022    0.462832   -0.848967
    105          6           0      -30.305447    0.091544   -1.854904
    106          6           0      -29.574369   -0.630188   -3.037361
    107          6           0      -28.119326   -0.735260   -2.371872
    108          6           0      -31.663120   -0.507577   -1.367066
    109          6           0      -29.518852    0.022303   -4.449111
    110          6           0      -29.160708   -0.962884   -5.542514
    111          7           0      -25.225503   -1.015572   -1.316658
    112          6           0      -25.654893   -1.532675   -2.560800
    113          6           0      -24.520968   -2.144416   -3.198330
    114          6           0      -23.433377   -1.993162   -2.303911
    115          6           0      -23.941291   -1.270285   -1.228062
    116          6           0      -24.543178   -3.014661   -4.446131
    117          6           0      -22.101591   -2.312199   -2.150046
    118          8           0      -21.252072   -2.802764   -2.842671
    119          6           0      -21.689907   -1.523504   -0.800504
    120          6           0      -20.970187   -0.275925   -1.310504
    121          8           0      -21.506821    0.731936   -1.728620
    122          8           0      -19.611964   -0.534006   -1.218899
    123          6           0      -18.729808    0.494488   -1.760787
    124          1           0      -25.430594    1.240466    4.400094
    125          1           0      -30.518658    1.510785    0.550173
    126          1           0      -27.118227   -1.887276   -3.905177
    127          1           0      -21.681853   -0.944915    2.241351
    128          1           0      -22.823895    1.324446    3.593004
    129          1           0      -24.047841   -0.531566    4.943612
    130          1           0      -22.371958   -0.521793    5.259841
    131          1           0      -22.978824   -1.790413    4.197552
    132          1           0      -21.453511    1.943404    2.248596
    133          1           0      -21.207426    1.534191    0.668705
    134          1           0      -19.114391    0.892947    1.070582
    135          1           0      -19.573441   -0.299674    2.288463
    136          1           0      -26.620482    2.462234    5.449898
    137          1           0      -28.296837    2.071447    5.835254
    138          1           0      -27.771909    3.623316    5.130986
    139          1           0      -31.905076    1.514581    2.239611
    140          1           0      -31.586533    3.262454    1.704143
    141          1           0      -32.492120    2.756775    3.200601
    142          1           0      -30.705840    0.918461   -2.441777
    143          1           0      -29.798140   -1.696467   -3.077792
    144          1           0      -31.688027   -0.348280   -0.288174
    145          1           0      -31.833384   -1.535252   -1.690054
    146          1           0      -32.543387    0.011775   -1.746158
    147          1           0      -28.826426    0.859809   -4.365161
    148          1           0      -30.505211    0.468579   -4.575320
    149          1           0      -29.660019   -0.634894   -6.454565
    150          1           0      -29.466808   -1.993803   -5.360818
    151          1           0      -28.098393   -0.870286   -5.768521
    152          1           0      -23.606336   -3.538662   -4.635689
    153          1           0      -24.814852   -2.377250   -5.286561
    154          1           0      -25.319717   -3.777026   -4.382755
    155          1           0      -21.145872   -2.170737   -0.111909
    156          1           0      -18.873747    0.564817   -2.839076
    157          1           0      -17.687438    0.312471   -1.501428
    158          1           0      -19.022146    1.466999   -1.365735
 ---------------------------------------------------------------------

 SCF Done:  E(RwB97XD) =  -4070.64907981     A.U. after   19 cycles

 Excitation energies and oscillator strengths:

 Excited State   1:      Singlet-A      1.6697 eV  742.57 nm  f=0.3889  <S**2>=0.000
     310 -> 316        0.19474
     312 -> 314        0.68026
     310 <- 316        0.11869
 This state for optimization and/or second-order correction.
 Total Energy, E(TD-HF/TD-DFT) =  -4070.58772046
 Copying the excited state density for this state as the 1-particle RhoCI density.

 Excited State   2:      Singlet-A      1.8712 eV  662.61 nm  f=0.3743  <S**2>=0.000
     309 -> 315        0.14189
     311 -> 313        0.68597

 Excited State   3:      Singlet-A      2.1969 eV  564.36 nm  f=0.0831  <S**2>=0.000
     310 -> 314        0.62407
     312 -> 316       -0.31820

 Excited State   4:      Singlet-A      2.2254 eV  557.12 nm  f=0.1259  <S**2>=0.000
     309 -> 313        0.64385
     311 -> 315       -0.24649
     311 -> 317        0.10816

 Excited State   5:      Singlet-A      3.4245 eV  362.05 nm  f=0.1935  <S**2>=0.000
     306 -> 314        0.53313
     310 -> 314        0.16271
     312 -> 316        0.41086

 The electronic state is 1-A.
 Alpha  occ. eigenvalues --  -46.95740 -46.95212 -19.31175 -19.29672 -19.25337
 Alpha  occ. eigenvalues --  -19.24717 -19.24247 -19.24075 -19.23398 -19.22639
 Alpha  occ. eigenvalues --  -14.46906 -14.46620 -14.46393 -14.46276 -14.45212
 Alpha  occ. eigenvalues --  -14.44109 -14.43820 -14.43003 -10.43405 -10.42876
 Alpha  occ. eigenvalues --  -10.41094 -10.38924 -10.38859 -10.37336 -10.37280
 Alpha  occ. eigenvalues --  -10.36517 -10.36059 -10.35820 -10.35242 -10.34910
 Alpha  occ. eigenvalues --  -10.34832 -10.34680 -10.34653 -10.34408 -10.34341
 Alpha  occ. eigenvalues --  -10.34109 -10.34075 -10.34060 -10.33940 -10.33760
 Alpha  occ. eigenvalues --  -10.33379 -10.33332 -10.33278 -10.32664 -10.32507
 Alpha  occ. eigenvalues --  -10.32481 -10.32406 -10.32317 -10.32292 -10.32227
 Alpha  occ. eigenvalues --  -10.32201 -10.32110 -10.32045 -10.31954 -10.31880
 Alpha  occ. eigenvalues --  -10.31646 -10.31555 -10.31420 -10.31419 -10.31353
 Alpha  occ. eigenvalues --  -10.31321 -10.31241 -10.31168 -10.31096 -10.31047
 Alpha  occ. eigenvalues --  -10.31027 -10.31020 -10.30935 -10.30816 -10.30776
 Alpha  occ. eigenvalues --  -10.30771 -10.30760 -10.30513 -10.30480 -10.30088
 Alpha  occ. eigenvalues --  -10.29959 -10.29920 -10.29916 -10.29912 -10.29869
 Alpha  occ. eigenvalues --  -10.29623 -10.29350 -10.29303 -10.29148 -10.29074
 Alpha  occ. eigenvalues --  -10.26983  -3.21636  -3.21081  -1.95205  -1.94760
 Alpha  occ. eigenvalues --   -1.94691  -1.94605  -1.94186  -1.94057  -1.18602
 Alpha  occ. eigenvalues --   -1.17538  -1.13175  -1.11922  -1.11434  -1.11124
 Alpha  occ. eigenvalues --   -1.10016  -1.09299  -1.07103  -1.06597  -1.06046
 Alpha  occ. eigenvalues --   -1.05863  -1.05384  -1.05272  -1.04532  -1.02994
 Alpha  occ. eigenvalues --   -0.94442  -0.93457  -0.91024  -0.90998  -0.90340
 Alpha  occ. eigenvalues --   -0.90157  -0.89942  -0.89581  -0.89117  -0.88994
 Alpha  occ. eigenvalues --   -0.88691  -0.88648  -0.88200  -0.87706  -0.86397
 Alpha  occ. eigenvalues --   -0.85874  -0.85536  -0.85438  -0.85117  -0.84195
 Alpha  occ. eigenvalues --   -0.83980  -0.83780  -0.83141  -0.82607  -0.82499
 Alpha  occ. eigenvalues --   -0.82140  -0.80393  -0.79581  -0.79476  -0.79232
 Alpha  occ. eigenvalues --   -0.79091  -0.78630  -0.78139  -0.77251  -0.77079
 Alpha  occ. eigenvalues --   -0.76807  -0.74585  -0.74345  -0.73667  -0.73477
 Alpha  occ. eigenvalues --   -0.71653  -0.71156  -0.71090  -0.70256  -0.70008
 Alpha  occ. eigenvalues --   -0.69836  -0.69359  -0.68914  -0.67763  -0.67536
 Alpha  occ. eigenvalues --   -0.67386  -0.67329  -0.67034  -0.66689  -0.66318
 Alpha  occ. eigenvalues --   -0.66018  -0.64699  -0.63656  -0.62024  -0.61826
 Alpha  occ. eigenvalues --   -0.61553  -0.61414  -0.61203  -0.61025  -0.60702
 Alpha  occ. eigenvalues --   -0.60459  -0.60204  -0.59749  -0.59312  -0.59267
 Alpha  occ. eigenvalues --   -0.58454  -0.58031  -0.57819  -0.57395  -0.57342
 Alpha  occ. eigenvalues --   -0.56956  -0.56659  -0.56076  -0.55907  -0.55904
 Alpha  occ. eigenvalues --   -0.55651  -0.55385  -0.55259  -0.55100  -0.54866
 Alpha  occ. eigenvalues --   -0.54714  -0.54688  -0.54332  -0.54137  -0.53937
 Alpha  occ. eigenvalues --   -0.53539  -0.53487  -0.53401  -0.53224  -0.53059
 Alpha  occ. eigenvalues --   -0.52962  -0.52655  -0.52485  -0.52122  -0.52120
 Alpha  occ. eigenvalues --   -0.51950  -0.51901  -0.51797  -0.51731  -0.51394
 Alpha  occ. eigenvalues --   -0.51281  -0.50971  -0.50918  -0.50599  -0.50444
 Alpha  occ. eigenvalues --   -0.50387  -0.50367  -0.50116  -0.50003  -0.49841
 Alpha  occ. eigenvalues --   -0.49511  -0.49395  -0.49268  -0.49157  -0.49148
 Alpha  occ. eigenvalues --   -0.49051  -0.48630  -0.48491  -0.48173  -0.48106
 Alpha  occ. eigenvalues --   -0.48025  -0.47906  -0.47801  -0.47616  -0.47434
 Alpha  occ. eigenvalues --   -0.47143  -0.47116  -0.47098  -0.46949  -0.46832
 Alpha  occ. eigenvalues --   -0.46785  -0.46587  -0.46460  -0.46247  -0.46245
 Alpha  occ. eigenvalues --   -0.45836  -0.45745  -0.45548  -0.45492  -0.45389
 Alpha  occ. eigenvalues --   -0.45300  -0.45082  -0.45073  -0.44946  -0.44760
 Alpha  occ. eigenvalues --   -0.44531  -0.44443  -0.44434  -0.44075  -0.44060
 Alpha  occ. eigenvalues --   -0.43964  -0.43781  -0.43487  -0.43366  -0.43125
 Alpha  occ. eigenvalues --   -0.42826  -0.42635  -0.42570  -0.42323  -0.42233
 Alpha  occ. eigenvalues --   -0.42068  -0.41851  -0.41751  -0.41401  -0.41217
 Alpha  occ. eigenvalues --   -0.40869  -0.40074  -0.39991  -0.39410  -0.39260
 Alpha  occ. eigenvalues --   -0.39190  -0.38767  -0.38692  -0.38585  -0.38301
 Alpha  occ. eigenvalues --   -0.37921  -0.37262  -0.36372  -0.36128  -0.36012
 Alpha  occ. eigenvalues --   -0.35904  -0.35352  -0.35323  -0.34466  -0.34116
 Alpha  occ. eigenvalues --   -0.33268  -0.33053  -0.32883  -0.32688  -0.32219
 Alpha  occ. eigenvalues --   -0.31689  -0.31588  -0.31144  -0.26038  -0.25786
 Alpha  occ. eigenvalues --   -0.23338  -0.22594
 Alpha virt. eigenvalues --   -0.06724  -0.06642   0.00163   0.00196   0.02194
 Alpha virt. eigenvalues --    0.02600   0.04108   0.04697   0.04943   0.06131
 Alpha virt. eigenvalues --    0.06623   0.07634   0.07953   0.08199   0.08676

 Mulliken charges:
               1
     1  Mg   0.952682
     2  C   -0.030101
     3  C   -0.087668
     4  C   -0.053733
     5  C   -0.079097
     6  N   -0.317168
     7  C   -0.008915
     8  C   -0.054190
     9  C   -0.041527
    10  C   -0.009073
    11  C    0.019980
    12  C    0.021218
    13  C   -0.115158
    14  H    0.015616
    15  N   -0.461354
    16  C    0.197396
    17  C   -0.169641
    18  C   -0.061121
    19  C    0.119885
    20  C    0.061169
    21  C    0.038379
    22  O   -0.262818
    23  C    0.013562
    24  N   -0.333174
    25  C    0.064225
    26  C   -0.091922
    27  C   -0.098941
    28  C    0.041347
    29  C    0.031137
    30  C   -0.015250
    31  C   -0.053807
    32  N   -0.449430
    33  C    0.129927
    34  C   -0.162297
    35  C   -0.055454
    36  C    0.145147
    37  C    0.075964
    38  C    0.096428
    39  O   -0.183860
    40  C   -0.042056
    41  C    0.280582
    42  O   -0.276085
    43  O   -0.352429
    44  C    0.141010
    45  H   -0.023834
    46  H    0.028205
    47  H   -0.002387
    48  H    0.045959
    49  H    0.034456
    50  H    0.048885
    51  H    0.031130
    52  H    0.026860
    53  H    0.018625
    54  H    0.024813
    55  H    0.055081
    56  H    0.067014
    57  H    0.025629
    58  H    0.064198
    59  H    0.051429
    60  H    0.063656
    61  H    0.041573
    62  H    0.053057
    63  H    0.040543
    64  H    0.038362
    65  H    0.048227
    66  H    0.046051
    67  H    0.029726
    68  H    0.031762
    69  H    0.025729
    70  H    0.040585
    71  H    0.032186
    72  H    0.041543
    73  H    0.049786
    74  H    0.047519
    75  H    0.057508
    76  H    0.066895
    77  H    0.067236
    78  H    0.052474
    79  H    0.050137
    80  Mg   0.966536
    81  C   -0.041464
    82  C   -0.128717
    83  C   -0.109091
    84  C   -0.042040
    85  N   -0.332988
    86  C   -0.011407
    87  C   -0.074743
    88  C   -0.075935
    89  C    0.063441
    90  C    0.034894
    91  C    0.028273
    92  C   -0.107132
    93  H    0.024775
    94  N   -0.466198
    95  C    0.186158
    96  C   -0.153043
    97  C   -0.065480
    98  C    0.142202
    99  C    0.072374
   100  C    0.052385
   101  O   -0.253989
   102  C    0.003606
   103  N   -0.330960
   104  C    0.128643
   105  C   -0.083494
   106  C   -0.090919
   107  C    0.027179
   108  C    0.020526
   109  C    0.009809
   110  C   -0.034500
   111  N   -0.438459
   112  C    0.046313
   113  C   -0.148219
   114  C    0.002709
   115  C    0.157807
   116  C    0.059529
   117  C    0.057951
   118  O   -0.195134
   119  C   -0.117708
   120  C    0.296813
   121  O   -0.238831
   122  O   -0.364129
   123  C    0.141266
   124  H   -0.003539
   125  H   -0.019494
   126  H   -0.016894
   127  H    0.023293
   128  H    0.032777
   129  H    0.025013
   130  H    0.044694
   131  H    0.053879
   132  H    0.020250
   133  H    0.052799
   134  H    0.048258
   135  H    0.048689
   136  H    0.019577
   137  H    0.064623
   138  H    0.059454
   139  H    0.061885
   140  H    0.091278
   141  H    0.055059
   142  H    0.038389
   143  H    0.031567
   144  H    0.030247
   145  H    0.041592
   146  H    0.029142
   147  H    0.042118
   148  H    0.025805
   149  H    0.032449
   150  H    0.043059
   151  H    0.051694
   152  H    0.058578
   153  H    0.038065
   154  H    0.040746
   155  H    0.054842
   156  H    0.058152
   157  H    0.060977
   158  H    0.042371
 Sum of Mulliken charges =  -0.00000

 Dipole moment (field-independent basis, Debye):
    X=             -1.7714    Y=             -2.8125    Z=              0.5319  Tot=              3.3661
 Quadrupole moment (field-independent basis, Debye-Ang):
   XX=           -162.7866   YY=           -487.6111   ZZ=           -507.3954
   XY=            -69.2728   XZ=            -12.2939   YZ=            -23.5838

 Normal termination of Gaussian 16 at Sun Sep 19 23:07:27 2021.
