 Gaussian 16, Revision A.03,
 Gaussian 16:  ES64L-G16RevA.03 25-Dec-2016

 --------------------------------
 #p wB97XD/Def2SVP td=(nstates=5)
 --------------------------------

 --------------------------------
 TDDFT excited states in gaussian
 --------------------------------
 Symbolic Z-matrix:
 Charge =  0 Multiplicity = 1

                         Standard orientation:
 ---------------------------------------------------------------------
 Center     Atomic      Atomic             Coordinates (Angstroms)
 Number     Number       Type             X           Y           Z
 ---------------------------------------------------------------------
      1         12           0      -13.010299   -0.563902    0.350460
      2          6           0      -13.498898    2.470433   -1.261513
      3          6           0      -11.952153    1.055944    3.112805
      4          6           0      -12.411641   -3.552536    1.734136
      5          6           0      -13.969441   -2.156003   -2.617239
      6          7           0      -12.807108    1.565355    0.809216
      7          6           0      -13.134490    2.606739    0.082173
      8          6           0      -12.867399    3.912340    0.963956
      9          6           0      -11.759999    3.358061    1.835104
     10          6           0      -12.207503    1.869076    1.983397
     11          6           0      -10.386631    3.594868    1.170654
     12          6           0      -14.224526    4.455072    1.587578
     13          6           0      -14.179896    5.919216    2.035530
     14          1           0      -12.839081    6.631788    2.076063
     15          7           0      -12.461470   -1.159731    2.204462
     16          6           0      -12.132961   -0.305950    3.254831
     17          6           0      -12.008316   -1.138660    4.488611
     18          6           0      -12.078411   -2.538594    4.081435
     19          6           0      -12.246921   -2.415302    2.609079
     20          6           0      -11.778732   -0.543574    5.857696
     21          6           0      -12.046252   -3.889627    4.934632
     22          8           0      -12.193896   -5.014129    4.444141
     23          6           0      -11.839667   -3.739792    6.427442
     24          7           0      -13.055350   -2.509683   -0.352221
     25          6           0      -12.756345   -3.573817    0.388020
     26          6           0      -12.785747   -4.904243   -0.425867
     27          6           0      -13.510203   -4.427173   -1.692795
     28          6           0      -13.583959   -2.939241   -1.551717
     29          6           0      -11.390672   -5.539705   -0.682080
     30          6           0      -14.858229   -5.162503   -2.118172
     31          6           0      -16.144240   -4.453112   -1.847658
     32          7           0      -13.417644   -0.020053   -1.626256
     33          6           0      -13.847242   -0.743071   -2.687670
     34          6           0      -14.096407    0.048396   -3.839379
     35          6           0      -13.974981    1.376105   -3.321164
     36          6           0      -13.579502    1.222789   -2.011961
     37          6           0      -14.422524   -0.264593   -5.276704
     38          6           0      -14.076582    2.780571   -3.584900
     39          8           0      -14.363414    3.398982   -4.587188
     40          6           0      -13.930956    3.568121   -2.243847
     41          6           0      -12.947682    4.642721   -2.409766
     42          8           0      -11.779486    4.423767   -2.692173
     43          8           0      -13.511709    5.944028   -2.393855
     44          6           0      -12.585624    7.052503   -2.673967
     45          1           0      -11.553898    1.614031    3.961426
     46          1           0      -12.166173   -4.508223    2.200326
     47          1           0      -14.215099   -2.687578   -3.538567
     48          1           0      -12.536604    4.728133    0.322596
     49          1           0      -11.750899    3.747479    2.852819
     50          1           0       -9.925124    4.311431    1.850938
     51          1           0      -10.465519    4.016068    0.167558
     52          1           0       -9.844678    2.654034    1.264096
     53          1           0      -14.498754    3.862294    2.460682
     54          1           0      -14.945270    4.406743    0.770976
     55          1           0      -14.631793    5.953680    3.026366
     56          1           0      -14.849648    6.469368    1.375025
     57          1           0      -12.274480    0.422371    5.960600
     58          1           0      -10.744953   -0.416568    6.177413
     59          1           0      -12.266028   -1.182064    6.594412
     60          1           0      -10.949380   -3.115272    6.497470
     61          1           0      -11.607987   -4.667744    6.949450
     62          1           0      -12.735897   -3.319318    6.883889
     63          1           0      -13.368014   -5.670260    0.086039
     64          1           0      -12.773798   -4.507292   -2.491579
     65          1           0      -11.415167   -5.862368   -1.723223
     66          1           0      -11.097305   -6.365170   -0.035362
     67          1           0      -10.637851   -4.775859   -0.487211
     68          1           0      -14.844941   -6.170107   -1.702491
     69          1           0      -14.880840   -5.254680   -3.203794
     70          1           0      -16.572775   -4.179153   -2.812005
     71          1           0      -16.062447   -3.461283   -1.401332
     72          1           0      -16.895291   -5.055630   -1.336663
     73          1           0      -14.389860   -1.334157   -5.487208
     74          1           0      -13.788383    0.342701   -5.923236
     75          1           0      -15.445452   -0.066616   -5.597620
     76          1           0      -14.875609    4.011567   -1.930181
     77          1           0      -12.988450    8.047893   -2.488428
     78          1           0      -12.360404    6.921552   -3.732725
     79          1           0      -11.685435    6.825458   -2.104029
     80         12           0       12.657289   -0.696722   -0.441952
     81          6           0       14.614088    2.137271    0.015554
     82          6           0        9.922475    1.335519    0.206477
     83          6           0       10.773381   -3.527425   -0.376729
     84          6           0       15.528842   -2.570183   -0.889416
     85          7           0       12.322309    1.479023    0.108628
     86          6           0       13.272618    2.483917    0.207191
     87          6           0       12.681544    3.879059    0.652256
     88          6           0       11.206303    3.444794    1.005461
     89          6           0       11.128663    1.976467    0.446144
     90          6           0       10.704440    3.454745    2.452368
     91          6           0       12.836799    4.923957   -0.467885
     92          6           0       13.868825    6.001497   -0.262980
     93          1           0       13.515579    7.407447   -0.779785
     94          7           0       10.621685   -1.073531   -0.328110
     95          6           0        9.709112   -0.082386   -0.142312
     96          6           0        8.398800   -0.759764   -0.091002
     97          6           0        8.604673   -2.146887   -0.151809
     98          6           0        9.996165   -2.328969   -0.301605
     99          6           0        7.143542    0.014463   -0.107891
    100          6           0        7.621585   -3.276198   -0.051156
    101          8           0        7.930999   -4.486377   -0.233752
    102          6           0        6.244909   -3.106796    0.293128
    103          7           0       13.063248   -2.694645   -0.683516
    104          6           0       12.126244   -3.681167   -0.646874
    105          6           0       12.686458   -5.037056   -0.826812
    106          6           0       14.213969   -4.750507   -1.055781
    107          6           0       14.271845   -3.290433   -0.805480
    108          6           0       12.481638   -6.188738    0.200908
    109          6           0       14.811522   -5.269240   -2.455882
    110          6           0       14.718468   -4.448529   -3.776455
    111          7           0       14.666277   -0.375284   -0.411455
    112          6           0       15.715612   -1.216392   -0.646335
    113          6           0       16.903045   -0.487103   -0.752879
    114          6           0       16.491361    0.855438   -0.399499
    115          6           0       15.120803    0.859988   -0.232942
    116          6           0       18.286475   -0.995498   -1.154237
    117          6           0       16.999289    2.194868   -0.319334
    118          8           0       18.071301    2.715774   -0.551264
    119          6           0       15.793784    3.057513    0.194693
    120          6           0       16.013158    3.436805    1.604541
    121          8           0       15.351798    3.045243    2.591220
    122          8           0       17.056900    4.270959    1.804178
    123          6           0       17.243896    4.920036    3.146575
    124          1           0        9.073028    1.966387    0.474108
    125          1           0       10.230382   -4.473883   -0.329852
    126          1           0       16.458229   -3.058632   -1.191263
    127          1           0       13.017469    4.168284    1.648600
    128          1           0       10.563894    4.080960    0.396684
    129          1           0       10.556619    2.434081    2.806006
    130          1           0        9.686072    3.838716    2.414645
    131          1           0       11.324413    4.003931    3.161820
    132          1           0       11.875509    5.437507   -0.508670
    133          1           0       12.959386    4.392930   -1.411856
    134          1           0       14.777268    5.683485   -0.775223
    135          1           0       14.198683    6.147953    0.765632
    136          1           0        6.647008   -0.282861   -1.030653
    137          1           0        7.180137    1.103771   -0.065015
    138          1           0        6.517112   -0.289370    0.730743
    139          1           0        6.244488   -2.411168    1.131885
    140          1           0        5.747013   -4.071188    0.385229
    141          1           0        5.715003   -2.541371   -0.473462
    142          1           0       12.189363   -5.304754   -1.758737
    143          1           0       14.789849   -5.209873   -0.253247
    144          1           0       11.882346   -7.001660   -0.209197
    145          1           0       11.939400   -5.840067    1.080485
    146          1           0       13.415536   -6.585626    0.598759
    147          1           0       14.223773   -6.170795   -2.629962
    148          1           0       15.827896   -5.522393   -2.153849
    149          1           0       14.361133   -3.424973   -3.666554
    150          1           0       14.239677   -4.948765   -4.618733
    151          1           0       15.750291   -4.413750   -4.123602
    152          1           0       19.036560   -0.779614   -0.392683
    153          1           0       18.594124   -0.440248   -2.040175
    154          1           0       18.317118   -2.046086   -1.444270
    155          1           0       15.838754    4.016007   -0.322669
    156          1           0       17.952885    5.682370    2.823342
    157          1           0       17.638270    4.267394    3.924745
    158          1           0       16.293971    5.328812    3.492415
 ---------------------------------------------------------------------

 SCF Done:  E(RwB97XD) =  -4070.62293333     A.U. after   19 cycles

 Excitation energies and oscillator strengths:

 Excited State   1:      Singlet-A      1.6444 eV  753.96 nm  f=0.3926  <S**2>=0.000
     310 -> 316        0.18296
     312 -> 314        0.68231
     310 <- 316        0.11714
 This state for optimization and/or second-order correction.
 Total Energy, E(TD-HF/TD-DFT) =  -4070.56250153
 Copying the excited state density for this state as the 1-particle RhoCI density.

 Excited State   2:      Singlet-A      1.6906 eV  733.38 nm  f=0.3862  <S**2>=0.000
     309 -> 315        0.18162
     311 -> 313        0.68393
     309 <- 315        0.11469

 Excited State   3:      Singlet-A      2.1515 eV  576.26 nm  f=0.1233  <S**2>=0.000
     310 -> 314        0.64793
     312 -> 316       -0.26424

 Excited State   4:      Singlet-A      2.1646 eV  572.79 nm  f=0.1573  <S**2>=0.000
     309 -> 313        0.65146
     311 -> 315       -0.26015

 Excited State   5:      Singlet-A      3.3482 eV  370.30 nm  f=0.0040  <S**2>=0.000
     305 -> 314       -0.19174
     308 -> 314        0.65641

 The electronic state is 1-A.
 Alpha  occ. eigenvalues --  -46.94171 -46.93873 -19.29262 -19.29201 -19.25622
 Alpha  occ. eigenvalues --  -19.24460 -19.23268 -19.23193 -19.22991 -19.22966
 Alpha  occ. eigenvalues --  -14.46663 -14.46604 -14.46445 -14.46080 -14.44803
 Alpha  occ. eigenvalues --  -14.44146 -14.43249 -14.42947 -10.42776 -10.42357
 Alpha  occ. eigenvalues --  -10.41340 -10.38462 -10.38181 -10.38130 -10.35753
 Alpha  occ. eigenvalues --  -10.35467 -10.35304 -10.35190 -10.34999 -10.34847
 Alpha  occ. eigenvalues --  -10.34790 -10.34697 -10.34665 -10.34627 -10.34505
 Alpha  occ. eigenvalues --  -10.34484 -10.34128 -10.34078 -10.33847 -10.33285
 Alpha  occ. eigenvalues --  -10.32872 -10.32803 -10.32670 -10.32532 -10.32506
 Alpha  occ. eigenvalues --  -10.32323 -10.32266 -10.32218 -10.32099 -10.32085
 Alpha  occ. eigenvalues --  -10.32076 -10.31882 -10.31859 -10.31706 -10.31699
 Alpha  occ. eigenvalues --  -10.31653 -10.31642 -10.31414 -10.31395 -10.31348
 Alpha  occ. eigenvalues --  -10.31323 -10.31319 -10.31128 -10.31117 -10.31082
 Alpha  occ. eigenvalues --  -10.31036 -10.30830 -10.30826 -10.30806 -10.30793
 Alpha  occ. eigenvalues --  -10.30769 -10.30276 -10.30189 -10.29952 -10.29904
 Alpha  occ. eigenvalues --  -10.29853 -10.29778 -10.29689 -10.29646 -10.29635
 Alpha  occ. eigenvalues --  -10.29598 -10.29524 -10.29507 -10.28650 -10.28338
 Alpha  occ. eigenvalues --  -10.28223  -3.20336  -3.20001  -1.93946  -1.93606
 Alpha  occ. eigenvalues --   -1.93432  -1.93360  -1.93134  -1.92980  -1.17287
 Alpha  occ. eigenvalues --   -1.16689  -1.12814  -1.11828  -1.11756  -1.10141
 Alpha  occ. eigenvalues --   -1.08994  -1.07638  -1.07256  -1.06877  -1.06794
 Alpha  occ. eigenvalues --   -1.06227  -1.06111  -1.05287  -1.05246  -1.04277
 Alpha  occ. eigenvalues --   -0.95065  -0.94142  -0.91144  -0.90882  -0.90503
 Alpha  occ. eigenvalues --   -0.90327  -0.90266  -0.90198  -0.89530  -0.89323
 Alpha  occ. eigenvalues --   -0.89092  -0.88926  -0.88222  -0.88040  -0.86275
 Alpha  occ. eigenvalues --   -0.86267  -0.85564  -0.85558  -0.84752  -0.84724
 Alpha  occ. eigenvalues --   -0.84567  -0.84336  -0.82939  -0.82920  -0.82491
 Alpha  occ. eigenvalues --   -0.82092  -0.80640  -0.80516  -0.79417  -0.79196
 Alpha  occ. eigenvalues --   -0.78772  -0.78627  -0.78128  -0.77820  -0.77227
 Alpha  occ. eigenvalues --   -0.77052  -0.75084  -0.74857  -0.73310  -0.73210
 Alpha  occ. eigenvalues --   -0.72016  -0.71174  -0.70786  -0.70719  -0.69961
 Alpha  occ. eigenvalues --   -0.69946  -0.69098  -0.68717  -0.67128  -0.67076
 Alpha  occ. eigenvalues --   -0.67014  -0.66631  -0.66618  -0.66363  -0.66236
 Alpha  occ. eigenvalues --   -0.66016  -0.63472  -0.63303  -0.62742  -0.61950
 Alpha  occ. eigenvalues --   -0.61602  -0.61601  -0.61174  -0.61138  -0.60583
 Alpha  occ. eigenvalues --   -0.60064  -0.60005  -0.59720  -0.59625  -0.59284
 Alpha  occ. eigenvalues --   -0.58145  -0.57888  -0.57707  -0.57551  -0.57407
 Alpha  occ. eigenvalues --   -0.56867  -0.56731  -0.56339  -0.55940  -0.55767
 Alpha  occ. eigenvalues --   -0.55628  -0.55381  -0.55184  -0.55003  -0.54832
 Alpha  occ. eigenvalues --   -0.54635  -0.54446  -0.54373  -0.54287  -0.54138
 Alpha  occ. eigenvalues --   -0.53956  -0.53803  -0.53789  -0.53187  -0.52999
 Alpha  occ. eigenvalues --   -0.52790  -0.52766  -0.52749  -0.52288  -0.52278
 Alpha  occ. eigenvalues --   -0.52085  -0.51875  -0.51709  -0.51562  -0.51463
 Alpha  occ. eigenvalues --   -0.51361  -0.51162  -0.51036  -0.50904  -0.50842
 Alpha  occ. eigenvalues --   -0.50710  -0.50535  -0.50458  -0.50355  -0.50087
 Alpha  occ. eigenvalues --   -0.49829  -0.49802  -0.49698  -0.49365  -0.49166
 Alpha  occ. eigenvalues --   -0.48846  -0.48689  -0.48454  -0.48402  -0.48225
 Alpha  occ. eigenvalues --   -0.48156  -0.47991  -0.47915  -0.47752  -0.47603
 Alpha  occ. eigenvalues --   -0.47499  -0.47300  -0.47178  -0.47082  -0.46910
 Alpha  occ. eigenvalues --   -0.46696  -0.46631  -0.46311  -0.46171  -0.45982
 Alpha  occ. eigenvalues --   -0.45932  -0.45892  -0.45815  -0.45694  -0.45487
 Alpha  occ. eigenvalues --   -0.45344  -0.45316  -0.45209  -0.44984  -0.44833
 Alpha  occ. eigenvalues --   -0.44684  -0.44482  -0.44388  -0.44079  -0.43800
 Alpha  occ. eigenvalues --   -0.43516  -0.43407  -0.43353  -0.43027  -0.43013
 Alpha  occ. eigenvalues --   -0.42909  -0.42683  -0.42469  -0.42230  -0.42144
 Alpha  occ. eigenvalues --   -0.42002  -0.41925  -0.41586  -0.41158  -0.40824
 Alpha  occ. eigenvalues --   -0.40252  -0.40128  -0.40028  -0.39803  -0.39497
 Alpha  occ. eigenvalues --   -0.38842  -0.38694  -0.38534  -0.38383  -0.38178
 Alpha  occ. eigenvalues --   -0.37677  -0.37607  -0.36493  -0.36300  -0.35946
 Alpha  occ. eigenvalues --   -0.35491  -0.35443  -0.34756  -0.34250  -0.33440
 Alpha  occ. eigenvalues --   -0.33209  -0.32770  -0.32539  -0.32209  -0.32151
 Alpha  occ. eigenvalues --   -0.31923  -0.31746  -0.31482  -0.25875  -0.25548
 Alpha  occ. eigenvalues --   -0.23266  -0.22911
 Alpha virt. eigenvalues --   -0.07226  -0.07040   0.00610   0.00616   0.01952
 Alpha virt. eigenvalues --    0.02757   0.04466   0.04524   0.06555   0.06641
 Alpha virt. eigenvalues --    0.06921   0.07495   0.07985   0.08091   0.08423

 Mulliken charges:
               1
     1  Mg   0.985845
     2  C   -0.033951
     3  C   -0.089474
     4  C   -0.081496
     5  C   -0.113296
     6  N   -0.312407
     7  C   -0.022163
     8  C   -0.084735
     9  C   -0.106275
    10  C    0.035635
    11  C    0.056904
    12  C    0.017379
    13  C   -0.109380
    14  H    0.037302
    15  N   -0.477390
    16  C    0.190064
    17  C   -0.158498
    18  C   -0.108866
    19  C    0.127364
    20  C    0.049068
    21  C    0.101636
    22  O   -0.227568
    23  C   -0.029448
    24  N   -0.378897
    25  C    0.081026
    26  C   -0.097530
    27  C   -0.032787
    28  C    0.053476
    29  C    0.021171
    30  C   -0.006254
    31  C   -0.048570
    32  N   -0.374827
    33  C    0.116106
    34  C   -0.174719
    35  C   -0.023348
    36  C    0.102240
    37  C    0.084887
    38  C    0.096513
    39  O   -0.204547
    40  C   -0.019809
    41  C    0.245723
    42  O   -0.251875
    43  O   -0.402692
    44  C    0.147356
    45  H    0.004595
    46  H    0.017951
    47  H   -0.007143
    48  H    0.021180
    49  H    0.004262
    50  H    0.035382
    51  H    0.070898
    52  H    0.036883
    53  H    0.035437
    54  H    0.041368
    55  H    0.045620
    56  H    0.053155
    57  H    0.040768
    58  H    0.065721
    59  H    0.031095
    60  H    0.059124
    61  H    0.056307
    62  H    0.081393
    63  H    0.037256
    64  H    0.030693
    65  H    0.038494
    66  H    0.045452
    67  H    0.041114
    68  H    0.033956
    69  H    0.028082
    70  H    0.018101
    71  H    0.047769
    72  H    0.040938
    73  H    0.015437
    74  H    0.065991
    75  H    0.046177
    76  H    0.068370
    77  H    0.063958
    78  H    0.057320
    79  H    0.048002
    80  Mg   0.984048
    81  C   -0.026313
    82  C   -0.064980
    83  C   -0.072229
    84  C   -0.099176
    85  N   -0.335692
    86  C   -0.019357
    87  C   -0.046178
    88  C   -0.130637
    89  C    0.025607
    90  C    0.037449
    91  C    0.055302
    92  C   -0.144165
    93  H    0.038456
    94  N   -0.481585
    95  C    0.183490
    96  C   -0.191508
    97  C   -0.022493
    98  C    0.131593
    99  C    0.056494
   100  C    0.038505
   101  O   -0.281133
   102  C    0.024606
   103  N   -0.375302
   104  C    0.076494
   105  C   -0.094255
   106  C   -0.055027
   107  C    0.063516
   108  C    0.027630
   109  C   -0.032322
   110  C   -0.043695
   111  N   -0.452881
   112  C    0.130505
   113  C   -0.169495
   114  C   -0.056358
   115  C    0.215927
   116  C    0.092261
   117  C    0.091572
   118  O   -0.190099
   119  C   -0.123800
   120  C    0.263162
   121  O   -0.290831
   122  O   -0.356951
   123  C    0.146678
   124  H   -0.009042
   125  H    0.021550
   126  H   -0.013536
   127  H    0.038378
   128  H    0.026835
   129  H    0.047533
   130  H    0.032087
   131  H    0.052209
   132  H    0.035832
   133  H    0.047096
   134  H    0.065159
   135  H    0.052597
   136  H    0.057582
   137  H    0.043374
   138  H    0.035638
   139  H    0.042469
   140  H    0.066608
   141  H    0.043920
   142  H    0.047363
   143  H    0.036148
   144  H    0.044683
   145  H    0.039142
   146  H    0.036192
   147  H    0.035253
   148  H    0.040134
   149  H    0.056378
   150  H    0.040475
   151  H    0.028977
   152  H    0.060673
   153  H    0.053801
   154  H    0.024479
   155  H    0.056522
   156  H    0.066047
   157  H    0.066976
   158  H    0.053635
 Sum of Mulliken charges =  -0.00000

 Dipole moment (field-independent basis, Debye):
    X=             -2.8017    Y=             -0.0176    Z=              5.6559  Tot=              6.3118
 Quadrupole moment (field-independent basis, Debye-Ang):
   XX=           -584.4240   YY=           -487.0727   ZZ=           -496.1759
   XY=             -9.5316   XZ=            -71.0683   YZ=             42.6596

 Normal termination of Gaussian 16 at Mon Sep 20 19:22:59 2021.
