 Gaussian 16, Revision A.03,
 Gaussian 16:  ES64L-G16RevA.03 25-Dec-2016

 --------------------------------
 #p wB97XD/Def2SVP td=(nstates=5)
 --------------------------------

 --------------------------------
 TDDFT excited states in gaussian
 --------------------------------
 Symbolic Z-matrix:
 Charge =  0 Multiplicity = 1

                         Standard orientation:
 ---------------------------------------------------------------------
 Center     Atomic      Atomic             Coordinates (Angstroms)
 Number     Number       Type             X           Y           Z
 ---------------------------------------------------------------------
      1         12           0        5.001094   -0.657692   -0.251498
      2          6           0        3.218659    2.277184   -1.399454
      3          6           0        7.650815    1.189840   -0.306186
      4          6           0        6.478270   -3.500672    0.521779
      5          6           0        2.109089   -2.713943   -1.037488
      6          7           0        5.338836    1.571656   -0.691638
      7          6           0        4.523697    2.589089   -1.142444
      8          6           0        5.311524    3.834061   -1.338013
      9          6           0        6.771475    3.324970   -1.452007
     10          6           0        6.599381    1.923213   -0.820774
     11          6           0        7.297310    3.215174   -2.900018
     12          6           0        5.182528    4.741086   -0.076429
     13          6           0        4.950448    6.279685   -0.338075
     14          1           0        4.348832    7.193752    0.802349
     15          7           0        6.915209   -1.065470    0.122504
     16          6           0        7.867625   -0.172448    0.168359
     17          6           0        9.078505   -0.825658    0.628541
     18          6           0        8.662017   -2.133698    0.970966
     19          6           0        7.307437   -2.274314    0.509889
     20          6           0       10.382252   -0.030249    0.822381
     21          6           0        9.502406   -3.193773    1.626705
     22          8           0        9.045547   -4.277160    1.838643
     23          6           0       10.875751   -2.845771    2.100731
     24          7           0        4.394308   -2.889034   -0.547543
     25          6           0        5.206845   -3.767914    0.035541
     26          6           0        4.559923   -5.089179    0.219530
     27          6           0        3.191272   -4.842396   -0.490611
     28          6           0        3.182498   -3.357552   -0.741377
     29          6           0        5.351357   -6.366409   -0.239340
     30          6           0        1.989880   -5.361200    0.392223
     31          6           0        1.247505   -6.666707   -0.007739
     32          7           0        3.131833   -0.390509   -1.014169
     33          6           0        2.028709   -1.249743   -1.216368
     34          6           0        0.873601   -0.461516   -1.693316
     35          6           0        1.307434    0.856426   -1.744828
     36          6           0        2.645112    0.879439   -1.388196
     37          6           0       -0.470566   -1.054087   -2.181331
     38          6           0        0.828564    2.235517   -2.082112
     39          8           0       -0.238807    2.693609   -2.415329
     40          6           0        2.114621    3.203327   -2.035822
     41          6           0        1.829739    4.426164   -1.379376
     42          8           0        2.026459    4.582717   -0.166185
     43          8           0        1.274409    5.439503   -2.154459
     44          6           0        1.139092    6.808080   -1.567815
     45          1           0        8.608297    1.709093   -0.236798
     46          1           0        6.949576   -4.432974    0.839501
     47          1           0        1.229158   -3.315985   -1.269273
     48          1           0        5.061685    4.284204   -2.299125
     49          1           0        7.531920    3.908356   -0.933252
     50          1           0        8.167864    3.856715   -3.039824
     51          1           0        6.487678    3.535113   -3.555283
     52          1           0        7.553981    2.203486   -3.215452
     53          1           0        6.131392    4.621383    0.446797
     54          1           0        4.393156    4.295561    0.528623
     55          1           0        4.341485    6.371309   -1.237038
     56          1           0        5.959584    6.626336   -0.563899
     57          1           0       10.621949   -0.017920    1.886420
     58          1           0       10.391406    0.979026    0.412254
     59          1           0       11.225034   -0.587380    0.414207
     60          1           0       10.867925   -2.077266    2.873229
     61          1           0       11.542275   -2.378859    1.375667
     62          1           0       11.315683   -3.725258    2.571569
     63          1           0        4.367794   -5.214282    1.285153
     64          1           0        3.217279   -5.287855   -1.485327
     65          1           0        6.343393   -6.021100   -0.528558
     66          1           0        4.881765   -7.004506   -0.988781
     67          1           0        5.434361   -7.041414    0.612637
     68          1           0        1.209527   -4.599836    0.407055
     69          1           0        2.349560   -5.279051    1.417878
     70          1           0        1.110044   -7.297750    0.870170
     71          1           0        1.816422   -7.185969   -0.779161
     72          1           0        0.252248   -6.440511   -0.392238
     73          1           0       -0.663019   -1.957070   -1.602628
     74          1           0       -0.357135   -1.392964   -3.211349
     75          1           0       -1.293291   -0.346463   -2.076307
     76          1           0        2.412726    3.410108   -3.063252
     77          1           0        2.115871    7.230481   -1.327860
     78          1           0        0.358898    6.842554   -0.808362
     79          1           0        0.871696    7.470078   -2.391344
     80         12           0       -4.798496   -0.545330    0.043395
     81          6           0       -2.980424    2.252809    1.086073
     82          6           0       -7.598841    1.465649   -0.100707
     83          6           0       -6.740335   -3.333359   -0.284045
     84          6           0       -2.079550   -2.525546    0.867445
     85          7           0       -5.155028    1.589268    0.364651
     86          6           0       -4.238065    2.544156    0.566344
     87          6           0       -4.752042    3.978333    0.373071
     88          6           0       -6.296377    3.730253    0.173342
     89          6           0       -6.395906    2.109569    0.036946
     90          6           0       -7.246747    4.279823    1.258912
     91          6           0       -4.086714    4.745572   -0.769737
     92          6           0       -4.104563    6.271857   -0.569206
     93          1           0       -4.776450    6.857358    0.680856
     94          7           0       -6.849833   -0.904638   -0.274441
     95          6           0       -7.860308    0.079700   -0.371341
     96          6           0       -9.115386   -0.583962   -0.661782
     97          6           0       -8.897529   -2.012181   -0.655080
     98          6           0       -7.458042   -2.145071   -0.436311
     99          6           0      -10.351149    0.206426   -0.993523
    100          6           0       -9.892400   -3.212692   -0.988777
    101          8           0       -9.545846   -4.364941   -1.085301
    102          6           0      -11.348945   -2.844972   -1.171303
    103          7           0       -4.486554   -2.606049    0.350627
    104          6           0       -5.415088   -3.578057    0.117997
    105          6           0       -4.825386   -5.024045    0.307910
    106          6           0       -3.358348   -4.710775    0.597447
    107          6           0       -3.314907   -3.194342    0.610029
    108          6           0       -5.495665   -6.068146    1.289127
    109          6           0       -2.432267   -5.315862   -0.483551
    110          6           0       -2.231557   -4.548580   -1.809220
    111          7           0       -2.823047   -0.271487    0.684058
    112          6           0       -1.825503   -1.164321    0.978884
    113          6           0       -0.637106   -0.494343    1.388970
    114          6           0       -1.041803    0.913955    1.460518
    115          6           0       -2.320840    0.957350    1.061692
    116          6           0        0.696817   -0.996119    1.726189
    117          6           0       -0.648177    2.250634    1.883994
    118          8           0        0.452516    2.675494    2.251119
    119          6           0       -1.865243    3.196472    1.663206
    120          6           0       -2.257626    3.862347    2.901055
    121          8           0       -2.904217    3.363224    3.815953
    122          8           0       -1.601052    5.063935    2.992763
    123          6           0       -1.486413    5.736913    4.301211
    124          1           0       -8.432292    2.171482   -0.095412
    125          1           0       -7.309486   -4.221217   -0.567188
    126          1           0       -1.191249   -3.138063    1.035145
    127          1           0       -4.699724    4.551270    1.298595
    128          1           0       -6.659301    4.030528   -0.808975
    129          1           0       -7.936244    4.853221    0.639560
    130          1           0       -6.708903    4.929397    1.949065
    131          1           0       -7.708544    3.462030    1.812272
    132          1           0       -4.529244    4.506232   -1.735929
    133          1           0       -3.042516    4.446483   -0.864684
    134          1           0       -4.621528    6.584484   -1.476697
    135          1           0       -3.111267    6.708732   -0.681678
    136          1           0      -10.103711    1.242295   -0.761180
    137          1           0      -11.180353   -0.160086   -0.388012
    138          1           0      -10.652838    0.109195   -2.037498
    139          1           0      -11.919931   -2.614309   -0.271341
    140          1           0      -11.822514   -3.644558   -1.740937
    141          1           0      -11.276325   -1.962919   -1.807454
    142          1           0       -4.974183   -5.434091   -0.690741
    143          1           0       -3.142132   -5.137420    1.576233
    144          1           0       -4.802939   -6.565724    1.966812
    145          1           0       -5.928483   -6.866097    0.686603
    146          1           0       -6.309380   -5.558884    1.806336
    147          1           0       -2.833096   -6.309631   -0.679496
    148          1           0       -1.474833   -5.451408    0.020347
    149          1           0       -2.254398   -5.322439   -2.576077
    150          1           0       -1.260290   -4.059895   -1.882712
    151          1           0       -2.947149   -3.744250   -1.976078
    152          1           0        1.425206   -0.317153    1.284221
    153          1           0        0.912905   -2.014669    1.403611
    154          1           0        0.886104   -0.859500    2.791052
    155          1           0       -1.519258    3.895129    0.901595
    156          1           0       -2.017399    5.200409    5.088311
    157          1           0       -1.947266    6.720601    4.208058
    158          1           0       -0.405410    5.736572    4.436472
 ---------------------------------------------------------------------

 SCF Done:  E(RwB97XD) =  -4070.61241815     A.U. after   20 cycles

 Excitation energies and oscillator strengths:

 Excited State   1:      Singlet-A      1.6014 eV  774.23 nm  f=0.8989  <S**2>=0.000
     310 -> 315        0.13795
     311 -> 313        0.38116
     311 -> 314        0.12339
     312 -> 313       -0.20276
     312 -> 314        0.52032
 This state for optimization and/or second-order correction.
 Total Energy, E(TD-HF/TD-DFT) =  -4070.55356846
 Copying the excited state density for this state as the 1-particle RhoCI density.

 Excited State   2:      Singlet-A      1.7103 eV  724.93 nm  f=0.0433  <S**2>=0.000
     309 -> 316       -0.13045
     310 -> 315       -0.11075
     311 -> 313        0.54872
     312 -> 314       -0.40190

 Excited State   3:      Singlet-A      2.0580 eV  602.44 nm  f=0.0309  <S**2>=0.000
     309 -> 313       -0.25274
     309 -> 314       -0.10913
     310 -> 313       -0.18243
     310 -> 314        0.57240
     312 -> 315       -0.20995

 Excited State   4:      Singlet-A      2.1208 eV  584.61 nm  f=0.2794  <S**2>=0.000
     309 -> 313        0.60649
     310 -> 314        0.26507
     311 -> 316        0.17646

 Excited State   5:      Singlet-A      2.5455 eV  487.08 nm  f=0.0008  <S**2>=0.000
     311 -> 313        0.11063
     312 -> 313        0.66576
     312 -> 314        0.16875

 The electronic state is 1-A.
 Alpha  occ. eigenvalues --  -46.95725 -46.93943 -19.29095 -19.28357 -19.24735
 Alpha  occ. eigenvalues --  -19.24427 -19.24284 -19.23171 -19.23168 -19.22769
 Alpha  occ. eigenvalues --  -14.46359 -14.46292 -14.45838 -14.44714 -14.44407
 Alpha  occ. eigenvalues --  -14.44338 -14.43422 -14.42106 -10.42053 -10.41725
 Alpha  occ. eigenvalues --  -10.39986 -10.39634 -10.39094 -10.38076 -10.35391
 Alpha  occ. eigenvalues --  -10.35296 -10.35050 -10.34712 -10.34310 -10.34257
 Alpha  occ. eigenvalues --  -10.34216 -10.34200 -10.34099 -10.34029 -10.33937
 Alpha  occ. eigenvalues --  -10.33771 -10.33653 -10.33575 -10.33325 -10.33239
 Alpha  occ. eigenvalues --  -10.32801 -10.32753 -10.32244 -10.32180 -10.32178
 Alpha  occ. eigenvalues --  -10.32136 -10.32100 -10.32055 -10.31988 -10.31839
 Alpha  occ. eigenvalues --  -10.31620 -10.31562 -10.31310 -10.31287 -10.31226
 Alpha  occ. eigenvalues --  -10.31177 -10.31107 -10.31094 -10.31038 -10.31012
 Alpha  occ. eigenvalues --  -10.30947 -10.30943 -10.30722 -10.30679 -10.30541
 Alpha  occ. eigenvalues --  -10.30345 -10.30337 -10.30274 -10.30238 -10.30231
 Alpha  occ. eigenvalues --  -10.30111 -10.30095 -10.29912 -10.29758 -10.29737
 Alpha  occ. eigenvalues --  -10.29664 -10.29584 -10.29515 -10.29431 -10.29384
 Alpha  occ. eigenvalues --  -10.29335 -10.29261 -10.29098 -10.29020 -10.28640
 Alpha  occ. eigenvalues --  -10.28031  -3.21716  -3.19914  -1.95289  -1.94846
 Alpha  occ. eigenvalues --   -1.94678  -1.93503  -1.93034  -1.92892  -1.16494
 Alpha  occ. eigenvalues --   -1.16162  -1.14396  -1.13279  -1.13125  -1.10042
 Alpha  occ. eigenvalues --   -1.08509  -1.08081  -1.07608  -1.06985  -1.06873
 Alpha  occ. eigenvalues --   -1.05906  -1.04650  -1.03796  -1.02940  -1.02397
 Alpha  occ. eigenvalues --   -0.93252  -0.93130  -0.91036  -0.90840  -0.90774
 Alpha  occ. eigenvalues --   -0.89981  -0.89855  -0.89793  -0.89590  -0.89448
 Alpha  occ. eigenvalues --   -0.88387  -0.87816  -0.87340  -0.86982  -0.86185
 Alpha  occ. eigenvalues --   -0.85415  -0.85003  -0.84828  -0.84019  -0.83970
 Alpha  occ. eigenvalues --   -0.83698  -0.83402  -0.82814  -0.82376  -0.82292
 Alpha  occ. eigenvalues --   -0.81478  -0.80725  -0.79470  -0.79043  -0.78702
 Alpha  occ. eigenvalues --   -0.78572  -0.78058  -0.78020  -0.77378  -0.77183
 Alpha  occ. eigenvalues --   -0.76381  -0.74635  -0.73750  -0.73084  -0.72502
 Alpha  occ. eigenvalues --   -0.71518  -0.71234  -0.70837  -0.69947  -0.69712
 Alpha  occ. eigenvalues --   -0.69137  -0.68895  -0.67961  -0.67628  -0.67430
 Alpha  occ. eigenvalues --   -0.66971  -0.66309  -0.66196  -0.65936  -0.65797
 Alpha  occ. eigenvalues --   -0.65077  -0.63471  -0.63011  -0.62700  -0.61991
 Alpha  occ. eigenvalues --   -0.61190  -0.61028  -0.60354  -0.60302  -0.60030
 Alpha  occ. eigenvalues --   -0.59537  -0.59459  -0.59139  -0.59135  -0.58638
 Alpha  occ. eigenvalues --   -0.58606  -0.57623  -0.57434  -0.57342  -0.56805
 Alpha  occ. eigenvalues --   -0.56433  -0.56190  -0.55951  -0.55767  -0.55305
 Alpha  occ. eigenvalues --   -0.54995  -0.54984  -0.54658  -0.54614  -0.54381
 Alpha  occ. eigenvalues --   -0.54130  -0.54059  -0.53931  -0.53871  -0.53636
 Alpha  occ. eigenvalues --   -0.53542  -0.53264  -0.53195  -0.52962  -0.52509
 Alpha  occ. eigenvalues --   -0.52482  -0.52170  -0.52115  -0.52081  -0.51836
 Alpha  occ. eigenvalues --   -0.51677  -0.51598  -0.51358  -0.51171  -0.51069
 Alpha  occ. eigenvalues --   -0.50934  -0.50819  -0.50632  -0.50592  -0.50302
 Alpha  occ. eigenvalues --   -0.50232  -0.50102  -0.49914  -0.49805  -0.49718
 Alpha  occ. eigenvalues --   -0.49525  -0.49431  -0.49393  -0.49148  -0.48880
 Alpha  occ. eigenvalues --   -0.48513  -0.48413  -0.48141  -0.48010  -0.47934
 Alpha  occ. eigenvalues --   -0.47702  -0.47562  -0.47444  -0.47336  -0.47129
 Alpha  occ. eigenvalues --   -0.46977  -0.46871  -0.46747  -0.46616  -0.46461
 Alpha  occ. eigenvalues --   -0.46354  -0.46095  -0.45896  -0.45780  -0.45525
 Alpha  occ. eigenvalues --   -0.45355  -0.45319  -0.45213  -0.45081  -0.44826
 Alpha  occ. eigenvalues --   -0.44715  -0.44664  -0.44606  -0.44501  -0.44351
 Alpha  occ. eigenvalues --   -0.44209  -0.44023  -0.43910  -0.43783  -0.43632
 Alpha  occ. eigenvalues --   -0.43234  -0.43180  -0.42908  -0.42713  -0.42467
 Alpha  occ. eigenvalues --   -0.42342  -0.42294  -0.42201  -0.42142  -0.42127
 Alpha  occ. eigenvalues --   -0.41746  -0.41674  -0.41658  -0.41262  -0.40238
 Alpha  occ. eigenvalues --   -0.40047  -0.39717  -0.39530  -0.39004  -0.38972
 Alpha  occ. eigenvalues --   -0.38904  -0.38429  -0.38131  -0.38039  -0.37559
 Alpha  occ. eigenvalues --   -0.37501  -0.36946  -0.35655  -0.35587  -0.34993
 Alpha  occ. eigenvalues --   -0.34942  -0.34788  -0.34509  -0.33923  -0.33583
 Alpha  occ. eigenvalues --   -0.33258  -0.33029  -0.32780  -0.32491  -0.31859
 Alpha  occ. eigenvalues --   -0.31760  -0.31134  -0.29917  -0.25441  -0.24739
 Alpha  occ. eigenvalues --   -0.23443  -0.22449
 Alpha virt. eigenvalues --   -0.07447  -0.06577   0.01161   0.01602   0.02961
 Alpha virt. eigenvalues --    0.03469   0.04682   0.05354   0.05651   0.06344
 Alpha virt. eigenvalues --    0.06924   0.07884   0.08196   0.08398   0.08946

 Mulliken charges:
               1
     1  Mg   0.970995
     2  C   -0.009080
     3  C   -0.052232
     4  C   -0.054770
     5  C   -0.118941
     6  N   -0.301042
     7  C   -0.007410
     8  C   -0.074331
     9  C   -0.132591
    10  C    0.070436
    11  C    0.036911
    12  C    0.031557
    13  C   -0.096041
    14  H    0.051073
    15  N   -0.460038
    16  C    0.091305
    17  C   -0.146956
    18  C   -0.078797
    19  C    0.135281
    20  C    0.063340
    21  C    0.052175
    22  O   -0.201463
    23  C   -0.021019
    24  N   -0.269678
    25  C    0.016605
    26  C   -0.095203
    27  C   -0.045014
    28  C    0.063023
    29  C    0.023345
    30  C   -0.022135
    31  C   -0.024315
    32  N   -0.482584
    33  C    0.109333
    34  C   -0.228940
    35  C   -0.052627
    36  C    0.152209
    37  C    0.115829
    38  C    0.165588
    39  O   -0.180394
    40  C   -0.084075
    41  C    0.260768
    42  O   -0.257885
    43  O   -0.392751
    44  C    0.155628
    45  H   -0.025166
    46  H    0.020628
    47  H   -0.014142
    48  H    0.019658
    49  H    0.035170
    50  H    0.041781
    51  H    0.027580
    52  H    0.044798
    53  H    0.024730
    54  H    0.082989
    55  H    0.042355
    56  H    0.035828
    57  H    0.049019
    58  H    0.053786
    59  H    0.041932
    60  H    0.050287
    61  H    0.042877
    62  H    0.056146
    63  H    0.045639
    64  H    0.031822
    65  H    0.049877
    66  H    0.037249
    67  H    0.032216
    68  H    0.009537
    69  H    0.015500
    70  H    0.040217
    71  H    0.034420
    72  H    0.034304
    73  H    0.005491
    74  H    0.048607
    75  H    0.063886
    76  H    0.078550
    77  H    0.044982
    78  H    0.074453
    79  H    0.040196
    80  Mg   0.955427
    81  C    0.005645
    82  C   -0.089171
    83  C   -0.076420
    84  C   -0.084221
    85  N   -0.357201
    86  C   -0.007941
    87  C   -0.050345
    88  C   -0.148443
    89  C    0.067282
    90  C    0.032480
    91  C    0.012555
    92  C   -0.109109
    93  H    0.041688
    94  N   -0.477278
    95  C    0.163901
    96  C   -0.179129
    97  C   -0.091832
    98  C    0.128806
    99  C    0.057631
   100  C    0.081283
   101  O   -0.210246
   102  C   -0.022127
   103  N   -0.338301
   104  C    0.040446
   105  C   -0.080736
   106  C   -0.043428
   107  C    0.051623
   108  C    0.023152
   109  C   -0.056371
   110  C   -0.025274
   111  N   -0.450972
   112  C    0.129680
   113  C   -0.167906
   114  C   -0.029458
   115  C    0.136098
   116  C    0.124112
   117  C    0.090773
   118  O   -0.207386
   119  C   -0.057907
   120  C    0.271620
   121  O   -0.257690
   122  O   -0.377025
   123  C    0.128737
   124  H    0.000117
   125  H    0.017979
   126  H   -0.027037
   127  H    0.037261
   128  H    0.030673
   129  H    0.038765
   130  H    0.042078
   131  H    0.054223
   132  H    0.032682
   133  H    0.048441
   134  H    0.039368
   135  H    0.050384
   136  H    0.028515
   137  H    0.046170
   138  H    0.066382
   139  H    0.080969
   140  H    0.052173
   141  H    0.031664
   142  H    0.038348
   143  H    0.034931
   144  H    0.037960
   145  H    0.034646
   146  H    0.051474
   147  H    0.030891
   148  H    0.032241
   149  H    0.038482
   150  H    0.032543
   151  H    0.051708
   152  H    0.063300
   153  H    0.022915
   154  H    0.048429
   155  H    0.080881
   156  H    0.064879
   157  H    0.051579
   158  H    0.074675
 Sum of Mulliken charges =  -0.00000

 Dipole moment (field-independent basis, Debye):
    X=              4.1867    Y=              2.0661    Z=             -2.9324  Tot=              5.5133
 Quadrupole moment (field-independent basis, Debye-Ang):
   XX=           -437.1753   YY=           -476.4129   ZZ=           -517.8204
   XY=              2.3416   XZ=              5.2933   YZ=             -8.0949

 Normal termination of Gaussian 16 at Sun Sep 19 14:21:41 2021.
