 Gaussian 16, Revision A.03,
 Gaussian 16:  ES64L-G16RevA.03 25-Dec-2016

 --------------------------------
 #p wB97XD/Def2SVP td=(nstates=5)
 --------------------------------

 --------------------------------
 TDDFT excited states in gaussian
 --------------------------------
 Symbolic Z-matrix:
 Charge =  0 Multiplicity = 1

                         Standard orientation:
 ---------------------------------------------------------------------
 Center     Atomic      Atomic             Coordinates (Angstroms)
 Number     Number       Type             X           Y           Z
 ---------------------------------------------------------------------
      1         12           0       -0.563453    0.023721   -0.065143
      2          6           0        2.848635    0.373582    0.197761
      3          6           0       -0.371896   -3.341284    0.541037
      4          6           0       -4.053311   -0.269698   -0.143912
      5          6           0       -0.953545    3.447169    0.167325
      6          7           0        1.098589   -1.232937    0.534618
      7          6           0        2.464625   -0.963255    0.415009
      8          6           0        3.310965   -2.180343    0.796687
      9          6           0        2.226402   -3.283241    0.699959
     10          6           0        0.847142   -2.593364    0.671000
     11          6           0        2.487692   -4.291906   -0.439957
     12          6           0        3.938014   -2.039243    2.197851
     13          6           0        5.425062   -2.509126    2.357980
     14          1           0        5.799862   -3.049346    3.682598
     15          7           0       -1.960032   -1.564176    0.110495
     16          6           0       -1.685239   -2.879533    0.265889
     17          6           0       -2.829503   -3.717116    0.064581
     18          6           0       -3.894934   -2.866193   -0.272466
     19          6           0       -3.315817   -1.465721   -0.137449
     20          6           0       -2.790570   -5.246640    0.056426
     21          6           0       -5.366985   -3.285000   -0.630118
     22          8           0       -5.681643   -4.499231   -0.538814
     23          6           0       -6.462620   -2.275112   -1.182693
     24          7           0       -2.275251    1.387627    0.304041
     25          6           0       -3.563298    1.038069    0.068552
     26          6           0       -4.490563    2.224149   -0.001735
     27          6           0       -3.532972    3.426460    0.144036
     28          6           0       -2.166115    2.737631    0.168630
     29          6           0       -5.414876    2.257465   -1.263866
     30          6           0       -3.889722    4.373169    1.387073
     31          6           0       -4.550399    5.703882    1.008869
     32          7           0        0.661075    1.619673    0.083723
     33          6           0        0.398378    3.006131    0.141032
     34          6           0        1.658041    3.744441   -0.019252
     35          6           0        2.609872    2.735798   -0.074001
     36          6           0        1.951283    1.510213    0.118579
     37          6           0        1.910775    5.208407   -0.078999
     38          6           0        4.054240    2.487852   -0.187193
     39          8           0        4.996716    3.225774   -0.518645
     40          6           0        4.268523    0.926385   -0.059139
     41          6           0        4.895298    0.346843   -1.320166
     42          8           0        4.584476    0.579770   -2.492565
     43          8           0        5.913303   -0.424113   -0.842905
     44          6           0        6.822144   -0.982446   -1.830028
     45          1           0       -0.323468   -4.416100    0.727307
     46          1           0       -5.138538   -0.229702   -0.259014
     47          1           0       -1.005977    4.535872    0.231270
     48          1           0        4.125416   -2.297513    0.081043
     49          1           0        2.334635   -3.821196    1.641710
     50          1           0        3.495220   -4.399408   -0.841683
     51          1           0        1.901659   -3.932253   -1.285587
     52          1           0        2.180860   -5.303100   -0.173700
     53          1           0        3.333631   -2.497332    2.980307
     54          1           0        3.809368   -0.987795    2.455902
     55          1           0        6.085955   -1.672438    2.131707
     56          1           0        5.602192   -3.332135    1.664197
     57          1           0       -3.186850   -5.542992   -0.914515
     58          1           0       -3.236277   -5.630378    0.974217
     59          1           0       -1.728004   -5.488550    0.035105
     60          1           0       -6.909559   -1.807634   -0.306088
     61          1           0       -7.204389   -2.885988   -1.696664
     62          1           0       -5.972050   -1.690518   -1.961426
     63          1           0       -5.157352    2.178836    0.859430
     64          1           0       -3.399896    4.050236   -0.739564
     65          1           0       -5.432134    3.245820   -1.722345
     66          1           0       -6.444344    1.980643   -1.037298
     67          1           0       -5.091295    1.485522   -1.960857
     68          1           0       -3.004922    4.678584    1.945447
     69          1           0       -4.489075    3.824584    2.113580
     70          1           0       -5.325658    5.948181    1.735302
     71          1           0       -5.001143    5.622486    0.020011
     72          1           0       -3.858139    6.544422    0.963801
     73          1           0        0.940918    5.705792   -0.090260
     74          1           0        2.652713    5.426751   -0.847339
     75          1           0        2.324600    5.478215    0.893216
     76          1           0        4.863013    0.658636    0.814761
     77          1           0        6.322045   -1.408246   -2.700839
     78          1           0        7.530017   -1.735101   -1.482910
     79          1           0        7.486567   -0.200977   -2.199630
 ---------------------------------------------------------------------

 SCF Done:  E(RwB97XD) =  -2035.32232462     A.U. after   19 cycles

 Excitation energies and oscillator strengths:

 Excited State   1:      Singlet-A      1.6650 eV  744.65 nm  f=0.3615  <S**2>=0.000
     155 ->158         0.17877
     156 ->157         0.68381
     155 <-158         0.11339
 This state for optimization and/or second-order correction.
 Total Energy, E(TD-HF/TD-DFT) =  -2035.26113695
 Copying the excited state density for this state as the 1-particle RhoCI density.

 Excited State   2:      Singlet-A      2.1965 eV  564.45 nm  f=0.0913  <S**2>=0.000
     155 ->157         0.62317
     156 ->158        -0.31714

 Excited State   3:      Singlet-A      3.4368 eV  360.75 nm  f=0.1118  <S**2>=0.000
     150 ->159        -0.10310
     151 ->157        -0.23218
     151 ->158        -0.10680
     151 ->159        -0.21923
     151 ->160        -0.12537
     152 ->157         0.44712
     152 ->159         0.16239
     155 ->157         0.11389
     156 ->158         0.29077

 Excited State   4:      Singlet-A      3.5086 eV  353.38 nm  f=0.4437  <S**2>=0.000
     150 ->157         0.11380
     151 ->157         0.14111
     151 ->159         0.13038
     153 ->157        -0.12540
     153 ->160        -0.10890
     154 ->157         0.27909
     155 ->157         0.23837
     156 ->158         0.47510

 Excited State   5:      Singlet-A      3.5729 eV  347.01 nm  f=0.0772  <S**2>=0.000
     150 ->157        -0.22342
     150 ->159        -0.10185
     151 ->157        -0.23465
     151 ->159        -0.14530
     152 ->157        -0.17758
     153 ->157        -0.19374
     153 ->159         0.14764
     153 ->160        -0.17428
     154 ->157         0.40216
     156 ->158        -0.15885

 The electronic state is 1-A.
 Alpha  occ. eigenvalues --  -46.95529 -19.31578 -19.25211 -19.24795 -19.23474
 Alpha  occ. eigenvalues --  -14.47031 -14.46766 -14.44875 -14.43672 -10.43809
 Alpha  occ. eigenvalues --  -10.40766 -10.38756 -10.36327 -10.35784 -10.35746
 Alpha  occ. eigenvalues --  -10.35243 -10.35116 -10.34527 -10.34434 -10.33642
 Alpha  occ. eigenvalues --  -10.32769 -10.32713 -10.32559 -10.32403 -10.32204
 Alpha  occ. eigenvalues --  -10.32140 -10.32067 -10.32000 -10.31982 -10.31790
 Alpha  occ. eigenvalues --  -10.31773 -10.31715 -10.31411 -10.31395 -10.31002
 Alpha  occ. eigenvalues --  -10.30838 -10.30636 -10.30514 -10.30265 -10.29940
 Alpha  occ. eigenvalues --  -10.29795 -10.29562 -10.28570  -3.21507  -1.95061
 Alpha  occ. eigenvalues --   -1.94615  -1.94504  -1.19019  -1.10911  -1.10545
 Alpha  occ. eigenvalues --   -1.09951  -1.06676  -1.06030  -1.05594  -1.04174
 Alpha  occ. eigenvalues --   -0.93361  -0.90818  -0.90720  -0.90568  -0.89190
 Alpha  occ. eigenvalues --   -0.88962  -0.88393  -0.86239  -0.85773  -0.84410
 Alpha  occ. eigenvalues --   -0.83576  -0.83090  -0.82140  -0.79869  -0.79437
 Alpha  occ. eigenvalues --   -0.78695  -0.77811  -0.77247  -0.74697  -0.73721
 Alpha  occ. eigenvalues --   -0.71125  -0.70918  -0.69836  -0.69286  -0.68050
 Alpha  occ. eigenvalues --   -0.67077  -0.66978  -0.66573  -0.64668  -0.61914
 Alpha  occ. eigenvalues --   -0.61612  -0.60946  -0.60604  -0.59699  -0.59221
 Alpha  occ. eigenvalues --   -0.57997  -0.57733  -0.57240  -0.56964  -0.55718
 Alpha  occ. eigenvalues --   -0.55327  -0.55112  -0.54770  -0.54542  -0.53915
 Alpha  occ. eigenvalues --   -0.53532  -0.53292  -0.53173  -0.53043  -0.52786
 Alpha  occ. eigenvalues --   -0.51866  -0.51382  -0.51245  -0.51026  -0.50432
 Alpha  occ. eigenvalues --   -0.50248  -0.50090  -0.49753  -0.49691  -0.49401
 Alpha  occ. eigenvalues --   -0.49121  -0.48823  -0.48515  -0.48294  -0.47980
 Alpha  occ. eigenvalues --   -0.47455  -0.47153  -0.46737  -0.46355  -0.46076
 Alpha  occ. eigenvalues --   -0.45706  -0.45660  -0.45459  -0.45208  -0.44935
 Alpha  occ. eigenvalues --   -0.44514  -0.44375  -0.44101  -0.43897  -0.43494
 Alpha  occ. eigenvalues --   -0.43080  -0.42721  -0.42507  -0.41613  -0.41275
 Alpha  occ. eigenvalues --   -0.40687  -0.40293  -0.40074  -0.39421  -0.38919
 Alpha  occ. eigenvalues --   -0.38391  -0.36853  -0.36781  -0.35282  -0.33750
 Alpha  occ. eigenvalues --   -0.33311  -0.32697  -0.32409  -0.31945  -0.26138
 Alpha  occ. eigenvalues --   -0.22906
 Alpha virt. eigenvalues --   -0.06920  -0.00127   0.02236   0.04059   0.04811
 Alpha virt. eigenvalues --    0.07151   0.07410   0.09445   0.09508   0.10711
 Alpha virt. eigenvalues --    0.11177   0.11835   0.12745   0.13047   0.13555

 Mulliken charges:
               1
     1  Mg   0.973343
     2  C   -0.080627
     3  C   -0.110065
     4  C   -0.086343
     5  C   -0.082940
     6  N   -0.403987
     7  C   -0.008422
     8  C   -0.052879
     9  C   -0.091946
    10  C    0.125826
    11  C    0.013992
    12  C    0.023128
    13  C   -0.127704
    14  H    0.043599
    15  N   -0.430341
    16  C    0.153071
    17  C   -0.190492
    18  C   -0.078487
    19  C    0.194733
    20  C    0.116148
    21  C    0.044427
    22  O   -0.256214
    23  C   -0.009380
    24  N   -0.325127
    25  C    0.022935
    26  C   -0.076385
    27  C   -0.052244
    28  C    0.038512
    29  C    0.010494
    30  C   -0.007595
    31  C   -0.058080
    32  N   -0.440776
    33  C    0.101220
    34  C   -0.206373
    35  C   -0.044062
    36  C    0.153325
    37  C    0.107355
    38  C    0.155524
    39  O   -0.229701
    40  C   -0.059941
    41  C    0.289219
    42  O   -0.247447
    43  O   -0.356444
    44  C    0.133476
    45  H    0.007831
    46  H   -0.019673
    47  H   -0.011096
    48  H    0.025017
    49  H    0.032690
    50  H    0.036831
    51  H    0.034834
    52  H    0.038402
    53  H    0.030660
    54  H    0.030145
    55  H    0.066473
    56  H    0.049604
    57  H    0.065670
    58  H    0.072157
    59  H    0.012152
    60  H    0.080712
    61  H    0.058301
    62  H    0.060716
    63  H    0.046733
    64  H    0.034055
    65  H    0.046875
    66  H    0.033555
    67  H    0.037724
    68  H    0.032982
    69  H    0.028778
    70  H    0.039100
    71  H    0.028606
    72  H    0.041142
    73  H    0.021210
    74  H    0.075387
    75  H    0.050514
    76  H    0.064460
    77  H    0.055252
    78  H    0.052198
    79  H    0.053673
 Sum of Mulliken charges =  -0.00000

 Dipole moment (field-independent basis, Debye):
    X=             -2.5059    Y=             -0.6784    Z=              0.5250  Tot=              2.6486
 Quadrupole moment (field-independent basis, Debye-Ang):
   XX=           -249.4767   YY=           -255.5374   ZZ=           -259.9385
   XY=            -50.8416   XZ=              5.4784   YZ=              6.3277

 Normal termination of Gaussian 16 at Mon Sep 20 18:09:06 2021.
