 Gaussian 16, Revision A.03,
 Gaussian 16:  ES64L-G16RevA.03 25-Dec-2016

 --------------------------------
 #p wB97XD/Def2SVP td=(nstates=5)
 --------------------------------

 --------------------------------
 TDDFT excited states in gaussian
 --------------------------------
 Symbolic Z-matrix:
 Charge =  0 Multiplicity = 1

                         Standard orientation:
 ---------------------------------------------------------------------
 Center     Atomic      Atomic             Coordinates (Angstroms)
 Number     Number       Type             X           Y           Z
 ---------------------------------------------------------------------
      1         12           0       13.227142    0.730768   -0.312750
      2          6           0       11.751355   -1.960726    1.534609
      3          6           0       15.283500   -1.718565   -1.801282
      4          6           0       15.147356    3.083378   -1.530194
      5          6           0       11.386288    2.932007    1.511605
      6          7           0       13.422473   -1.569908   -0.163884
      7          6           0       12.623542   -2.372946    0.579175
      8          6           0       12.920899   -3.819487    0.220099
      9          6           0       14.029622   -3.825644   -0.869790
     10          6           0       14.251000   -2.305622   -0.991060
     11          6           0       15.349346   -4.691618   -0.456924
     12          6           0       11.641561   -4.596321   -0.312490
     13          6           0       11.372868   -5.971955    0.298559
     14          1           0       12.563444   -6.910906    0.747717
     15          7           0       15.023389    0.684472   -1.470799
     16          6           0       15.637403   -0.368518   -1.967351
     17          6           0       16.779281    0.105732   -2.697179
     18          6           0       16.736253    1.519557   -2.796501
     19          6           0       15.649774    1.813936   -1.899261
     20          6           0       17.682755   -0.820513   -3.509562
     21          6           0       17.478235    2.549676   -3.633582
     22          8           0       17.319755    3.749438   -3.501394
     23          6           0       18.391121    2.003888   -4.696923
     24          7           0       13.469300    2.688105    0.241395
     25          6           0       14.218479    3.525145   -0.587575
     26          6           0       13.873834    5.028480   -0.406732
     27          6           0       12.560441    4.882630    0.450638
     28          6           0       12.445516    3.391066    0.764892
     29          6           0       15.033955    5.779186    0.262984
     30          6           0       11.231565    5.307425   -0.336074
     31          6           0       10.581100    6.603639    0.014251
     32          7           0       11.795713    0.562928    1.100109
     33          6           0       11.151045    1.571920    1.782517
     34          6           0       10.283626    1.072164    2.846040
     35          6           0       10.480885   -0.353701    2.789683
     36          6           0       11.481797   -0.588169    1.817530
     37          6           0        9.302867    1.907455    3.586540
     38          6           0       10.027919   -1.639096    3.298720
     39          8           0        9.141222   -1.839869    4.148593
     40          6           0       10.880378   -2.783884    2.504883
     41          6           0       11.631879   -3.473466    3.541641
     42          8           0       12.387834   -2.917369    4.307953
     43          8           0       11.390263   -4.789691    3.529707
     44          6           0       11.993758   -5.721998    4.532878
     45          1           0       15.896172   -2.438963   -2.347123
     46          1           0       15.434826    3.907455   -2.187477
     47          1           0       10.757094    3.671152    2.011299
     48          1           0       13.317155   -4.295097    1.117262
     49          1           0       13.705150   -4.331991   -1.779031
     50          1           0       15.104121   -5.434610    0.302037
     51          1           0       16.066223   -3.951243   -0.100968
     52          1           0       15.760488   -5.177710   -1.341521
     53          1           0       11.581439   -4.700637   -1.394956
     54          1           0       10.747833   -4.023269   -0.065879
     55          1           0       10.746077   -6.584097   -0.350256
     56          1           0       10.734241   -5.733154    1.148996
     57          1           0       17.432911   -0.871192   -4.569461
     58          1           0       17.770537   -1.804010   -3.046919
     59          1           0       18.689440   -0.413617   -3.416774
     60          1           0       18.003365    1.145922   -5.246969
     61          1           0       19.373909    1.696588   -4.342179
     62          1           0       18.439636    2.718036   -5.518999
     63          1           0       13.698210    5.441111   -1.399832
     64          1           0       12.670686    5.506837    1.337477
     65          1           0       15.959713    5.208524    0.335281
     66          1           0       14.794988    6.055002    1.289477
     67          1           0       15.229916    6.699821   -0.287656
     68          1           0       10.406772    4.599257   -0.256813
     69          1           0       11.368916    5.314380   -1.416736
     70          1           0       10.608664    7.281122   -0.838232
     71          1           0       11.197967    6.971575    0.834339
     72          1           0        9.539821    6.444864    0.294495
     73          1           0        8.402150    1.343448    3.826444
     74          1           0        9.160884    2.809210    2.991192
     75          1           0        9.784420    2.195122    4.522128
     76          1           0       10.228539   -3.497418    2.002623
     77          1           0       11.828361   -5.329049    5.536212
     78          1           0       13.068424   -5.845950    4.397106
     79          1           0       11.663763   -6.754889    4.425273
     80         12           0      -13.484522    0.466712    0.160033
     81          6           0      -11.496174   -2.272599   -0.622982
     82          6           0      -16.223918   -1.573931   -0.163435
     83          6           0      -15.488679    3.229173    0.676815
     84          6           0      -10.732529    2.592487   -0.081200
     85          7           0      -13.787487   -1.694785   -0.241659
     86          6           0      -12.853805   -2.644674   -0.421048
     87          6           0      -13.399370   -4.090931   -0.469292
     88          6           0      -14.962206   -3.820377   -0.559897
     89          6           0      -15.037557   -2.232607   -0.348729
     90          6           0      -15.492200   -4.338226   -1.944421
     91          6           0      -12.921048   -4.822239    0.888149
     92          6           0      -12.157376   -6.168886    0.720979
     93          1           0      -12.400432   -6.875372   -0.661607
     94          7           0      -15.551493    0.845869    0.182824
     95          6           0      -16.519705   -0.176896    0.110607
     96          6           0      -17.812316    0.383696    0.441995
     97          6           0      -17.637820    1.759875    0.635393
     98          6           0      -16.149715    2.009225    0.581192
     99          6           0      -19.104763   -0.418086    0.232460
    100          6           0      -18.725793    2.833203    0.904052
    101          8           0      -18.508153    4.047338    1.074680
    102          6           0      -20.184744    2.367122    1.048490
    103          7           0      -13.115369    2.606229    0.194295
    104          6           0      -14.165489    3.525983    0.495836
    105          6           0      -13.662142    4.978172    0.359426
    106          6           0      -12.080367    4.742713    0.398478
    107          6           0      -11.959668    3.208733    0.201637
    108          6           0      -14.256997    5.605751   -0.890385
    109          6           0      -11.462110    5.175726    1.794296
    110          6           0      -11.965290    4.690244    3.196332
    111          7           0      -11.547933    0.272211   -0.330762
    112          6           0      -10.519223    1.215779   -0.411782
    113          6           0       -9.303959    0.551176   -0.754674
    114          6           0       -9.612632   -0.796200   -0.805311
    115          6           0      -11.013821   -0.932011   -0.645415
    116          6           0       -7.962526    1.185180   -1.061207
    117          6           0       -9.062476   -2.076490   -1.014631
    118          8           0       -7.947578   -2.336411   -1.338560
    119          6           0      -10.294672   -3.073042   -1.019839
    120          6           0      -10.397464   -3.597767   -2.425286
    121          8           0      -11.249234   -3.253201   -3.217661
    122          8           0       -9.380279   -4.447379   -2.611063
    123          6           0       -9.087458   -4.677024   -4.004672
    124          1           0      -17.096319   -2.230039   -0.183734
    125          1           0      -16.141899    4.099969    0.598442
    126          1           0       -9.862168    3.246536   -0.171719
    127          1           0      -13.034977   -4.696092   -1.299190
    128          1           0      -15.552372   -4.271058    0.238364
    129          1           0      -16.190899   -3.671861   -2.450822
    130          1           0      -15.971423   -5.255201   -1.602659
    131          1           0      -14.617121   -4.627337   -2.525957
    132          1           0      -13.791567   -4.886147    1.540664
    133          1           0      -12.256484   -4.124441    1.398182
    134          1           0      -12.571266   -6.742923    1.549291
    135          1           0      -11.077873   -6.105993    0.854932
    136          1           0      -19.736075    0.165535   -0.438040
    137          1           0      -19.646355   -0.481911    1.177188
    138          1           0      -18.868476   -1.405878   -0.161972
    139          1           0      -20.528919    2.098496    0.048891
    140          1           0      -20.749577    3.258281    1.321656
    141          1           0      -20.266693    1.682301    1.892176
    142          1           0      -13.942359    5.454559    1.299364
    143          1           0      -11.592179    5.393898   -0.325695
    144          1           0      -15.227561    5.188287   -1.158893
    145          1           0      -13.587761    5.475362   -1.740503
    146          1           0      -14.457365    6.665316   -0.732738
    147          1           0      -11.422026    6.264888    1.812211
    148          1           0      -10.460993    4.746901    1.749140
    149          1           0      -12.753599    5.366193    3.527939
    150          1           0      -11.097706    4.761844    3.853329
    151          1           0      -12.245802    3.638978    3.268977
    152          1           0       -7.577016    1.762494   -0.220662
    153          1           0       -8.178478    1.856913   -1.891764
    154          1           0       -7.133271    0.491170   -1.205284
    155          1           0      -10.239416   -3.953157   -0.378926
    156          1           0       -8.037438   -4.886829   -4.207129
    157          1           0       -9.474744   -4.023805   -4.786475
    158          1           0       -9.561030   -5.573796   -4.404795
 ---------------------------------------------------------------------

 SCF Done:  E(RwB97XD) =  -4070.60729494     A.U. after   19 cycles

 Excitation energies and oscillator strengths:

 Excited State   1:      Singlet-A      1.6233 eV  763.80 nm  f=0.4669  <S**2>=0.000
     309 -> 316       -0.17802
     312 -> 313        0.68159
     309 <- 316       -0.11589
 This state for optimization and/or second-order correction.
 Total Energy, E(TD-HF/TD-DFT) =  -4070.54764116
 Copying the excited state density for this state as the 1-particle RhoCI density.

 Excited State   2:      Singlet-A      1.6517 eV  750.63 nm  f=0.3325  <S**2>=0.000
     310 -> 315       -0.18009
     311 -> 314        0.68130
     310 <- 315       -0.11507

 Excited State   3:      Singlet-A      2.1424 eV  578.73 nm  f=0.1223  <S**2>=0.000
     309 -> 313        0.64786
     312 -> 316        0.26638

 Excited State   4:      Singlet-A      2.1707 eV  571.18 nm  f=0.1281  <S**2>=0.000
     310 -> 314        0.64449
     311 -> 315        0.27778

 Excited State   5:      Singlet-A      3.7378 eV  331.70 nm  f=0.0000  <S**2>=0.000
     311 -> 313        0.70701

 The electronic state is 1-A.
 Alpha  occ. eigenvalues --  -46.94957 -46.94396 -19.31381 -19.30450 -19.25004
 Alpha  occ. eigenvalues --  -19.24542 -19.24424 -19.24096 -19.23559 -19.23437
 Alpha  occ. eigenvalues --  -14.46816 -14.46480 -14.46297 -14.45999 -14.44094
 Alpha  occ. eigenvalues --  -14.43985 -14.43678 -14.43646 -10.43152 -10.42297
 Alpha  occ. eigenvalues --  -10.39741 -10.39521 -10.39027 -10.38843 -10.36269
 Alpha  occ. eigenvalues --  -10.35648 -10.35361 -10.35097 -10.34779 -10.34671
 Alpha  occ. eigenvalues --  -10.34495 -10.34307 -10.34260 -10.34256 -10.33862
 Alpha  occ. eigenvalues --  -10.33799 -10.33663 -10.33599 -10.33590 -10.33580
 Alpha  occ. eigenvalues --  -10.33196 -10.33009 -10.32941 -10.32728 -10.32616
 Alpha  occ. eigenvalues --  -10.32595 -10.32422 -10.32325 -10.32322 -10.32251
 Alpha  occ. eigenvalues --  -10.32183 -10.32152 -10.31984 -10.31888 -10.31843
 Alpha  occ. eigenvalues --  -10.31828 -10.31733 -10.31686 -10.31665 -10.31606
 Alpha  occ. eigenvalues --  -10.31140 -10.31054 -10.31016 -10.30952 -10.30758
 Alpha  occ. eigenvalues --  -10.30726 -10.30645 -10.30597 -10.30552 -10.30458
 Alpha  occ. eigenvalues --  -10.30297 -10.30246 -10.30173 -10.29937 -10.29917
 Alpha  occ. eigenvalues --  -10.29732 -10.29639 -10.29635 -10.29610 -10.29597
 Alpha  occ. eigenvalues --  -10.29395 -10.29300 -10.29156 -10.29063 -10.28803
 Alpha  occ. eigenvalues --  -10.28758  -3.21022  -3.20428  -1.94577  -1.94153
 Alpha  occ. eigenvalues --   -1.94021  -1.94000  -1.93531  -1.93420  -1.20350
 Alpha  occ. eigenvalues --   -1.18712  -1.14282  -1.13048  -1.11267  -1.10682
 Alpha  occ. eigenvalues --   -1.10461  -1.09545  -1.06672  -1.06163  -1.05510
 Alpha  occ. eigenvalues --   -1.05307  -1.05133  -1.04721  -1.03917  -1.03114
 Alpha  occ. eigenvalues --   -0.94802  -0.94129  -0.90498  -0.90409  -0.90145
 Alpha  occ. eigenvalues --   -0.89965  -0.89955  -0.89604  -0.89046  -0.89000
 Alpha  occ. eigenvalues --   -0.88942  -0.88406  -0.88352  -0.87899  -0.86139
 Alpha  occ. eigenvalues --   -0.86002  -0.85862  -0.85239  -0.84549  -0.84130
 Alpha  occ. eigenvalues --   -0.83738  -0.83216  -0.83139  -0.82782  -0.82649
 Alpha  occ. eigenvalues --   -0.81848  -0.80215  -0.79618  -0.79594  -0.78995
 Alpha  occ. eigenvalues --   -0.78790  -0.78636  -0.78171  -0.77764  -0.76864
 Alpha  occ. eigenvalues --   -0.76778  -0.74942  -0.74471  -0.73388  -0.73120
 Alpha  occ. eigenvalues --   -0.70798  -0.70736  -0.70611  -0.69910  -0.69742
 Alpha  occ. eigenvalues --   -0.69600  -0.68912  -0.68303  -0.67791  -0.67465
 Alpha  occ. eigenvalues --   -0.67087  -0.66618  -0.66523  -0.66480  -0.66436
 Alpha  occ. eigenvalues --   -0.65844  -0.64400  -0.64349  -0.62484  -0.61963
 Alpha  occ. eigenvalues --   -0.61392  -0.61165  -0.60883  -0.60811  -0.60456
 Alpha  occ. eigenvalues --   -0.60366  -0.60021  -0.59974  -0.59451  -0.59218
 Alpha  occ. eigenvalues --   -0.58190  -0.58079  -0.57655  -0.57639  -0.57136
 Alpha  occ. eigenvalues --   -0.56888  -0.56344  -0.56277  -0.55871  -0.55436
 Alpha  occ. eigenvalues --   -0.55292  -0.55244  -0.55039  -0.54930  -0.54841
 Alpha  occ. eigenvalues --   -0.54535  -0.54418  -0.54243  -0.54076  -0.53991
 Alpha  occ. eigenvalues --   -0.53872  -0.53804  -0.53658  -0.53198  -0.53101
 Alpha  occ. eigenvalues --   -0.52844  -0.52559  -0.52530  -0.52456  -0.51989
 Alpha  occ. eigenvalues --   -0.51919  -0.51827  -0.51740  -0.51433  -0.51160
 Alpha  occ. eigenvalues --   -0.51040  -0.50994  -0.50718  -0.50693  -0.50477
 Alpha  occ. eigenvalues --   -0.50462  -0.50316  -0.50201  -0.50019  -0.49829
 Alpha  occ. eigenvalues --   -0.49663  -0.49640  -0.49374  -0.49346  -0.49068
 Alpha  occ. eigenvalues --   -0.48648  -0.48559  -0.48519  -0.48161  -0.48151
 Alpha  occ. eigenvalues --   -0.48067  -0.48037  -0.47813  -0.47726  -0.47462
 Alpha  occ. eigenvalues --   -0.47214  -0.47118  -0.47026  -0.46873  -0.46500
 Alpha  occ. eigenvalues --   -0.46447  -0.46417  -0.46229  -0.46180  -0.45742
 Alpha  occ. eigenvalues --   -0.45653  -0.45551  -0.45529  -0.45348  -0.45255
 Alpha  occ. eigenvalues --   -0.44973  -0.44963  -0.44889  -0.44679  -0.44589
 Alpha  occ. eigenvalues --   -0.44548  -0.44433  -0.44266  -0.43776  -0.43756
 Alpha  occ. eigenvalues --   -0.43684  -0.43469  -0.43328  -0.43243  -0.43185
 Alpha  occ. eigenvalues --   -0.42900  -0.42668  -0.42577  -0.42422  -0.42175
 Alpha  occ. eigenvalues --   -0.42159  -0.41603  -0.41428  -0.41247  -0.41021
 Alpha  occ. eigenvalues --   -0.40274  -0.39842  -0.39641  -0.39369  -0.39081
 Alpha  occ. eigenvalues --   -0.39043  -0.38956  -0.38523  -0.38419  -0.38216
 Alpha  occ. eigenvalues --   -0.38131  -0.38107  -0.36737  -0.36438  -0.36062
 Alpha  occ. eigenvalues --   -0.35691  -0.35223  -0.34908  -0.33785  -0.33684
 Alpha  occ. eigenvalues --   -0.33390  -0.33030  -0.32771  -0.32460  -0.32286
 Alpha  occ. eigenvalues --   -0.32256  -0.31670  -0.31570  -0.25740  -0.25662
 Alpha  occ. eigenvalues --   -0.22757  -0.22753
 Alpha virt. eigenvalues --   -0.07068  -0.06876   0.00631   0.00812   0.02224
 Alpha virt. eigenvalues --    0.02638   0.04167   0.04624   0.04949   0.05648
 Alpha virt. eigenvalues --    0.07134   0.07381   0.07877   0.08170   0.08344

 Mulliken charges:
               1
     1  Mg   0.966507
     2  C   -0.049182
     3  C   -0.089632
     4  C   -0.059820
     5  C   -0.106185
     6  N   -0.317542
     7  C    0.011340
     8  C   -0.040477
     9  C   -0.105277
    10  C    0.050208
    11  C   -0.005210
    12  C   -0.008602
    13  C   -0.109776
    14  H    0.017053
    15  N   -0.388065
    16  C    0.163893
    17  C   -0.188186
    18  C   -0.059228
    19  C    0.115257
    20  C    0.051849
    21  C    0.080797
    22  O   -0.219456
    23  C   -0.036901
    24  N   -0.403509
    25  C    0.019096
    26  C   -0.074842
    27  C   -0.053966
    28  C    0.103369
    29  C    0.032776
    30  C   -0.056528
    31  C   -0.031330
    32  N   -0.481544
    33  C    0.161793
    34  C   -0.187140
    35  C   -0.019170
    36  C    0.159814
    37  C    0.089860
    38  C    0.119907
    39  O   -0.226430
    40  C   -0.061680
    41  C    0.257965
    42  O   -0.245717
    43  O   -0.357551
    44  C    0.146450
    45  H   -0.009403
    46  H    0.024542
    47  H    0.000988
    48  H    0.044111
    49  H    0.046822
    50  H    0.047921
    51  H    0.045158
    52  H    0.037801
    53  H    0.030226
    54  H    0.028385
    55  H    0.044432
    56  H    0.052413
    57  H    0.066429
    58  H    0.038096
    59  H    0.031112
    60  H    0.036079
    61  H    0.074625
    62  H    0.049252
    63  H    0.043685
    64  H    0.035624
    65  H    0.053025
    66  H    0.026301
    67  H    0.041743
    68  H    0.029400
    69  H    0.020507
    70  H    0.036561
    71  H    0.025250
    72  H    0.038916
    73  H    0.066687
    74  H    0.037281
    75  H    0.055555
    76  H    0.058028
    77  H    0.070395
    78  H    0.046806
    79  H    0.060255
    80  Mg   0.964465
    81  C   -0.022345
    82  C   -0.067127
    83  C   -0.064426
    84  C   -0.108204
    85  N   -0.333596
    86  C    0.014201
    87  C   -0.076146
    88  C   -0.120582
    89  C    0.066871
    90  C    0.027399
    91  C   -0.000223
    92  C   -0.127118
    93  H    0.034863
    94  N   -0.460920
    95  C    0.133459
    96  C   -0.174237
    97  C   -0.090059
    98  C    0.138217
    99  C    0.086429
   100  C    0.051168
   101  O   -0.252433
   102  C   -0.016151
   103  N   -0.338827
   104  C    0.022067
   105  C   -0.061267
   106  C   -0.072426
   107  C    0.097046
   108  C    0.042008
   109  C   -0.059437
   110  C   -0.054456
   111  N   -0.488647
   112  C    0.148352
   113  C   -0.183936
   114  C   -0.008184
   115  C    0.148229
   116  C    0.079470
   117  C    0.095252
   118  O   -0.162792
   119  C   -0.097339
   120  C    0.245516
   121  O   -0.237045
   122  O   -0.309705
   123  C    0.141027
   124  H   -0.012941
   125  H    0.030814
   126  H    0.003262
   127  H    0.039772
   128  H    0.038845
   129  H    0.052117
   130  H    0.032862
   131  H    0.049428
   132  H    0.033262
   133  H    0.042419
   134  H    0.057065
   135  H    0.070121
   136  H    0.044556
   137  H    0.039332
   138  H    0.041508
   139  H    0.061726
   140  H    0.044418
   141  H    0.063971
   142  H    0.035122
   143  H    0.030207
   144  H    0.046232
   145  H    0.034997
   146  H    0.037224
   147  H    0.038871
   148  H    0.021551
   149  H    0.047704
   150  H    0.037371
   151  H    0.043690
   152  H    0.037721
   153  H    0.056704
   154  H    0.057442
   155  H    0.056512
   156  H    0.057967
   157  H    0.054624
   158  H    0.025112
 Sum of Mulliken charges =  -0.00000

 Dipole moment (field-independent basis, Debye):
    X=              0.3416    Y=             -3.6601    Z=             -3.4147  Tot=              5.0173
 Quadrupole moment (field-independent basis, Debye-Ang):
   XX=           -487.9267   YY=           -465.7187   ZZ=           -515.5683
   XY=             10.2504   XZ=            -69.3450   YZ=              7.1002

 Normal termination of Gaussian 16 at Sun Sep 19 06:45:14 2021.
