 Gaussian 16, Revision A.03,
 Gaussian 16:  ES64L-G16RevA.03 25-Dec-2016

 --------------------------------
 #p wB97XD/Def2SVP td=(nstates=5)
 --------------------------------

 --------------------------------
 TDDFT excited states in gaussian
 --------------------------------
 Symbolic Z-matrix:
 Charge =  0 Multiplicity = 1

                         Standard orientation:
 ---------------------------------------------------------------------
 Center     Atomic      Atomic             Coordinates (Angstroms)
 Number     Number       Type             X           Y           Z
 ---------------------------------------------------------------------
      1         12           0       -8.658928    0.423920   -0.424652
      2          6           0       -7.382948   -0.589418    2.564498
      3          6           0       -7.214382    3.521081    0.167057
      4          6           0       -9.589518    1.295125   -3.530711
      5          6           0       -9.491249   -2.902815   -1.215756
      6          7           0       -7.210112    1.268098    1.085403
      7          6           0       -6.895791    0.632944    2.232207
      8          6           0       -5.939570    1.404128    3.066648
      9          6           0       -6.209623    2.908874    2.437910
     10          6           0       -6.937660    2.575881    1.118590
     11          6           0       -6.995725    3.837971    3.409413
     12          6           0       -4.523452    0.912991    2.811394
     13          6           0       -3.960700    0.894271    1.315166
     14          1           0       -2.521659    1.303844    1.027404
     15          7           0       -8.439513    2.149659   -1.531528
     16          6           0       -7.928976    3.386483   -1.062596
     17          6           0       -8.223084    4.363185   -2.057435
     18          6           0       -8.850669    3.777102   -3.149675
     19          6           0       -9.041210    2.361823   -2.790148
     20          6           0       -7.810374    5.796574   -1.791249
     21          6           0       -9.200139    4.425192   -4.468037
     22          8           0       -8.895051    5.639188   -4.574578
     23          6           0       -9.640118    3.751696   -5.643561
     24          7           0       -9.230636   -0.718246   -2.200000
     25          6           0       -9.627342   -0.090516   -3.344066
     26          6           0      -10.105681   -1.109345   -4.406083
     27          6           0      -10.059939   -2.463618   -3.621328
     28          6           0       -9.490051   -2.027761   -2.282054
     29          6           0      -11.460442   -0.777789   -4.994512
     30          6           0       -9.155006   -3.561377   -4.398219
     31          6           0       -9.751126   -4.973685   -4.400971
     32          7           0       -8.510439   -1.474516    0.460448
     33          6           0       -9.051936   -2.678954    0.143034
     34          6           0       -8.952487   -3.504112    1.316106
     35          6           0       -8.331647   -2.746104    2.368472
     36          6           0       -8.063662   -1.525985    1.770188
     37          6           0       -9.187461   -4.975333    1.355679
     38          6           0       -7.796349   -2.717601    3.691607
     39          8           0       -7.862897   -3.656952    4.494445
     40          6           0       -7.207199   -1.330620    3.870651
     41          6           0       -7.880610   -0.676343    5.018794
     42          8           0       -7.856252   -1.216750    6.107066
     43          8           0       -8.404250    0.550391    4.745840
     44          6           0       -9.051531    1.216501    5.877758
     45          1           0       -7.008239    4.550512    0.467056
     46          1           0      -10.095796    1.646276   -4.432093
     47          1           0       -9.885485   -3.916494   -1.316388
     48          1           0       -6.064725    1.379863    4.149215
     49          1           0       -5.276195    3.466426    2.350487
     50          1           0       -6.412299    4.733087    3.621893
     51          1           0       -7.112900    3.288744    4.343986
     52          1           0       -7.991541    4.119816    3.064880
     53          1           0       -4.433287   -0.060368    3.294059
     54          1           0       -3.944391    1.519692    3.507496
     55          1           0       -4.499281    1.515370    0.599316
     56          1           0       -4.014411   -0.167524    1.076503
     57          1           0       -6.769550    5.860674   -2.109102
     58          1           0       -7.848925    5.980887   -0.718363
     59          1           0       -8.399789    6.570394   -2.283988
     60          1           0       -9.325853    4.270704   -6.549632
     61          1           0      -10.700651    3.497031   -5.630184
     62          1           0       -9.040086    2.843452   -5.679861
     63          1           0       -9.316365   -1.068333   -5.157495
     64          1           0      -11.076984   -2.796176   -3.414555
     65          1           0      -11.862551    0.181486   -4.669719
     66          1           0      -12.273807   -1.502872   -4.986481
     67          1           0      -11.212487   -0.536561   -6.028574
     68          1           0       -8.146010   -3.664141   -3.998747
     69          1           0       -8.947728   -3.266795   -5.426831
     70          1           0      -10.114347   -5.183682   -5.406623
     71          1           0      -10.635507   -4.970243   -3.763465
     72          1           0       -9.033997   -5.739288   -4.104460
     73          1           0      -10.212724   -5.325111    1.241046
     74          1           0       -8.780531   -5.301647    2.313515
     75          1           0       -8.656170   -5.497237    0.559712
     76          1           0       -6.153534   -1.478668    4.109030
     77          1           0       -8.314119    1.306487    6.675913
     78          1           0       -9.966126    0.722878    6.206709
     79          1           0       -9.469361    2.175313    5.571189
     80         12           0        8.911904    0.137986    0.024537
     81          6           0        6.508669   -2.359867    0.304918
     82          6           0        6.770069    2.309067    1.587167
     83          6           0       11.174511    2.617011   -0.566454
     84          6           0       10.853733   -2.218353   -1.794884
     85          7           0        6.871335    0.003310    0.815925
     86          6           0        6.156493   -1.160926    0.917592
     87          6           0        4.877754   -0.818369    1.686015
     88          6           0        4.859560    0.695337    1.802781
     89          6           0        6.293476    1.024242    1.403182
     90          6           0        3.828167    1.493173    1.051001
     91          6           0        4.677319   -1.594552    3.073679
     92          6           0        3.496668   -1.097733    3.968601
     93          1           0        2.107007   -1.766333    3.801629
     94          7           0        9.003828    2.132657    0.589922
     95          6           0        8.023012    2.849395    1.193106
     96          6           0        8.504014    4.202747    1.293822
     97          6           0        9.779242    4.282445    0.660850
     98          6           0       10.037308    3.003386    0.171198
     99          6           0        7.676010    5.253248    1.967347
    100          6           0       10.610278    5.576432    0.420771
    101          8           0       11.499165    5.623204   -0.410650
    102          6           0       10.323850    6.847624    1.065677
    103          7           0       10.641975    0.164450   -0.969186
    104          6           0       11.461062    1.289319   -1.061354
    105          6           0       12.772435    1.003441   -1.813543
    106          6           0       12.740994   -0.559299   -1.918731
    107          6           0       11.323233   -0.894096   -1.485453
    108          6           0       13.042679    1.823641   -3.006499
    109          6           0       13.881691   -1.434164   -1.154829
    110          6           0       14.802989   -2.371065   -1.941771
    111          7           0        8.722729   -1.926756   -0.698714
    112          6           0        9.591772   -2.694660   -1.421847
    113          6           0        9.062661   -3.997196   -1.649031
    114          6           0        7.825953   -3.952589   -0.898682
    115          6           0        7.641641   -2.625859   -0.418074
    116          6           0        9.771221   -5.070339   -2.384130
    117          6           0        6.727099   -4.766506   -0.432127
    118          8           0        6.456223   -5.948515   -0.513305
    119          6           0        5.793636   -3.700012    0.393122
    120          6           0        4.377794   -3.757651   -0.051705
    121          8           0        4.004012   -3.416090   -1.152320
    122          8           0        3.554814   -4.217415    0.907025
    123          6           0        2.067043   -4.081305    0.665847
    124          1           0        6.113721    2.991275    2.131967
    125          1           0       11.879243    3.430936   -0.748079
    126          1           0       11.602553   -2.791994   -2.345361
    127          1           0        4.133320   -1.175002    0.974300
    128          1           0        4.667104    0.973673    2.838623
    129          1           0        4.468300    1.914272    0.276364
    130          1           0        3.317528    2.220739    1.682036
    131          1           0        3.119386    0.859254    0.517767
    132          1           0        5.629890   -1.403189    3.568187
    133          1           0        4.543169   -2.659084    2.885296
    134          1           0        3.286300   -0.041241    3.807048
    135          1           0        3.802195   -1.201511    5.009739
    136          1           0        6.746836    4.948371    2.449797
    137          1           0        7.357041    5.926170    1.172085
    138          1           0        8.248999    5.871143    2.658998
    139          1           0        9.305647    7.235028    1.080675
    140          1           0       10.958008    7.680619    0.762538
    141          1           0       10.658146    6.659985    2.085824
    142          1           0       13.457083    1.285129   -1.013071
    143          1           0       12.747144   -0.653492   -3.004517
    144          1           0       13.909859    2.483423   -2.967534
    145          1           0       12.160726    2.439219   -3.185408
    146          1           0       13.237226    1.245145   -3.909514
    147          1           0       13.373365   -2.056490   -0.418586
    148          1           0       14.606889   -0.892150   -0.546675
    149          1           0       14.557607   -3.430390   -1.861779
    150          1           0       15.868237   -2.185975   -1.806543
    151          1           0       14.613546   -2.194867   -3.000711
    152          1           0       10.190907   -4.644849   -3.295373
    153          1           0        9.137222   -5.934238   -2.581885
    154          1           0       10.689588   -5.283857   -1.836273
    155          1           0        5.807702   -4.046283    1.426055
    156          1           0        1.659232   -4.819909    1.355591
    157          1           0        1.860925   -4.314740   -0.378527
    158          1           0        1.791495   -3.075034    0.981772
 ---------------------------------------------------------------------

 SCF Done:  E(RwB97XD) =  -4070.61206323     A.U. after   20 cycles

 Excitation energies and oscillator strengths:

 Excited State   1:      Singlet-A      1.6380 eV  756.92 nm  f=0.3377  <S**2>=0.000
     310 -> 316       -0.18371
     312 -> 314        0.68073
     310 <- 316       -0.11718
 This state for optimization and/or second-order correction.
 Total Energy, E(TD-HF/TD-DFT) =  -4070.55186716
 Copying the excited state density for this state as the 1-particle RhoCI density.

 Excited State   2:      Singlet-A      1.6892 eV  733.97 nm  f=0.4291  <S**2>=0.000
     309 -> 315        0.18149
     311 -> 313        0.68024
     309 <- 315        0.11244

 Excited State   3:      Singlet-A      2.1611 eV  573.70 nm  f=0.1243  <S**2>=0.000
     309 -> 313       -0.40472
     310 -> 314        0.49342
     311 -> 315        0.15908
     312 -> 316        0.23547

 Excited State   4:      Singlet-A      2.1647 eV  572.77 nm  f=0.0972  <S**2>=0.000
     309 -> 313        0.50571
     310 -> 314        0.39284
     311 -> 315       -0.20141
     312 -> 316        0.19032

 Excited State   5:      Singlet-A      3.3553 eV  369.52 nm  f=0.0000  <S**2>=0.000
     312 -> 313        0.70684

 The electronic state is 1-A.
 Alpha  occ. eigenvalues --  -46.95534 -46.94180 -19.31683 -19.29533 -19.24511
 Alpha  occ. eigenvalues --  -19.24075 -19.23664 -19.23383 -19.23283 -19.23115
 Alpha  occ. eigenvalues --  -14.47296 -14.46728 -14.46726 -14.46571 -14.44512
 Alpha  occ. eigenvalues --  -14.43645 -14.43241 -14.42981 -10.43387 -10.41713
 Alpha  occ. eigenvalues --  -10.39520 -10.38863 -10.38619 -10.38513 -10.36577
 Alpha  occ. eigenvalues --  -10.35792 -10.35729 -10.35621 -10.35396 -10.35320
 Alpha  occ. eigenvalues --  -10.35090 -10.35085 -10.34573 -10.34526 -10.34400
 Alpha  occ. eigenvalues --  -10.34268 -10.33818 -10.33700 -10.33502 -10.33231
 Alpha  occ. eigenvalues --  -10.33225 -10.32948 -10.32686 -10.32543 -10.32531
 Alpha  occ. eigenvalues --  -10.32518 -10.32456 -10.32414 -10.32236 -10.32225
 Alpha  occ. eigenvalues --  -10.32165 -10.32144 -10.32064 -10.31872 -10.31587
 Alpha  occ. eigenvalues --  -10.31581 -10.31513 -10.31512 -10.31429 -10.31407
 Alpha  occ. eigenvalues --  -10.31371 -10.31342 -10.31251 -10.31199 -10.31156
 Alpha  occ. eigenvalues --  -10.31094 -10.30971 -10.30925 -10.30914 -10.30911
 Alpha  occ. eigenvalues --  -10.30874 -10.30866 -10.30835 -10.30443 -10.30372
 Alpha  occ. eigenvalues --  -10.30337 -10.30089 -10.29992 -10.29588 -10.29548
 Alpha  occ. eigenvalues --  -10.29404 -10.29369 -10.29297 -10.29264 -10.28856
 Alpha  occ. eigenvalues --  -10.28620  -3.21439  -3.20257  -1.95000  -1.94580
 Alpha  occ. eigenvalues --   -1.94388  -1.93869  -1.93383  -1.93235  -1.19670
 Alpha  occ. eigenvalues --   -1.17920  -1.13167  -1.11681  -1.11320  -1.10679
 Alpha  occ. eigenvalues --   -1.10286  -1.08833  -1.07189  -1.07064  -1.06597
 Alpha  occ. eigenvalues --   -1.06088  -1.05298  -1.04808  -1.04373  -1.03664
 Alpha  occ. eigenvalues --   -0.96128  -0.94348  -0.91311  -0.91014  -0.90944
 Alpha  occ. eigenvalues --   -0.90731  -0.90543  -0.90233  -0.89796  -0.89455
 Alpha  occ. eigenvalues --   -0.88880  -0.88610  -0.88400  -0.87836  -0.87084
 Alpha  occ. eigenvalues --   -0.86490  -0.86049  -0.85556  -0.85349  -0.84781
 Alpha  occ. eigenvalues --   -0.84533  -0.84309  -0.83477  -0.83286  -0.82938
 Alpha  occ. eigenvalues --   -0.82647  -0.80724  -0.80633  -0.80036  -0.79676
 Alpha  occ. eigenvalues --   -0.79141  -0.79011  -0.78185  -0.77764  -0.77056
 Alpha  occ. eigenvalues --   -0.77004  -0.74730  -0.74547  -0.74188  -0.73752
 Alpha  occ. eigenvalues --   -0.72206  -0.71248  -0.71131  -0.70815  -0.70799
 Alpha  occ. eigenvalues --   -0.70181  -0.69228  -0.68893  -0.68513  -0.67493
 Alpha  occ. eigenvalues --   -0.67421  -0.67333  -0.67299  -0.66558  -0.66462
 Alpha  occ. eigenvalues --   -0.66158  -0.65882  -0.63336  -0.62495  -0.62285
 Alpha  occ. eigenvalues --   -0.61794  -0.61652  -0.61392  -0.60919  -0.60825
 Alpha  occ. eigenvalues --   -0.60769  -0.60453  -0.60092  -0.59923  -0.59166
 Alpha  occ. eigenvalues --   -0.58822  -0.58632  -0.58292  -0.57848  -0.57716
 Alpha  occ. eigenvalues --   -0.57211  -0.57161  -0.56675  -0.56559  -0.56429
 Alpha  occ. eigenvalues --   -0.56291  -0.55777  -0.55704  -0.55482  -0.55088
 Alpha  occ. eigenvalues --   -0.55052  -0.54873  -0.54531  -0.54490  -0.54195
 Alpha  occ. eigenvalues --   -0.53969  -0.53893  -0.53732  -0.53457  -0.53196
 Alpha  occ. eigenvalues --   -0.53073  -0.52862  -0.52844  -0.52718  -0.52419
 Alpha  occ. eigenvalues --   -0.52388  -0.52229  -0.51804  -0.51641  -0.51495
 Alpha  occ. eigenvalues --   -0.51337  -0.51190  -0.51119  -0.50985  -0.50847
 Alpha  occ. eigenvalues --   -0.50777  -0.50635  -0.50502  -0.50485  -0.50175
 Alpha  occ. eigenvalues --   -0.50139  -0.49616  -0.49615  -0.49337  -0.49098
 Alpha  occ. eigenvalues --   -0.49001  -0.48742  -0.48715  -0.48484  -0.48468
 Alpha  occ. eigenvalues --   -0.48454  -0.48426  -0.48116  -0.48067  -0.47977
 Alpha  occ. eigenvalues --   -0.47726  -0.47628  -0.47250  -0.47030  -0.46965
 Alpha  occ. eigenvalues --   -0.46892  -0.46676  -0.46669  -0.46568  -0.46558
 Alpha  occ. eigenvalues --   -0.46281  -0.46139  -0.45886  -0.45757  -0.45599
 Alpha  occ. eigenvalues --   -0.45593  -0.45251  -0.44843  -0.44740  -0.44596
 Alpha  occ. eigenvalues --   -0.44389  -0.44292  -0.44233  -0.43946  -0.43882
 Alpha  occ. eigenvalues --   -0.43782  -0.43687  -0.43382  -0.43372  -0.43201
 Alpha  occ. eigenvalues --   -0.43157  -0.43054  -0.42784  -0.42398  -0.42236
 Alpha  occ. eigenvalues --   -0.42070  -0.41445  -0.41391  -0.41146  -0.41134
 Alpha  occ. eigenvalues --   -0.40770  -0.40659  -0.39883  -0.39825  -0.39669
 Alpha  occ. eigenvalues --   -0.39548  -0.39172  -0.39084  -0.38846  -0.38236
 Alpha  occ. eigenvalues --   -0.37994  -0.37974  -0.36802  -0.36173  -0.36050
 Alpha  occ. eigenvalues --   -0.35997  -0.35366  -0.34899  -0.34064  -0.33228
 Alpha  occ. eigenvalues --   -0.33135  -0.32864  -0.32470  -0.32372  -0.32170
 Alpha  occ. eigenvalues --   -0.31864  -0.31198  -0.31174  -0.26289  -0.26082
 Alpha  occ. eigenvalues --   -0.23541  -0.22888
 Alpha virt. eigenvalues --   -0.07560  -0.07119  -0.00009   0.00078   0.02146
 Alpha virt. eigenvalues --    0.02721   0.04060   0.04402   0.04868   0.06522
 Alpha virt. eigenvalues --    0.07264   0.07425   0.07918   0.07999   0.08412

 Mulliken charges:
               1
     1  Mg   0.931638
     2  C   -0.001229
     3  C   -0.066097
     4  C   -0.091153
     5  C   -0.077090
     6  N   -0.307338
     7  C    0.003584
     8  C   -0.073917
     9  C   -0.126365
    10  C    0.080626
    11  C    0.020618
    12  C    0.008145
    13  C   -0.130371
    14  H    0.034679
    15  N   -0.514445
    16  C    0.149042
    17  C   -0.151893
    18  C   -0.055218
    19  C    0.178062
    20  C    0.087445
    21  C    0.034536
    22  O   -0.270936
    23  C    0.016983
    24  N   -0.324735
    25  C    0.043554
    26  C   -0.057441
    27  C   -0.088668
    28  C    0.106008
    29  C    0.017317
    30  C   -0.010083
    31  C   -0.055853
    32  N   -0.439814
    33  C    0.094649
    34  C   -0.179618
    35  C    0.011838
    36  C    0.117492
    37  C    0.047944
    38  C    0.070763
    39  O   -0.201818
    40  C   -0.081016
    41  C    0.256918
    42  O   -0.227852
    43  O   -0.352596
    44  C    0.138908
    45  H   -0.004218
    46  H   -0.036891
    47  H   -0.004790
    48  H    0.021877
    49  H    0.036782
    50  H    0.037668
    51  H    0.026359
    52  H    0.039460
    53  H    0.024470
    54  H    0.031671
    55  H    0.078979
    56  H    0.066426
    57  H    0.053580
    58  H    0.029683
    59  H    0.064029
    60  H    0.061396
    61  H    0.077343
    62  H    0.047853
    63  H    0.050179
    64  H    0.040845
    65  H    0.036009
    66  H    0.052109
    67  H    0.027399
    68  H    0.036762
    69  H    0.028452
    70  H    0.035235
    71  H    0.031151
    72  H    0.047661
    73  H    0.038615
    74  H    0.058165
    75  H    0.038176
    76  H    0.088884
    77  H    0.063133
    78  H    0.059309
    79  H    0.051036
    80  Mg   0.970019
    81  C    0.027017
    82  C   -0.088439
    83  C   -0.071896
    84  C   -0.105580
    85  N   -0.331694
    86  C   -0.006545
    87  C   -0.044498
    88  C   -0.151371
    89  C    0.059720
    90  C    0.050734
    91  C    0.000308
    92  C   -0.115887
    93  H    0.030348
    94  N   -0.488161
    95  C    0.172376
    96  C   -0.166838
    97  C   -0.057491
    98  C    0.125796
    99  C    0.053473
   100  C    0.071552
   101  O   -0.233818
   102  C   -0.004420
   103  N   -0.422933
   104  C    0.060662
   105  C   -0.086696
   106  C   -0.053602
   107  C    0.048581
   108  C    0.043023
   109  C   -0.002771
   110  C   -0.069017
   111  N   -0.373808
   112  C    0.159986
   113  C   -0.166745
   114  C   -0.076249
   115  C    0.113038
   116  C    0.102543
   117  C    0.145500
   118  O   -0.192920
   119  C   -0.138454
   120  C    0.241300
   121  O   -0.254580
   122  O   -0.372406
   123  C    0.133401
   124  H   -0.016460
   125  H    0.028580
   126  H    0.001643
   127  H    0.035615
   128  H    0.021718
   129  H    0.039062
   130  H    0.043103
   131  H    0.038900
   132  H    0.034337
   133  H    0.061251
   134  H    0.043162
   135  H    0.059247
   136  H    0.039469
   137  H    0.049698
   138  H    0.047004
   139  H    0.056457
   140  H    0.050035
   141  H    0.049705
   142  H    0.038371
   143  H    0.031727
   144  H    0.040489
   145  H    0.046704
   146  H    0.027843
   147  H    0.036177
   148  H    0.035505
   149  H    0.039414
   150  H    0.045717
   151  H    0.018464
   152  H    0.034716
   153  H    0.072764
   154  H    0.044377
   155  H    0.067671
   156  H    0.063539
   157  H    0.081787
   158  H    0.059655
 Sum of Mulliken charges =  -0.00000

 Dipole moment (field-independent basis, Debye):
    X=             -1.4462    Y=              5.9621    Z=             -0.3332  Tot=              6.1441
 Quadrupole moment (field-independent basis, Debye-Ang):
   XX=           -420.3875   YY=           -550.3978   ZZ=           -510.4960
   XY=              1.1757   XZ=             48.4389   YZ=             63.3677

 Normal termination of Gaussian 16 at Sun Sep 19 20:37:09 2021.
