 Gaussian 16, Revision A.03,
 Gaussian 16:  ES64L-G16RevA.03 25-Dec-2016

 --------------------------------
 #p wB97XD/Def2SVP td=(nstates=5)
 --------------------------------

 --------------------------------
 TDDFT excited states in gaussian
 --------------------------------
 Symbolic Z-matrix:
 Charge =  0 Multiplicity = 1

                         Standard orientation:
 ---------------------------------------------------------------------
 Center     Atomic      Atomic             Coordinates (Angstroms)
 Number     Number       Type             X           Y           Z
 ---------------------------------------------------------------------
      1         12           0      -26.626045    0.078334   -0.078125
      2          6           0      -23.233619    0.938981   -0.122942
      3          6           0      -26.216919   -0.777443   -3.403924
      4          6           0      -29.750808   -1.095055   -0.046164
      5          6           0      -26.586706    0.193446    3.415524
      6          7           0      -24.724454   -0.082539   -1.576789
      7          6           0      -23.503789    0.447311   -1.369163
      8          6           0      -22.581585    0.324216   -2.558286
      9          6           0      -23.704474    0.046663   -3.629087
     10          6           0      -24.969347   -0.351018   -2.875242
     11          6           0      -23.999592    1.340145   -4.434447
     12          6           0      -21.480208   -0.713255   -2.306095
     13          6           0      -21.816432   -2.025619   -1.567763
     14          1           0      -21.318824   -3.307061   -2.225925
     15          7           0      -27.812052   -0.790658   -1.500446
     16          6           0      -27.484890   -0.934368   -2.822728
     17          6           0      -28.718035   -1.110205   -3.600906
     18          6           0      -29.777400   -1.370029   -2.642210
     19          6           0      -29.118760   -1.066913   -1.335021
     20          6           0      -28.717045   -1.358988   -5.157764
     21          6           0      -31.203051   -1.834241   -2.950584
     22          8           0      -31.594866   -1.892576   -4.082766
     23          6           0      -32.140747   -2.176587   -1.828978
     24          7           0      -27.900343   -0.587216    1.552445
     25          6           0      -29.242307   -0.947656    1.329825
     26          6           0      -30.051689   -1.182968    2.674749
     27          6           0      -28.990075   -0.687102    3.768224
     28          6           0      -27.740078   -0.288438    2.857453
     29          6           0      -31.518921   -0.547759    2.863295
     30          6           0      -28.621986   -1.697369    4.948417
     31          6           0      -28.321399   -0.893035    6.308086
     32          7           0      -25.240701    0.531360    1.419553
     33          6           0      -25.402226    0.621415    2.787177
     34          6           0      -24.173118    1.133361    3.380875
     35          6           0      -23.269977    1.356031    2.309563
     36          6           0      -23.949757    0.893328    1.125524
     37          6           0      -23.969402    1.532360    4.818992
     38          6           0      -21.892459    1.745145    1.863633
     39          8           0      -20.912205    2.033375    2.513346
     40          6           0      -21.889682    1.528518    0.290748
     41          6           0      -21.630720    2.875116   -0.327049
     42          8           0      -20.499807    3.420658   -0.374176
     43          8           0      -22.783307    3.330185   -0.950924
     44          6           0      -22.621875    4.483697   -1.771511
     45          1           0      -26.114786   -0.961527   -4.475515
     46          1           0      -30.823052   -1.267806    0.069415
     47          1           0      -26.654243    0.414269    4.482945
     48          1           0      -22.151169    1.285997   -2.836617
     49          1           0      -23.523516   -0.733091   -4.367669
     50          1           0      -25.062998    1.305218   -4.672436
     51          1           0      -23.326181    1.422653   -5.286396
     52          1           0      -23.962203    2.303667   -3.925218
     53          1           0      -20.765449   -0.224636   -1.644640
     54          1           0      -21.008317   -0.943423   -3.261389
     55          1           0      -22.899655   -2.131082   -1.513019
     56          1           0      -21.342669   -1.991757   -0.587112
     57          1           0      -28.436894   -2.367074   -5.464551
     58          1           0      -28.051843   -0.642717   -5.640129
     59          1           0      -29.647124   -1.135047   -5.678899
     60          1           0      -33.061090   -2.635186   -2.192051
     61          1           0      -32.410867   -1.315572   -1.217269
     62          1           0      -31.599035   -2.977797   -1.325572
     63          1           0      -30.116431   -2.270171    2.652663
     64          1           0      -29.319213    0.238180    4.240232
     65          1           0      -32.234461   -1.283916    2.498848
     66          1           0      -31.620571    0.391938    2.321104
     67          1           0      -31.665761   -0.330182    3.921415
     68          1           0      -27.672372   -2.196132    4.754916
     69          1           0      -29.394849   -2.456490    5.071424
     70          1           0      -27.298743   -1.063518    6.644799
     71          1           0      -29.002710   -1.233190    7.087416
     72          1           0      -28.332388    0.196245    6.291891
     73          1           0      -24.158622    0.661966    5.446340
     74          1           0      -24.680848    2.314279    5.085466
     75          1           0      -22.946784    1.850796    5.020694
     76          1           0      -20.989289    0.941432    0.111224
     77          1           0      -23.560493    4.692908   -2.284155
     78          1           0      -21.750917    4.388560   -2.420189
     79          1           0      -22.494733    5.391168   -1.181291
     80         12           0       25.649430   -0.839957   -0.298378
     81          6           0       26.789508    2.451868   -0.477925
     82          6           0       22.983588    0.172831    1.417554
     83          6           0       25.388180   -4.019304    0.929873
     84          6           0       28.481923   -1.856609   -2.053277
     85          7           0       24.875012    1.141830    0.254095
     86          6           0       25.493476    2.300630    0.062073
     87          6           0       24.535258    3.468278    0.495851
     88          6           0       23.385907    2.703250    1.194742
     89          6           0       23.757993    1.239660    0.977146
     90          6           0       23.321630    2.929399    2.786363
     91          6           0       23.998100    4.385621   -0.694641
     92          6           0       23.987085    5.831587   -0.334129
     93          1           0       22.720681    6.646941   -0.545456
     94          7           0       24.341857   -1.779182    0.976495
     95          6           0       23.266645   -1.185109    1.582459
     96          6           0       22.398635   -2.236104    2.131556
     97          6           0       23.114261   -3.456855    1.982681
     98          6           0       24.370936   -3.088721    1.309593
     99          6           0       21.040424   -1.937093    2.842817
    100          6           0       22.726007   -4.880675    2.483477
    101          8           0       23.408099   -5.883312    2.303691
    102          6           0       21.438136   -5.037774    3.199690
    103          7           0       26.744368   -2.616270   -0.485596
    104          6           0       26.506627   -3.830726    0.165020
    105          6           0       27.697804   -4.793147   -0.081483
    106          6           0       28.268370   -4.298194   -1.482306
    107          6           0       27.776057   -2.832583   -1.315801
    108          6           0       28.702691   -4.831234    1.089882
    109          6           0       27.695424   -4.929209   -2.719458
    110          6           0       26.357316   -4.511980   -3.253311
    111          7           0       27.221551    0.050302   -1.299132
    112          6           0       28.324681   -0.468833   -1.936510
    113          6           0       29.207556    0.581735   -2.448554
    114          6           0       28.694237    1.795083   -1.802661
    115          6           0       27.489246    1.379913   -1.112795
    116          6           0       30.436953    0.392222   -3.178424
    117          6           0       28.910600    3.220097   -1.583943
    118          8           0       29.783221    3.945410   -1.884087
    119          6           0       27.608991    3.716916   -0.763506
    120          6           0       27.921248    4.568782    0.440810
    121          8           0       28.071969    4.149958    1.584726
    122          8           0       27.911686    5.907765    0.051345
    123          6           0       28.164593    6.922353    1.090456
    124          1           0       21.980834    0.322662    1.824018
    125          1           0       25.251099   -5.008052    1.373490
    126          1           0       29.293620   -2.236518   -2.676608
    127          1           0       24.987042    4.111562    1.251365
    128          1           0       22.375622    2.935449    0.857881
    129          1           0       22.640572    3.763391    2.957041
    130          1           0       24.258265    3.234209    3.252456
    131          1           0       22.906029    2.026209    3.234693
    132          1           0       22.980929    4.118854   -0.982002
    133          1           0       24.538189    4.296374   -1.637318
    134          1           0       24.698722    6.263666   -1.037147
    135          1           0       24.326410    6.112588    0.662472
    136          1           0       21.284231   -1.803829    3.896436
    137          1           0       20.304780   -2.718226    2.649577
    138          1           0       20.647974   -0.938180    2.649455
    139          1           0       21.095017   -4.303265    3.928127
    140          1           0       21.429085   -5.988895    3.731454
    141          1           0       20.660612   -5.301151    2.482051
    142          1           0       27.214719   -5.760436   -0.216608
    143          1           0       29.352282   -4.393126   -1.544820
    144          1           0       29.746807   -4.637230    0.844275
    145          1           0       28.580606   -5.695937    1.742559
    146          1           0       28.472593   -4.037032    1.799873
    147          1           0       27.598285   -6.012844   -2.665244
    148          1           0       28.403595   -4.763126   -3.531381
    149          1           0       26.631235   -3.772920   -4.006000
    150          1           0       25.696959   -4.010139   -2.545734
    151          1           0       25.863332   -5.375867   -3.699208
    152          1           0       30.489266    1.218683   -3.887406
    153          1           0       30.341751   -0.544107   -3.727705
    154          1           0       31.287852    0.429040   -2.498906
    155          1           0       27.021808    4.332015   -1.445407
    156          1           0       29.094089    6.641969    1.586695
    157          1           0       27.377424    6.910631    1.843873
    158          1           0       28.245131    7.972588    0.809575
 ---------------------------------------------------------------------

 SCF Done:  E(RwB97XD) =  -4070.61475830     A.U. after   17 cycles

 Excitation energies and oscillator strengths:

 Excited State   1:      Singlet-A      1.6238 eV  763.56 nm  f=0.3785  <S**2>=0.000
     310 -> 316        0.18256
     312 -> 314        0.68421
     310 <- 316        0.11751
 This state for optimization and/or second-order correction.
 Total Energy, E(TD-HF/TD-DFT) =  -4070.55508596
 Copying the excited state density for this state as the 1-particle RhoCI density.

 Excited State   2:      Singlet-A      1.6941 eV  731.88 nm  f=0.3563  <S**2>=0.000
     309 -> 315        0.19919
     311 -> 313        0.67862
     309 <- 315        0.11862

 Excited State   3:      Singlet-A      2.1841 eV  567.66 nm  f=0.1018  <S**2>=0.000
     309 -> 313        0.63341
     311 -> 315       -0.30082

 Excited State   4:      Singlet-A      2.2000 eV  563.56 nm  f=0.1019  <S**2>=0.000
     310 -> 314        0.63107
     312 -> 316       -0.30779

 Excited State   5:      Singlet-A      3.3924 eV  365.48 nm  f=0.0179  <S**2>=0.000
     308 -> 314        0.66084
     312 -> 316        0.17978

 The electronic state is 1-A.
 Alpha  occ. eigenvalues --  -46.96757 -46.94242 -19.31266 -19.30250 -19.25028
 Alpha  occ. eigenvalues --  -19.25006 -19.24735 -19.24588 -19.24159 -19.24092
 Alpha  occ. eigenvalues --  -14.46860 -14.46740 -14.46430 -14.46004 -14.45149
 Alpha  occ. eigenvalues --  -14.44061 -14.43885 -14.43773 -10.43868 -10.43539
 Alpha  occ. eigenvalues --  -10.39826 -10.39570 -10.39529 -10.39304 -10.36972
 Alpha  occ. eigenvalues --  -10.35968 -10.35723 -10.35528 -10.35343 -10.35201
 Alpha  occ. eigenvalues --  -10.34977 -10.34594 -10.34577 -10.34539 -10.34215
 Alpha  occ. eigenvalues --  -10.34000 -10.33974 -10.33858 -10.33818 -10.33782
 Alpha  occ. eigenvalues --  -10.33575 -10.33509 -10.33354 -10.33268 -10.33036
 Alpha  occ. eigenvalues --  -10.32888 -10.32824 -10.32609 -10.32521 -10.32501
 Alpha  occ. eigenvalues --  -10.32466 -10.32444 -10.32355 -10.32334 -10.32208
 Alpha  occ. eigenvalues --  -10.32183 -10.32160 -10.32056 -10.31923 -10.31911
 Alpha  occ. eigenvalues --  -10.31833 -10.31749 -10.31686 -10.31642 -10.31591
 Alpha  occ. eigenvalues --  -10.31441 -10.31124 -10.30836 -10.30799 -10.30715
 Alpha  occ. eigenvalues --  -10.30347 -10.30297 -10.30169 -10.30165 -10.30137
 Alpha  occ. eigenvalues --  -10.30132 -10.30130 -10.29958 -10.29950 -10.29802
 Alpha  occ. eigenvalues --  -10.29770 -10.29639 -10.29455 -10.29359 -10.29349
 Alpha  occ. eigenvalues --  -10.28340  -3.22602  -3.20362  -1.96146  -1.95735
 Alpha  occ. eigenvalues --   -1.95553  -1.93959  -1.93465  -1.93365  -1.18648
 Alpha  occ. eigenvalues --   -1.17314  -1.15207  -1.13767  -1.12902  -1.12322
 Alpha  occ. eigenvalues --   -1.09645  -1.09267  -1.07147  -1.06815  -1.05979
 Alpha  occ. eigenvalues --   -1.05551  -1.04969  -1.04873  -1.04155  -1.03923
 Alpha  occ. eigenvalues --   -0.94484  -0.93834  -0.90913  -0.90870  -0.90444
 Alpha  occ. eigenvalues --   -0.90316  -0.89923  -0.89605  -0.89281  -0.89120
 Alpha  occ. eigenvalues --   -0.88797  -0.88190  -0.87997  -0.87686  -0.86779
 Alpha  occ. eigenvalues --   -0.86034  -0.85469  -0.85266  -0.84632  -0.84425
 Alpha  occ. eigenvalues --   -0.83823  -0.83741  -0.82932  -0.82770  -0.82361
 Alpha  occ. eigenvalues --   -0.82310  -0.80167  -0.79513  -0.79239  -0.79145
 Alpha  occ. eigenvalues --   -0.78657  -0.78651  -0.78341  -0.77738  -0.77298
 Alpha  occ. eigenvalues --   -0.76763  -0.74810  -0.74231  -0.74058  -0.73412
 Alpha  occ. eigenvalues --   -0.71877  -0.71353  -0.71119  -0.70485  -0.70241
 Alpha  occ. eigenvalues --   -0.69658  -0.69224  -0.68677  -0.67844  -0.67616
 Alpha  occ. eigenvalues --   -0.66871  -0.66862  -0.66639  -0.66593  -0.66220
 Alpha  occ. eigenvalues --   -0.66014  -0.65711  -0.63786  -0.62111  -0.62097
 Alpha  occ. eigenvalues --   -0.61523  -0.61287  -0.60960  -0.60855  -0.60173
 Alpha  occ. eigenvalues --   -0.60079  -0.59734  -0.59733  -0.59354  -0.59189
 Alpha  occ. eigenvalues --   -0.58284  -0.58039  -0.57768  -0.57495  -0.57459
 Alpha  occ. eigenvalues --   -0.57278  -0.57023  -0.56735  -0.56229  -0.56033
 Alpha  occ. eigenvalues --   -0.55672  -0.55499  -0.55288  -0.55155  -0.55035
 Alpha  occ. eigenvalues --   -0.54842  -0.54779  -0.54405  -0.54068  -0.53867
 Alpha  occ. eigenvalues --   -0.53678  -0.53641  -0.53528  -0.53370  -0.53286
 Alpha  occ. eigenvalues --   -0.53184  -0.53047  -0.52664  -0.52496  -0.52308
 Alpha  occ. eigenvalues --   -0.52100  -0.52028  -0.51988  -0.51923  -0.51698
 Alpha  occ. eigenvalues --   -0.51528  -0.51516  -0.51408  -0.51024  -0.50904
 Alpha  occ. eigenvalues --   -0.50611  -0.50502  -0.50316  -0.50207  -0.49878
 Alpha  occ. eigenvalues --   -0.49703  -0.49525  -0.49288  -0.49192  -0.48900
 Alpha  occ. eigenvalues --   -0.48869  -0.48749  -0.48647  -0.48488  -0.48277
 Alpha  occ. eigenvalues --   -0.48163  -0.48024  -0.48018  -0.47724  -0.47639
 Alpha  occ. eigenvalues --   -0.47471  -0.47399  -0.47266  -0.47132  -0.47109
 Alpha  occ. eigenvalues --   -0.46848  -0.46847  -0.46528  -0.46255  -0.46196
 Alpha  occ. eigenvalues --   -0.46073  -0.45913  -0.45828  -0.45632  -0.45619
 Alpha  occ. eigenvalues --   -0.45407  -0.45250  -0.45237  -0.45177  -0.44949
 Alpha  occ. eigenvalues --   -0.44718  -0.44689  -0.44568  -0.44261  -0.44187
 Alpha  occ. eigenvalues --   -0.43945  -0.43762  -0.43651  -0.43491  -0.43421
 Alpha  occ. eigenvalues --   -0.43337  -0.43143  -0.43062  -0.42358  -0.42281
 Alpha  occ. eigenvalues --   -0.42092  -0.41838  -0.41024  -0.41016  -0.40872
 Alpha  occ. eigenvalues --   -0.40569  -0.40096  -0.39935  -0.39578  -0.39369
 Alpha  occ. eigenvalues --   -0.39248  -0.38920  -0.38810  -0.38629  -0.38574
 Alpha  occ. eigenvalues --   -0.38263  -0.37817  -0.36694  -0.36421  -0.36403
 Alpha  occ. eigenvalues --   -0.36255  -0.35405  -0.35041  -0.33575  -0.33377
 Alpha  occ. eigenvalues --   -0.33255  -0.33243  -0.33106  -0.32947  -0.32833
 Alpha  occ. eigenvalues --   -0.32164  -0.31877  -0.31744  -0.25975  -0.25882
 Alpha  occ. eigenvalues --   -0.23232  -0.22562
 Alpha virt. eigenvalues --   -0.07005  -0.06788  -0.00194   0.00561   0.02165
 Alpha virt. eigenvalues --    0.02506   0.03909   0.04127   0.04563   0.05935
 Alpha virt. eigenvalues --    0.06640   0.06752   0.07882   0.08098   0.08629

 Mulliken charges:
               1
     1  Mg   0.954639
     2  C    0.126757
     3  C   -0.086876
     4  C   -0.102768
     5  C   -0.086851
     6  N   -0.280248
     7  C   -0.106256
     8  C    0.024778
     9  C   -0.115331
    10  C    0.019701
    11  C    0.018042
    12  C    0.021070
    13  C   -0.133112
    14  H    0.032689
    15  N   -0.458890
    16  C    0.175469
    17  C   -0.148321
    18  C   -0.099923
    19  C    0.211710
    20  C    0.047831
    21  C    0.038159
    22  O   -0.200595
    23  C   -0.012811
    24  N   -0.368006
    25  C    0.007623
    26  C   -0.062964
    27  C   -0.084128
    28  C    0.069660
    29  C    0.005025
    30  C   -0.009859
    31  C   -0.094191
    32  N   -0.439617
    33  C    0.139029
    34  C   -0.213519
    35  C   -0.016301
    36  C    0.078808
    37  C    0.071669
    38  C    0.139931
    39  O   -0.173461
    40  C   -0.211060
    41  C    0.295918
    42  O   -0.266955
    43  O   -0.352076
    44  C    0.141312
    45  H    0.007231
    46  H   -0.025090
    47  H   -0.020852
    48  H    0.029492
    49  H    0.028321
    50  H    0.024575
    51  H    0.050163
    52  H    0.027408
    53  H    0.036964
    54  H    0.046178
    55  H    0.070696
    56  H    0.060462
    57  H    0.063289
    58  H    0.025814
    59  H    0.056093
    60  H    0.047008
    61  H    0.080157
    62  H    0.053732
    63  H    0.053710
    64  H    0.040279
    65  H    0.049445
    66  H    0.047511
    67  H    0.050486
    68  H    0.049736
    69  H    0.043985
    70  H    0.038448
    71  H    0.044476
    72  H    0.040085
    73  H    0.037454
    74  H    0.051969
    75  H    0.058874
    76  H    0.085117
    77  H    0.049531
    78  H    0.054953
    79  H    0.046603
    80  Mg   0.983901
    81  C    0.016706
    82  C   -0.089924
    83  C   -0.082469
    84  C   -0.106058
    85  N   -0.316773
    86  C    0.009759
    87  C   -0.040627
    88  C   -0.128954
    89  C    0.104159
    90  C   -0.004738
    91  C    0.028202
    92  C   -0.147847
    93  H    0.026133
    94  N   -0.453090
    95  C    0.111808
    96  C   -0.155677
    97  C   -0.103437
    98  C    0.123634
    99  C    0.045853
   100  C    0.084854
   101  O   -0.233080
   102  C   -0.023484
   103  N   -0.364580
   104  C    0.051614
   105  C   -0.053088
   106  C   -0.060035
   107  C    0.046608
   108  C    0.044653
   109  C   -0.025436
   110  C   -0.034911
   111  N   -0.448258
   112  C    0.163654
   113  C   -0.168984
   114  C   -0.084421
   115  C    0.117638
   116  C    0.077055
   117  C    0.137623
   118  O   -0.142235
   119  C   -0.139057
   120  C    0.283405
   121  O   -0.249089
   122  O   -0.383358
   123  C    0.147033
   124  H   -0.013034
   125  H    0.021608
   126  H   -0.009723
   127  H    0.043016
   128  H    0.044082
   129  H    0.031246
   130  H    0.051230
   131  H    0.038068
   132  H    0.037924
   133  H    0.036952
   134  H    0.053896
   135  H    0.051438
   136  H    0.057694
   137  H    0.063579
   138  H    0.032721
   139  H    0.059369
   140  H    0.038690
   141  H    0.062614
   142  H    0.024367
   143  H    0.023851
   144  H    0.039130
   145  H    0.044475
   146  H    0.032106
   147  H    0.026699
   148  H    0.023426
   149  H    0.026958
   150  H    0.051691
   151  H    0.040152
   152  H    0.057361
   153  H    0.036621
   154  H    0.074577
   155  H    0.075969
   156  H    0.054233
   157  H    0.040568
   158  H    0.061765
 Sum of Mulliken charges =  -0.00000

 Dipole moment (field-independent basis, Debye):
    X=             -8.8310    Y=              0.2085    Z=             -0.1847  Tot=              8.8354
 Quadrupole moment (field-independent basis, Debye-Ang):
   XX=           -433.9258   YY=           -510.3447   ZZ=           -493.2689
   XY=            -28.0526   XZ=            -69.3699   YZ=              0.2537

 Normal termination of Gaussian 16 at Sun Sep 19 18:09:18 2021.
