 Gaussian 16, Revision A.03,
 Gaussian 16:  ES64L-G16RevA.03 25-Dec-2016

 --------------------------------
 #p wB97XD/Def2SVP td=(nstates=5)
 --------------------------------

 --------------------------------
 TDDFT excited states in gaussian
 --------------------------------
 Symbolic Z-matrix:
 Charge =  0 Multiplicity = 1

                         Standard orientation:
 ---------------------------------------------------------------------
 Center     Atomic      Atomic             Coordinates (Angstroms)
 Number     Number       Type             X           Y           Z
 ---------------------------------------------------------------------
      1         12           0      -27.018092    0.480526    0.048195
      2          6           0      -24.998582   -1.918560    1.562626
      3          6           0      -28.828507   -2.028393   -1.455990
      4          6           0      -28.703310    2.927176   -1.556888
      5          6           0      -24.822877    2.985054    1.343599
      6          7           0      -26.824412   -1.685291   -0.008597
      7          6           0      -25.960435   -2.466070    0.695217
      8          6           0      -26.280193   -3.956027    0.517822
      9          6           0      -27.430582   -3.905195   -0.582340
     10          6           0      -27.718604   -2.402943   -0.672709
     11          6           0      -26.969661   -4.470666   -1.920309
     12          6           0      -26.868964   -4.686677    1.776847
     13          6           0      -26.615414   -6.166719    1.899764
     14          1           0      -26.154285   -6.920640    0.733706
     15          7           0      -28.581838    0.446168   -1.221780
     16          6           0      -29.190107   -0.715985   -1.736937
     17          6           0      -30.354113   -0.273861   -2.459196
     18          6           0      -30.393652    1.143348   -2.474589
     19          6           0      -29.186586    1.577846   -1.729275
     20          6           0      -31.228831   -1.205872   -3.270133
     21          6           0      -31.379485    2.081604   -3.033422
     22          8           0      -31.178656    3.272546   -3.141531
     23          6           0      -32.708530    1.547252   -3.680428
     24          7           0      -26.928369    2.720584    0.019598
     25          6           0      -27.707519    3.442623   -0.728927
     26          6           0      -27.351416    4.956458   -0.628751
     27          6           0      -26.180834    5.007942    0.336161
     28          6           0      -25.877351    3.485737    0.579502
     29          6           0      -27.129600    5.576490   -2.088058
     30          6           0      -26.481026    5.825013    1.610590
     31          6           0      -26.015956    7.329112    1.627523
     32          7           0      -25.487842    0.602698    1.369265
     33          6           0      -24.680278    1.681096    1.808451
     34          6           0      -23.690351    1.243018    2.716992
     35          6           0      -23.751758   -0.207217    2.564596
     36          6           0      -24.891955   -0.487094    1.758333
     37          6           0      -22.587948    2.097442    3.315569
     38          6           0      -23.057431   -1.373284    2.970052
     39          8           0      -22.088703   -1.542332    3.699888
     40          6           0      -23.967759   -2.626057    2.351328
     41          6           0      -22.994402   -3.477469    1.590250
     42          8           0      -22.305966   -3.078499    0.645089
     43          8           0      -22.839439   -4.776901    2.157983
     44          6           0      -21.873872   -5.681253    1.458635
     45          1           0      -29.356785   -2.874994   -1.901060
     46          1           0      -29.170638    3.631321   -2.247914
     47          1           0      -24.152795    3.711689    1.806997
     48          1           0      -25.369540   -4.417310    0.135037
     49          1           0      -28.313131   -4.479389   -0.300669
     50          1           0      -26.045799   -5.038174   -1.811758
     51          1           0      -26.899058   -3.709919   -2.698204
     52          1           0      -27.604849   -5.269713   -2.302689
     53          1           0      -27.941077   -4.493908    1.794141
     54          1           0      -26.509587   -4.137680    2.647495
     55          1           0      -27.573912   -6.632582    2.127516
     56          1           0      -25.891605   -6.338022    2.696583
     57          1           0      -31.165462   -1.028532   -4.343688
     58          1           0      -32.252311   -1.108286   -2.905688
     59          1           0      -30.991959   -2.267478   -3.201381
     60          1           0      -32.441744    1.239734   -4.691878
     61          1           0      -33.405163    2.370449   -3.839598
     62          1           0      -33.084590    0.680560   -3.138170
     63          1           0      -28.258317    5.390847   -0.207696
     64          1           0      -25.268821    5.348366   -0.151769
     65          1           0      -26.142313    6.031698   -2.165265
     66          1           0      -27.793079    6.412048   -2.311951
     67          1           0      -27.207577    4.720940   -2.760184
     68          1           0      -25.976821    5.304254    2.425409
     69          1           0      -27.554530    5.746853    1.783222
     70          1           0      -24.976222    7.348263    1.956055
     71          1           0      -26.609150    8.059269    2.178393
     72          1           0      -25.993302    7.537698    0.558439
     73          1           0      -23.067458    2.543478    4.186510
     74          1           0      -22.278083    2.885344    2.630079
     75          1           0      -21.619112    1.615080    3.451351
     76          1           0      -24.450394   -3.149292    3.177720
     77          1           0      -20.858634   -5.287622    1.492586
     78          1           0      -22.066262   -5.940060    0.417090
     79          1           0      -21.935698   -6.540901    2.125929
     80         12           0       26.902949    0.507759    0.004488
     81          6           0       25.545198   -2.218610   -1.510279
     82          6           0       27.819958   -1.382601    2.728918
     83          6           0       28.049455    3.338384    1.465260
     84          6           0       25.526984    2.487921   -2.579586
     85          7           0       26.501352   -1.538947    0.640014
     86          6           0       26.229708   -2.501158   -0.281620
     87          6           0       26.527713   -3.881882    0.196199
     88          6           0       27.028196   -3.543701    1.694923
     89          6           0       27.133419   -2.054059    1.715740
     90          6           0       26.027664   -4.081912    2.815324
     91          6           0       27.696538   -4.498973   -0.704850
     92          6           0       27.806335   -6.024140   -0.763329
     93          1           0       27.086077   -6.990983    0.209268
     94          7           0       27.901271    0.956423    1.786748
     95          6           0       28.163884    0.017143    2.797329
     96          6           0       28.816210    0.726447    3.873460
     97          6           0       28.916105    2.084556    3.508876
     98          6           0       28.314695    2.140144    2.183570
     99          6           0       29.327855   -0.019192    5.128075
    100          6           0       29.474854    3.309314    4.405752
    101          8           0       29.654103    4.445053    3.948112
    102          6           0       29.867375    3.187909    5.868941
    103          7           0       26.844231    2.647234   -0.560477
    104          6           0       27.368134    3.585707    0.263768
    105          6           0       26.965134    4.994921   -0.167325
    106          6           0       26.419008    4.728597   -1.686305
    107          6           0       26.333125    3.194339   -1.703449
    108          6           0       26.000415    5.786891    0.829027
    109          6           0       27.419077    5.121244   -2.888492
    110          6           0       26.911926    5.956210   -4.049862
    111          7           0       25.803270    0.268995   -1.755211
    112          6           0       25.312687    1.116292   -2.676749
    113          6           0       24.664234    0.343011   -3.781809
    114          6           0       24.808014   -0.994069   -3.341341
    115          6           0       25.393012   -0.938482   -2.052682
    116          6           0       24.054307    0.793081   -5.062036
    117          6           0       24.499081   -2.311518   -3.754538
    118          8           0       23.935504   -2.721146   -4.790182
    119          6           0       24.959357   -3.173642   -2.581762
    120          6           0       23.820205   -3.888848   -2.053566
    121          8           0       22.769114   -3.494125   -1.655417
    122          8           0       24.206842   -5.223037   -1.968115
    123          6           0       23.299894   -6.291505   -1.397853
    124          1           0       28.334884   -1.943867    3.510902
    125          1           0       28.334855    4.255200    1.985971
    126          1           0       24.915942    3.039192   -3.296508
    127          1           0       25.757429   -4.651868    0.234864
    128          1           0       28.007192   -3.979794    1.893554
    129          1           0       26.491141   -4.446201    3.731865
    130          1           0       25.338338   -4.795343    2.363980
    131          1           0       25.422132   -3.227146    3.118420
    132          1           0       28.674653   -4.124881   -0.401819
    133          1           0       27.505918   -4.122933   -1.710337
    134          1           0       28.874705   -6.240422   -0.724425
    135          1           0       27.518020   -6.352861   -1.761062
    136          1           0       29.199329   -1.100863    5.090730
    137          1           0       28.802277    0.411194    5.979862
    138          1           0       30.382266    0.234099    5.240745
    139          1           0       30.767890    2.574985    5.857482
    140          1           0       29.208170    2.520637    6.424546
    141          1           0       29.842024    4.164249    6.352471
    142          1           0       27.878265    5.583912   -0.261169
    143          1           0       25.473777    5.244313   -1.856775
    144          1           0       25.073537    6.078655    0.334628
    145          1           0       26.510846    6.663756    1.225727
    146          1           0       25.684081    5.143034    1.650031
    147          1           0       27.927567    4.246934   -3.294578
    148          1           0       28.239281    5.670771   -2.427539
    149          1           0       27.104239    5.377054   -4.952350
    150          1           0       27.371252    6.943157   -4.097647
    151          1           0       25.826851    6.049949   -3.987512
    152          1           0       24.145175    1.860270   -5.263731
    153          1           0       22.987047    0.571103   -5.083348
    154          1           0       24.534270    0.252741   -5.877736
    155          1           0       25.722504   -3.895074   -2.875180
    156          1           0       22.372083   -5.848122   -1.035711
    157          1           0       23.777529   -6.751908   -0.531952
    158          1           0       23.122982   -6.987410   -2.217881
 ---------------------------------------------------------------------

 SCF Done:  E(RwB97XD) =  -4070.63690456     A.U. after   19 cycles

 Excitation energies and oscillator strengths:

 Excited State   1:      Singlet-A      1.6817 eV  737.26 nm  f=0.3966  <S**2>=0.000
     310 -> 315        0.19776
     312 -> 314        0.68064
     310 <- 315        0.11935
 This state for optimization and/or second-order correction.
 Total Energy, E(TD-HF/TD-DFT) =  -4070.57510365
 Copying the excited state density for this state as the 1-particle RhoCI density.

 Excited State   2:      Singlet-A      1.6919 eV  732.82 nm  f=0.3701  <S**2>=0.000
     309 -> 316       -0.17803
     311 -> 313        0.68409
     309 <- 316       -0.11256

 Excited State   3:      Singlet-A      2.1734 eV  570.47 nm  f=0.1169  <S**2>=0.000
     309 -> 313        0.64262
     311 -> 316        0.26140

 Excited State   4:      Singlet-A      2.1739 eV  570.33 nm  f=0.1251  <S**2>=0.000
     310 -> 314        0.63220
     312 -> 315       -0.29657

 Excited State   5:      Singlet-A      3.3917 eV  365.55 nm  f=0.0271  <S**2>=0.000
     299 -> 313        0.24265
     301 -> 313       -0.13968
     304 -> 313       -0.49425
     307 -> 313        0.23755
     308 -> 313        0.20915
     311 -> 316       -0.23048

 The electronic state is 1-A.
 Alpha  occ. eigenvalues --  -46.95713 -46.94331 -19.29348 -19.28915 -19.24507
 Alpha  occ. eigenvalues --  -19.24368 -19.24353 -19.24191 -19.23882 -19.23200
 Alpha  occ. eigenvalues --  -14.47275 -14.47027 -14.46261 -14.46237 -14.44851
 Alpha  occ. eigenvalues --  -14.44113 -14.43961 -14.43906 -10.42899 -10.42467
 Alpha  occ. eigenvalues --  -10.40201 -10.39508 -10.38514 -10.38296 -10.35876
 Alpha  occ. eigenvalues --  -10.35778 -10.35699 -10.35643 -10.35334 -10.34907
 Alpha  occ. eigenvalues --  -10.34863 -10.34829 -10.34664 -10.34653 -10.34644
 Alpha  occ. eigenvalues --  -10.34191 -10.34022 -10.33965 -10.33872 -10.33707
 Alpha  occ. eigenvalues --  -10.33042 -10.32972 -10.32806 -10.32780 -10.32779
 Alpha  occ. eigenvalues --  -10.32390 -10.32366 -10.32324 -10.32312 -10.32270
 Alpha  occ. eigenvalues --  -10.32197 -10.32050 -10.32050 -10.32004 -10.31997
 Alpha  occ. eigenvalues --  -10.31991 -10.31862 -10.31846 -10.31832 -10.31777
 Alpha  occ. eigenvalues --  -10.31660 -10.31580 -10.31514 -10.31497 -10.31412
 Alpha  occ. eigenvalues --  -10.31385 -10.31294 -10.30799 -10.30776 -10.30500
 Alpha  occ. eigenvalues --  -10.30456 -10.30452 -10.30278 -10.30273 -10.30099
 Alpha  occ. eigenvalues --  -10.30029 -10.30006 -10.29939 -10.29896 -10.29877
 Alpha  occ. eigenvalues --  -10.29732 -10.29673 -10.29599 -10.29147 -10.28817
 Alpha  occ. eigenvalues --  -10.28489  -3.21569  -3.20439  -1.95178  -1.94671
 Alpha  occ. eigenvalues --   -1.94549  -1.94049  -1.93562  -1.93430  -1.17768
 Alpha  occ. eigenvalues --   -1.15558  -1.13413  -1.11700  -1.10794  -1.10577
 Alpha  occ. eigenvalues --   -1.09399  -1.07993  -1.07603  -1.07197  -1.06453
 Alpha  occ. eigenvalues --   -1.05940  -1.05569  -1.05390  -1.04631  -1.04537
 Alpha  occ. eigenvalues --   -0.95495  -0.94026  -0.91212  -0.90834  -0.90522
 Alpha  occ. eigenvalues --   -0.90346  -0.90112  -0.89783  -0.89415  -0.89399
 Alpha  occ. eigenvalues --   -0.88972  -0.88774  -0.88183  -0.88141  -0.86257
 Alpha  occ. eigenvalues --   -0.86233  -0.85335  -0.84876  -0.84232  -0.84136
 Alpha  occ. eigenvalues --   -0.83501  -0.83442  -0.83110  -0.82328  -0.82250
 Alpha  occ. eigenvalues --   -0.81973  -0.80793  -0.80352  -0.79385  -0.79173
 Alpha  occ. eigenvalues --   -0.79041  -0.78761  -0.78107  -0.77787  -0.77086
 Alpha  occ. eigenvalues --   -0.76991  -0.75108  -0.74587  -0.73939  -0.73601
 Alpha  occ. eigenvalues --   -0.71560  -0.71259  -0.70900  -0.70546  -0.70142
 Alpha  occ. eigenvalues --   -0.69943  -0.69306  -0.67944  -0.67713  -0.67232
 Alpha  occ. eigenvalues --   -0.67176  -0.67146  -0.66958  -0.66609  -0.66495
 Alpha  occ. eigenvalues --   -0.66229  -0.63818  -0.63375  -0.62446  -0.62423
 Alpha  occ. eigenvalues --   -0.61870  -0.61595  -0.61324  -0.61157  -0.60782
 Alpha  occ. eigenvalues --   -0.60534  -0.60418  -0.59734  -0.59720  -0.59304
 Alpha  occ. eigenvalues --   -0.58278  -0.57999  -0.57493  -0.57217  -0.56995
 Alpha  occ. eigenvalues --   -0.56558  -0.56123  -0.55947  -0.55685  -0.55374
 Alpha  occ. eigenvalues --   -0.55144  -0.54939  -0.54882  -0.54879  -0.54685
 Alpha  occ. eigenvalues --   -0.54432  -0.54271  -0.54219  -0.54092  -0.54059
 Alpha  occ. eigenvalues --   -0.53946  -0.53574  -0.53534  -0.53480  -0.53330
 Alpha  occ. eigenvalues --   -0.52894  -0.52741  -0.52502  -0.52463  -0.52133
 Alpha  occ. eigenvalues --   -0.51765  -0.51708  -0.51640  -0.51588  -0.51484
 Alpha  occ. eigenvalues --   -0.51348  -0.51201  -0.51048  -0.50999  -0.50798
 Alpha  occ. eigenvalues --   -0.50573  -0.50297  -0.50224  -0.50073  -0.50050
 Alpha  occ. eigenvalues --   -0.49865  -0.49593  -0.49532  -0.49415  -0.49223
 Alpha  occ. eigenvalues --   -0.49195  -0.49061  -0.48853  -0.48836  -0.48608
 Alpha  occ. eigenvalues --   -0.48482  -0.48375  -0.48127  -0.48068  -0.47745
 Alpha  occ. eigenvalues --   -0.47496  -0.47114  -0.47030  -0.46931  -0.46649
 Alpha  occ. eigenvalues --   -0.46617  -0.46494  -0.46251  -0.46221  -0.46213
 Alpha  occ. eigenvalues --   -0.46077  -0.45886  -0.45809  -0.45808  -0.45632
 Alpha  occ. eigenvalues --   -0.45276  -0.45052  -0.44941  -0.44813  -0.44570
 Alpha  occ. eigenvalues --   -0.44562  -0.44499  -0.44301  -0.43919  -0.43753
 Alpha  occ. eigenvalues --   -0.43659  -0.43546  -0.43452  -0.43280  -0.43179
 Alpha  occ. eigenvalues --   -0.43046  -0.42904  -0.42734  -0.42681  -0.42170
 Alpha  occ. eigenvalues --   -0.42087  -0.41771  -0.41633  -0.41322  -0.41320
 Alpha  occ. eigenvalues --   -0.40541  -0.40303  -0.39801  -0.39726  -0.39508
 Alpha  occ. eigenvalues --   -0.39242  -0.38959  -0.38745  -0.38551  -0.38100
 Alpha  occ. eigenvalues --   -0.38098  -0.37764  -0.36449  -0.36446  -0.36206
 Alpha  occ. eigenvalues --   -0.35905  -0.35543  -0.35388  -0.33845  -0.33368
 Alpha  occ. eigenvalues --   -0.33156  -0.33115  -0.33000  -0.32744  -0.32343
 Alpha  occ. eigenvalues --   -0.32209  -0.31742  -0.31589  -0.26137  -0.25733
 Alpha  occ. eigenvalues --   -0.23382  -0.22918
 Alpha virt. eigenvalues --   -0.07411  -0.06844   0.00210   0.00259   0.02059
 Alpha virt. eigenvalues --    0.02246   0.04460   0.04495   0.05843   0.06847
 Alpha virt. eigenvalues --    0.06904   0.07338   0.07894   0.08030   0.08387

 Mulliken charges:
               1
     1  Mg   0.981283
     2  C   -0.071132
     3  C   -0.108039
     4  C   -0.077326
     5  C   -0.077046
     6  N   -0.334150
     7  C    0.003477
     8  C   -0.040158
     9  C   -0.140149
    10  C    0.072937
    11  C    0.018672
    12  C    0.018212
    13  C   -0.105792
    14  H    0.036519
    15  N   -0.531929
    16  C    0.234407
    17  C   -0.151063
    18  C   -0.045589
    19  C    0.152545
    20  C    0.052000
    21  C    0.017187
    22  O   -0.224853
    23  C   -0.005314
    24  N   -0.321060
    25  C    0.055803
    26  C   -0.094109
    27  C   -0.043707
    28  C    0.027537
    29  C    0.014753
    30  C   -0.005388
    31  C   -0.042802
    32  N   -0.449407
    33  C    0.125254
    34  C   -0.138972
    35  C   -0.084569
    36  C    0.187748
    37  C    0.059659
    38  C    0.113491
    39  O   -0.211572
    40  C   -0.083787
    41  C    0.288661
    42  O   -0.260454
    43  O   -0.404785
    44  C    0.141036
    45  H    0.004092
    46  H    0.032135
    47  H    0.000488
    48  H    0.043811
    49  H    0.038812
    50  H    0.033336
    51  H    0.049268
    52  H    0.023052
    53  H    0.024358
    54  H    0.025393
    55  H    0.048816
    56  H    0.067396
    57  H    0.063484
    58  H    0.049927
    59  H    0.030821
    60  H    0.053332
    61  H    0.056014
    62  H    0.038213
    63  H    0.048284
    64  H    0.027385
    65  H    0.030060
    66  H    0.045666
    67  H    0.051198
    68  H    0.026149
    69  H    0.026660
    70  H    0.037039
    71  H    0.054568
    72  H    0.027406
    73  H    0.054129
    74  H    0.037469
    75  H    0.064164
    76  H    0.072264
    77  H    0.058601
    78  H    0.054419
    79  H    0.053763
    80  Mg   0.950769
    81  C   -0.080232
    82  C   -0.065183
    83  C   -0.054591
    84  C   -0.099715
    85  N   -0.357673
    86  C    0.029451
    87  C   -0.079487
    88  C   -0.109785
    89  C    0.089997
    90  C    0.022801
    91  C   -0.013521
    92  C   -0.098874
    93  H    0.035629
    94  N   -0.438843
    95  C    0.108760
    96  C   -0.179387
    97  C   -0.083489
    98  C    0.122285
    99  C    0.062498
   100  C    0.076003
   101  O   -0.249658
   102  C    0.010381
   103  N   -0.332204
   104  C    0.030889
   105  C   -0.062632
   106  C   -0.122792
   107  C    0.110982
   108  C    0.017302
   109  C   -0.023506
   110  C   -0.037690
   111  N   -0.390347
   112  C    0.092524
   113  C   -0.157222
   114  C   -0.058455
   115  C    0.195062
   116  C    0.082440
   117  C    0.129138
   118  O   -0.229536
   119  C   -0.055409
   120  C    0.260444
   121  O   -0.202680
   122  O   -0.416620
   123  C    0.130291
   124  H   -0.007794
   125  H    0.015256
   126  H    0.000066
   127  H    0.042231
   128  H    0.032248
   129  H    0.044445
   130  H    0.033006
   131  H    0.038545
   132  H    0.033224
   133  H    0.032431
   134  H    0.042981
   135  H    0.053449
   136  H    0.042691
   137  H    0.051410
   138  H    0.048422
   139  H    0.054872
   140  H    0.026350
   141  H    0.075600
   142  H    0.037483
   143  H    0.035317
   144  H    0.033706
   145  H    0.050450
   146  H    0.045488
   147  H    0.038389
   148  H    0.020838
   149  H    0.037092
   150  H    0.048330
   151  H    0.024442
   152  H    0.023630
   153  H    0.065373
   154  H    0.063719
   155  H    0.069635
   156  H    0.065985
   157  H    0.053349
   158  H    0.069224
 Sum of Mulliken charges =  -0.00000

 Dipole moment (field-independent basis, Debye):
    X=             -2.3622    Y=             -2.4899    Z=              0.2725  Tot=              3.4429
 Quadrupole moment (field-independent basis, Debye-Ang):
   XX=           -122.4504   YY=           -458.2680   ZZ=           -514.5706
   XY=             17.5531   XZ=            124.8505   YZ=            -11.5085

 Normal termination of Gaussian 16 at Mon Sep 20 10:13:36 2021.
