 Gaussian 16, Revision A.03,
 Gaussian 16:  ES64L-G16RevA.03 25-Dec-2016

 --------------------------------
 #p wB97XD/Def2SVP td=(nstates=5)
 --------------------------------

 --------------------------------
 TDDFT excited states in gaussian
 --------------------------------
 Symbolic Z-matrix:
 Charge =  0 Multiplicity = 1

                         Standard orientation:
 ---------------------------------------------------------------------
 Center     Atomic      Atomic             Coordinates (Angstroms)
 Number     Number       Type             X           Y           Z
 ---------------------------------------------------------------------
      1         12           0      -29.326958    0.379348    0.386528
      2          6           0      -27.845675   -2.023474   -1.632536
      3          6           0      -29.099884    2.637966   -2.107705
      4          6           0      -30.599203    2.655022    2.485952
      5          6           0      -29.371066   -1.989750    2.964785
      6          7           0      -28.561396    0.228812   -1.657178
      7          6           0      -28.103926   -0.820294   -2.297764
      8          6           0      -27.789478   -0.368698   -3.797982
      9          6           0      -27.496373    1.091241   -3.523891
     10          6           0      -28.489720    1.385601   -2.355156
     11          6           0      -25.997224    1.286841   -3.210838
     12          6           0      -28.961423   -0.813386   -4.774739
     13          6           0      -28.571494   -0.868485   -6.255040
     14          1           0      -27.235391   -0.285827   -6.682267
     15          7           0      -29.943440    2.293574    0.164630
     16          6           0      -29.826579    3.041426   -1.004642
     17          6           0      -30.596806    4.306050   -0.808088
     18          6           0      -31.001312    4.359519    0.593353
     19          6           0      -30.428311    3.092396    1.120135
     20          6           0      -30.801459    5.319070   -1.909512
     21          6           0      -31.871689    5.428984    1.401410
     22          8           0      -32.196927    5.294168    2.585864
     23          6           0      -32.319505    6.653973    0.631689
     24          7           0      -29.785315    0.377804    2.404389
     25          6           0      -30.280295    1.427653    3.054429
     26          6           0      -30.442539    1.170154    4.584358
     27          6           0      -30.277247   -0.355978    4.618065
     28          6           0      -29.835935   -0.721735    3.235766
     29          6           0      -29.440401    1.946743    5.483423
     30          6           0      -31.454657   -1.232999    5.237234
     31          6           0      -32.347009   -1.958349    4.284442
     32          7           0      -28.560590   -1.534371    0.732169
     33          6           0      -28.704609   -2.385986    1.775204
     34          6           0      -28.087628   -3.645753    1.557816
     35          6           0      -27.718979   -3.563500    0.178166
     36          6           0      -28.046457   -2.285086   -0.212138
     37          6           0      -27.823308   -4.848109    2.426547
     38          6           0      -27.149698   -4.233041   -0.953223
     39          8           0      -26.696047   -5.348500   -1.091920
     40          6           0      -27.336611   -3.345144   -2.224666
     41          6           0      -26.059357   -3.229392   -2.934839
     42          8           0      -25.070869   -2.722556   -2.426522
     43          8           0      -26.028900   -3.914836   -4.176217
     44          6           0      -24.733653   -3.929396   -4.874024
     45          1           0      -28.948025    3.355659   -2.915221
     46          1           0      -30.973024    3.431601    3.155360
     47          1           0      -29.356780   -2.684903    3.806404
     48          1           0      -26.924003   -0.913650   -4.172503
     49          1           0      -27.799208    1.768258   -4.322272
     50          1           0      -25.658370    1.864351   -4.071592
     51          1           0      -25.449896    0.345792   -3.142317
     52          1           0      -25.957989    1.939291   -2.338840
     53          1           0      -29.800839   -0.122517   -4.691199
     54          1           0      -29.195050   -1.837150   -4.481531
     55          1           0      -29.369594   -0.369794   -6.804130
     56          1           0      -28.607106   -1.917076   -6.549470
     57          1           0      -30.882155    4.836937   -2.884418
     58          1           0      -30.061332    6.113733   -1.997670
     59          1           0      -31.769113    5.797454   -1.758934
     60          1           0      -31.394321    7.030075    0.195657
     61          1           0      -32.719067    7.457746    1.249396
     62          1           0      -33.089975    6.376672   -0.087930
     63          1           0      -31.434200    1.458461    4.932715
     64          1           0      -29.352856   -0.532236    5.166882
     65          1           0      -29.114150    1.223521    6.231221
     66          1           0      -29.807326    2.851817    5.964992
     67          1           0      -28.629679    2.300843    4.846622
     68          1           0      -32.013162   -0.611659    5.937408
     69          1           0      -31.019439   -2.056522    5.802900
     70          1           0      -32.155656   -3.024512    4.408302
     71          1           0      -32.105467   -1.856271    3.225735
     72          1           0      -33.412700   -1.813815    4.462300
     73          1           0      -28.107905   -4.680875    3.465961
     74          1           0      -26.789343   -5.164750    2.286553
     75          1           0      -28.430846   -5.732099    2.231554
     76          1           0      -28.073274   -3.766681   -2.908065
     77          1           0      -24.765233   -4.303764   -5.896935
     78          1           0      -24.124861   -4.580682   -4.246298
     79          1           0      -24.348420   -2.914283   -4.785375
     80         12           0       29.202464    0.618405   -0.480055
     81          6           0       27.948066   -2.592513    0.501219
     82          6           0       26.002597    1.915666    0.292627
     83          6           0       30.512919    3.703507   -0.638617
     84          6           0       32.377037   -0.735668   -0.524251
     85          7           0       27.171266   -0.229917    0.303733
     86          6           0       27.000358   -1.544906    0.635052
     87          6           0       25.693262   -1.714031    1.393171
     88          6           0       25.027928   -0.320899    1.029991
     89          6           0       26.092499    0.565704    0.505930
     90          6           0       23.824423   -0.340258    0.028769
     91          6           0       25.980885   -2.062975    2.888715
     92          6           0       25.162468   -3.216948    3.600979
     93          1           0       24.277345   -2.886131    4.816087
     94          7           0       28.403165    2.483422   -0.408228
     95          6           0       27.065248    2.840251   -0.094176
     96          6           0       26.890199    4.278507   -0.177447
     97          6           0       28.225898    4.788015   -0.443664
     98          6           0       29.095519    3.628677   -0.513188
     99          6           0       25.605476    4.923132    0.138957
    100          6           0       28.525048    6.286341   -0.624999
    101          8           0       27.557790    7.078188   -0.426863
    102          6           0       29.890072    6.885917   -1.024380
    103          7           0       31.211521    1.479492   -0.308109
    104          6           0       31.490445    2.740169   -0.578701
    105          6           0       32.974559    2.914611   -0.550196
    106          6           0       33.527263    1.464397   -0.573006
    107          6           0       32.287901    0.648540   -0.368708
    108          6           0       33.686056    3.836976   -1.630150
    109          6           0       34.667289    1.142940    0.525145
    110          6           0       36.090887    0.788247    0.030159
    111          7           0       30.003902   -1.248150   -0.301168
    112          6           0       31.284763   -1.652420   -0.340529
    113          6           0       31.395396   -3.051998   -0.148636
    114          6           0       30.091063   -3.460062    0.139906
    115          6           0       29.262712   -2.310926    0.080036
    116          6           0       32.564497   -3.950300   -0.215775
    117          6           0       29.356311   -4.632101    0.503955
    118          8           0       29.774414   -5.748638    0.713914
    119          6           0       27.831641   -4.062099    0.816013
    120          6           0       26.862166   -4.722359   -0.066273
    121          8           0       27.018323   -4.935197   -1.275335
    122          8           0       25.760919   -5.018085    0.708531
    123          6           0       24.653567   -5.692295    0.032872
    124          1           0       25.037501    2.375548    0.510654
    125          1           0       31.005534    4.676630   -0.592674
    126          1           0       33.315835   -1.245258   -0.751846
    127          1           0       25.119545   -2.463283    0.847066
    128          1           0       24.815203    0.009548    2.047357
    129          1           0       24.085047    0.314566   -0.803956
    130          1           0       22.892831    0.045216    0.442483
    131          1           0       23.617500   -1.302269   -0.441073
    132          1           0       25.735209   -1.102810    3.341849
    133          1           0       27.023922   -2.251216    3.142159
    134          1           0       25.913588   -3.958258    3.873087
    135          1           0       24.610823   -3.760662    2.834663
    136          1           0       25.310688    4.550515    1.120237
    137          1           0       24.836783    4.579321   -0.552834
    138          1           0       25.542191    6.007767    0.047586
    139          1           0       30.562144    6.786865   -0.171806
    140          1           0       29.633562    7.829287   -1.505292
    141          1           0       30.216739    6.220826   -1.824493
    142          1           0       33.209915    3.407692    0.392168
    143          1           0       33.775778    1.339807   -1.627036
    144          1           0       34.576975    4.206704   -1.121924
    145          1           0       32.992161    4.625296   -1.921555
    146          1           0       33.965935    3.183433   -2.456560
    147          1           0       34.239379    0.324109    1.103277
    148          1           0       34.675917    1.969081    1.236023
    149          1           0       36.487990   -0.112202    0.496877
    150          1           0       36.749246    1.632841    0.235162
    151          1           0       36.164486    0.681883   -1.052300
    152          1           0       32.267529   -4.990936   -0.342201
    153          1           0       32.963666   -3.739171    0.776458
    154          1           0       33.316314   -3.475989   -0.846443
    155          1           0       27.603593   -4.103962    1.880466
    156          1           0       24.990167   -6.574448   -0.512218
    157          1           0       24.152498   -4.994434   -0.639582
    158          1           0       23.941275   -6.030606    0.785429
 ---------------------------------------------------------------------

 SCF Done:  E(RwB97XD) =  -4070.60027004     A.U. after   18 cycles

 Excitation energies and oscillator strengths:

 Excited State   1:      Singlet-A      1.6376 eV  757.11 nm  f=0.3868  <S**2>=0.000
     309 -> 315       -0.19098
     312 -> 313        0.68326
     309 <- 315       -0.12122
 This state for optimization and/or second-order correction.
 Total Energy, E(TD-HF/TD-DFT) =  -4070.54008907
 Copying the excited state density for this state as the 1-particle RhoCI density.

 Excited State   2:      Singlet-A      1.6905 eV  733.41 nm  f=0.3929  <S**2>=0.000
     310 -> 316        0.18169
     311 -> 314        0.68421
     310 <- 316        0.11473

 Excited State   3:      Singlet-A      2.1645 eV  572.81 nm  f=0.1461  <S**2>=0.000
     310 -> 314        0.65220
     311 -> 316       -0.26035

 Excited State   4:      Singlet-A      2.1989 eV  563.84 nm  f=0.1290  <S**2>=0.000
     309 -> 313        0.63864
     312 -> 315        0.29226

 Excited State   5:      Singlet-A      3.3071 eV  374.91 nm  f=0.0054  <S**2>=0.000
     308 -> 313        0.66960
     308 -> 318        0.10676

 The electronic state is 1-A.
 Alpha  occ. eigenvalues --  -46.95239 -46.94120 -19.31500 -19.29145 -19.25577
 Alpha  occ. eigenvalues --  -19.25520 -19.24808 -19.24403 -19.23177 -19.22915
 Alpha  occ. eigenvalues --  -14.46612 -14.46543 -14.46032 -14.45966 -14.44754
 Alpha  occ. eigenvalues --  -14.44549 -14.44417 -14.43197 -10.43946 -10.42721
 Alpha  occ. eigenvalues --  -10.41296 -10.39492 -10.39244 -10.38080 -10.36189
 Alpha  occ. eigenvalues --  -10.35415 -10.35256 -10.35208 -10.35141 -10.34789
 Alpha  occ. eigenvalues --  -10.34782 -10.34668 -10.34650 -10.34578 -10.34453
 Alpha  occ. eigenvalues --  -10.34391 -10.34387 -10.34318 -10.33799 -10.33768
 Alpha  occ. eigenvalues --  -10.33237 -10.33092 -10.32952 -10.32782 -10.32754
 Alpha  occ. eigenvalues --  -10.32713 -10.32617 -10.32272 -10.32249 -10.32048
 Alpha  occ. eigenvalues --  -10.32033 -10.32022 -10.31842 -10.31663 -10.31647
 Alpha  occ. eigenvalues --  -10.31626 -10.31617 -10.31595 -10.31593 -10.31551
 Alpha  occ. eigenvalues --  -10.31540 -10.31430 -10.31345 -10.31275 -10.31229
 Alpha  occ. eigenvalues --  -10.31188 -10.31101 -10.31086 -10.30984 -10.30783
 Alpha  occ. eigenvalues --  -10.30664 -10.30555 -10.30473 -10.30271 -10.30236
 Alpha  occ. eigenvalues --  -10.30120 -10.29892 -10.29856 -10.29640 -10.29602
 Alpha  occ. eigenvalues --  -10.29588 -10.29532 -10.28975 -10.28612 -10.28298
 Alpha  occ. eigenvalues --  -10.28173  -3.21238  -3.20286  -1.94816  -1.94348
 Alpha  occ. eigenvalues --   -1.94222  -1.93896  -1.93382  -1.93309  -1.18723
 Alpha  occ. eigenvalues --   -1.16633  -1.13081  -1.12770  -1.11777  -1.10367
 Alpha  occ. eigenvalues --   -1.09450  -1.08938  -1.07586  -1.07464  -1.06751
 Alpha  occ. eigenvalues --   -1.06743  -1.06178  -1.05747  -1.05237  -1.04388
 Alpha  occ. eigenvalues --   -0.95156  -0.94091  -0.91238  -0.91097  -0.90449
 Alpha  occ. eigenvalues --   -0.90217  -0.90200  -0.89998  -0.89883  -0.89411
 Alpha  occ. eigenvalues --   -0.89275  -0.89044  -0.88173  -0.87966  -0.86583
 Alpha  occ. eigenvalues --   -0.86215  -0.85756  -0.85519  -0.84702  -0.84603
 Alpha  occ. eigenvalues --   -0.84522  -0.83914  -0.83327  -0.82890  -0.82439
 Alpha  occ. eigenvalues --   -0.82041  -0.80592  -0.80183  -0.79586  -0.79149
 Alpha  occ. eigenvalues --   -0.78817  -0.78574  -0.78217  -0.77764  -0.77281
 Alpha  occ. eigenvalues --   -0.77002  -0.75195  -0.74807  -0.74190  -0.73160
 Alpha  occ. eigenvalues --   -0.71724  -0.71376  -0.71131  -0.70736  -0.70427
 Alpha  occ. eigenvalues --   -0.69895  -0.68740  -0.68668  -0.68065  -0.67616
 Alpha  occ. eigenvalues --   -0.67110  -0.67026  -0.66773  -0.66584  -0.66186
 Alpha  occ. eigenvalues --   -0.65965  -0.64951  -0.63250  -0.62694  -0.62139
 Alpha  occ. eigenvalues --   -0.61923  -0.61550  -0.61501  -0.61123  -0.60895
 Alpha  occ. eigenvalues --   -0.60394  -0.60012  -0.59956  -0.59590  -0.59574
 Alpha  occ. eigenvalues --   -0.58175  -0.57896  -0.57840  -0.57657  -0.57594
 Alpha  occ. eigenvalues --   -0.57359  -0.56847  -0.56683  -0.56465  -0.55887
 Alpha  occ. eigenvalues --   -0.55658  -0.55573  -0.55336  -0.55285  -0.54951
 Alpha  occ. eigenvalues --   -0.54887  -0.54587  -0.54571  -0.54243  -0.54086
 Alpha  occ. eigenvalues --   -0.54053  -0.53736  -0.53639  -0.53345  -0.53175
 Alpha  occ. eigenvalues --   -0.53135  -0.52721  -0.52699  -0.52521  -0.52244
 Alpha  occ. eigenvalues --   -0.52228  -0.51986  -0.51893  -0.51818  -0.51521
 Alpha  occ. eigenvalues --   -0.51417  -0.51344  -0.51110  -0.50988  -0.50792
 Alpha  occ. eigenvalues --   -0.50723  -0.50485  -0.50413  -0.50399  -0.49849
 Alpha  occ. eigenvalues --   -0.49752  -0.49651  -0.49597  -0.49538  -0.49392
 Alpha  occ. eigenvalues --   -0.49313  -0.48978  -0.48796  -0.48570  -0.48381
 Alpha  occ. eigenvalues --   -0.48353  -0.48176  -0.48083  -0.47940  -0.47887
 Alpha  occ. eigenvalues --   -0.47705  -0.47537  -0.47450  -0.47373  -0.46959
 Alpha  occ. eigenvalues --   -0.46855  -0.46582  -0.46469  -0.46262  -0.45935
 Alpha  occ. eigenvalues --   -0.45884  -0.45677  -0.45567  -0.45528  -0.45439
 Alpha  occ. eigenvalues --   -0.45270  -0.45205  -0.45158  -0.45014  -0.44934
 Alpha  occ. eigenvalues --   -0.44903  -0.44765  -0.44433  -0.44240  -0.44027
 Alpha  occ. eigenvalues --   -0.43743  -0.43487  -0.43306  -0.43139  -0.43075
 Alpha  occ. eigenvalues --   -0.42959  -0.42862  -0.42777  -0.42425  -0.42236
 Alpha  occ. eigenvalues --   -0.42135  -0.42092  -0.41880  -0.41105  -0.40859
 Alpha  occ. eigenvalues --   -0.40656  -0.40210  -0.40200  -0.39978  -0.39763
 Alpha  occ. eigenvalues --   -0.39585  -0.39452  -0.38642  -0.38543  -0.38129
 Alpha  occ. eigenvalues --   -0.37749  -0.37621  -0.37141  -0.36442  -0.36097
 Alpha  occ. eigenvalues --   -0.35891  -0.35440  -0.35287  -0.34206  -0.33550
 Alpha  occ. eigenvalues --   -0.33391  -0.33144  -0.32721  -0.32320  -0.32234
 Alpha  occ. eigenvalues --   -0.32159  -0.31696  -0.31547  -0.26080  -0.25825
 Alpha  occ. eigenvalues --   -0.23217  -0.23110
 Alpha virt. eigenvalues --   -0.07288  -0.07176   0.00183   0.00660   0.02000
 Alpha virt. eigenvalues --    0.02390   0.04504   0.04574   0.05483   0.06407
 Alpha virt. eigenvalues --    0.06603   0.06976   0.07581   0.08038   0.08520

 Mulliken charges:
               1
     1  Mg   0.985940
     2  C   -0.033963
     3  C   -0.089467
     4  C   -0.081540
     5  C   -0.113053
     6  N   -0.312234
     7  C   -0.022151
     8  C   -0.084798
     9  C   -0.106279
    10  C    0.035607
    11  C    0.056932
    12  C    0.017404
    13  C   -0.109412
    14  H    0.037451
    15  N   -0.477387
    16  C    0.190128
    17  C   -0.158437
    18  C   -0.108897
    19  C    0.127402
    20  C    0.049005
    21  C    0.101849
    22  O   -0.227670
    23  C   -0.029898
    24  N   -0.378992
    25  C    0.080978
    26  C   -0.097552
    27  C   -0.032492
    28  C    0.052968
    29  C    0.021166
    30  C   -0.006310
    31  C   -0.048437
    32  N   -0.374810
    33  C    0.116013
    34  C   -0.174774
    35  C   -0.023327
    36  C    0.102386
    37  C    0.084905
    38  C    0.096536
    39  O   -0.204579
    40  C   -0.019822
    41  C    0.245714
    42  O   -0.251771
    43  O   -0.402750
    44  C    0.147390
    45  H    0.004673
    46  H    0.017908
    47  H   -0.007207
    48  H    0.021258
    49  H    0.004274
    50  H    0.035522
    51  H    0.070913
    52  H    0.037004
    53  H    0.035391
    54  H    0.041299
    55  H    0.045563
    56  H    0.053107
    57  H    0.040757
    58  H    0.065839
    59  H    0.031046
    60  H    0.059340
    61  H    0.056267
    62  H    0.081423
    63  H    0.037171
    64  H    0.030705
    65  H    0.038440
    66  H    0.045380
    67  H    0.041235
    68  H    0.033876
    69  H    0.028045
    70  H    0.018049
    71  H    0.047799
    72  H    0.040839
    73  H    0.015381
    74  H    0.066015
    75  H    0.046091
    76  H    0.068304
    77  H    0.063914
    78  H    0.057302
    79  H    0.048104
    80  Mg   0.980503
    81  C   -0.124181
    82  C   -0.080767
    83  C   -0.101731
    84  C   -0.096360
    85  N   -0.314472
    86  C   -0.024781
    87  C   -0.047734
    88  C   -0.085466
    89  C    0.061128
    90  C    0.030229
    91  C   -0.009414
    92  C   -0.101168
    93  H    0.050337
    94  N   -0.481339
    95  C    0.127653
    96  C   -0.142756
    97  C   -0.097790
    98  C    0.229976
    99  C    0.076985
   100  C    0.025846
   101  O   -0.277719
   102  C    0.019978
   103  N   -0.347234
   104  C    0.019234
   105  C   -0.090696
   106  C   -0.108948
   107  C    0.094276
   108  C    0.033644
   109  C    0.010066
   110  C   -0.047588
   111  N   -0.436549
   112  C    0.106318
   113  C   -0.206199
   114  C   -0.066852
   115  C    0.193010
   116  C    0.118165
   117  C    0.144193
   118  O   -0.188405
   119  C   -0.050665
   120  C    0.292311
   121  O   -0.254425
   122  O   -0.371176
   123  C    0.136623
   124  H   -0.000103
   125  H   -0.036534
   126  H    0.002969
   127  H    0.018580
   128  H    0.029569
   129  H    0.037162
   130  H    0.045346
   131  H    0.037068
   132  H    0.031077
   133  H    0.053669
   134  H    0.048087
   135  H    0.042431
   136  H    0.047775
   137  H    0.033326
   138  H    0.069396
   139  H    0.083987
   140  H    0.065091
   141  H    0.043389
   142  H    0.038404
   143  H    0.032674
   144  H    0.040660
   145  H    0.041121
   146  H    0.031829
   147  H    0.033612
   148  H    0.025550
   149  H    0.046673
   150  H    0.035582
   151  H    0.033273
   152  H    0.080945
   153  H    0.046765
   154  H    0.029896
   155  H    0.059581
   156  H    0.065659
   157  H    0.052751
   158  H    0.056678
 Sum of Mulliken charges =  -0.00000

 Dipole moment (field-independent basis, Debye):
    X=             -1.5960    Y=              5.4133    Z=             -1.7158  Tot=              5.8987
 Quadrupole moment (field-independent basis, Debye-Ang):
   XX=           -250.5891   YY=           -559.2626   ZZ=           -483.5478
   XY=            -75.4034   XZ=             65.6360   YZ=            -25.0975

 Normal termination of Gaussian 16 at Mon Sep 20 19:47:53 2021.
