 Gaussian 16, Revision A.03,
 Gaussian 16:  ES64L-G16RevA.03 25-Dec-2016

 --------------------------------
 #p wB97XD/Def2SVP td=(nstates=5)
 --------------------------------

 --------------------------------
 TDDFT excited states in gaussian
 --------------------------------
 Symbolic Z-matrix:
 Charge =  0 Multiplicity = 1

                         Standard orientation:
 ---------------------------------------------------------------------
 Center     Atomic      Atomic             Coordinates (Angstroms)
 Number     Number       Type             X           Y           Z
 ---------------------------------------------------------------------
      1         12           0       27.252417   -0.733667    0.088897
      2          6           0       24.995168    2.041102    1.098352
      3          6           0       28.919975    1.675581   -1.595944
      4          6           0       28.935960   -3.214651   -0.939705
      5          6           0       24.723055   -2.917233    1.317020
      6          7           0       26.930596    1.555207   -0.230432
      7          6           0       26.086281    2.443035    0.414598
      8          6           0       26.441794    3.920961    0.216185
      9          6           0       27.402622    3.769541   -1.003334
     10          6           0       27.798748    2.242577   -0.981498
     11          6           0       26.824580    4.169804   -2.324153
     12          6           0       27.020248    4.690034    1.451023
     13          6           0       26.743853    6.152354    1.560334
     14          1           0       27.884904    6.991285    2.126911
     15          7           0       28.802741   -0.784134   -1.101746
     16          6           0       29.425528    0.338274   -1.686688
     17          6           0       30.639469   -0.110689   -2.305271
     18          6           0       30.702327   -1.530689   -1.961300
     19          6           0       29.479060   -1.857676   -1.322139
     20          6           0       31.699268    0.821674   -3.000520
     21          6           0       31.855294   -2.440813   -2.255682
     22          8           0       31.821008   -3.666928   -1.989465
     23          6           0       33.139359   -1.967128   -2.832220
     24          7           0       26.860103   -2.765730    0.006223
     25          6           0       27.751865   -3.638911   -0.466284
     26          6           0       27.316583   -5.132142   -0.318444
     27          6           0       26.216139   -4.949923    0.792314
     28          6           0       25.861136   -3.441766    0.682932
     29          6           0       26.712410   -5.705655   -1.640510
     30          6           0       26.765636   -5.275360    2.244503
     31          6           0       27.448712   -6.633417    2.509989
     32          7           0       25.289829   -0.523623    1.055619
     33          6           0       24.448453   -1.519530    1.538306
     34          6           0       23.259592   -0.920558    2.098271
     35          6           0       23.449946    0.462248    1.981588
     36          6           0       24.658809    0.672881    1.263074
     37          6           0       22.146079   -1.625142    2.797544
     38          6           0       22.850132    1.755231    2.283780
     39          8           0       21.839407    2.104914    2.878854
     40          6           0       23.952966    2.815678    1.763582
     41          6           0       23.226352    3.756240    0.928065
     42          8           0       22.627519    3.505216   -0.129605
     43          8           0       22.930730    4.847963    1.693091
     44          6           0       22.157454    5.908400    1.130971
     45          1           0       29.489476    2.519727   -1.990780
     46          1           0       29.486286   -4.097306   -1.271583
     47          1           0       23.991275   -3.637126    1.690483
     48          1           0       25.533336    4.426712   -0.111648
     49          1           0       28.347941    4.275900   -0.810464
     50          1           0       26.630130    3.250609   -2.876793
     51          1           0       27.567056    4.726038   -2.896190
     52          1           0       25.900458    4.747343   -2.311413
     53          1           0       28.105095    4.606671    1.392326
     54          1           0       26.704256    4.151280    2.343925
     55          1           0       25.895356    6.199107    2.242658
     56          1           0       26.284591    6.560715    0.659996
     57          1           0       32.618207    0.988810   -2.439410
     58          1           0       31.256832    1.771151   -3.300734
     59          1           0       31.901520    0.264235   -3.915943
     60          1           0       32.985955   -1.774908   -3.894423
     61          1           0       33.844173   -2.786674   -2.689306
     62          1           0       33.446649   -1.108139   -2.236648
     63          1           0       28.214730   -5.674431   -0.020970
     64          1           0       25.296379   -5.514689    0.643106
     65          1           0       27.415306   -6.458799   -1.997491
     66          1           0       26.474304   -4.974284   -2.412165
     67          1           0       25.808484   -6.192210   -1.271323
     68          1           0       25.925346   -5.271510    2.938355
     69          1           0       27.390368   -4.427733    2.525619
     70          1           0       28.447475   -6.374176    2.860904
     71          1           0       27.515221   -7.093070    1.523470
     72          1           0       26.930705   -7.223096    3.266178
     73          1           0       22.536179   -2.626437    2.981549
     74          1           0       21.318205   -1.654538    2.089179
     75          1           0       21.789688   -1.116141    3.693074
     76          1           0       24.403024    3.321369    2.617685
     77          1           0       21.909909    5.718979    0.086257
     78          1           0       22.809652    6.781148    1.165702
     79          1           0       21.303211    6.152318    1.760929
     80         12           0      -26.932674   -0.678180    0.052237
     81          6           0      -25.537230    2.320451   -1.112113
     82          6           0      -27.566730    0.896348    3.047741
     83          6           0      -28.212653   -3.520572    1.135818
     84          6           0      -26.064444   -2.158515   -3.013293
     85          7           0      -26.645345    1.393999    0.780897
     86          6           0      -26.034123    2.487066    0.166385
     87          6           0      -26.290915    3.850955    0.919728
     88          6           0      -26.779532    3.295205    2.243398
     89          6           0      -27.030288    1.745663    2.027098
     90          6           0      -25.651368    3.433552    3.365611
     91          6           0      -27.492048    4.517050    0.112499
     92          6           0      -27.406926    6.084637   -0.151175
     93          1           0      -26.712669    6.756695    1.005722
     94          7           0      -27.614974   -1.246266    1.846030
     95          6           0      -27.797476   -0.505661    2.935664
     96          6           0      -28.394608   -1.246149    4.015380
     97          6           0      -28.764964   -2.481767    3.448577
     98          6           0      -28.134834   -2.490098    2.074817
     99          6           0      -28.636413   -0.745474    5.392173
    100          6           0      -29.669473   -3.575040    3.978941
    101          8           0      -30.106860   -4.487795    3.269031
    102          6           0      -29.989989   -3.641864    5.474734
    103          7           0      -27.059743   -2.602863   -0.831845
    104          6           0      -27.729638   -3.578034   -0.131321
    105          6           0      -27.910398   -4.789434   -1.043575
    106          6           0      -27.316083   -4.318812   -2.459419
    107          6           0      -26.827753   -2.930085   -2.141127
    108          6           0      -27.278639   -6.060107   -0.372834
    109          6           0      -28.247901   -4.399522   -3.658424
    110          6           0      -27.645664   -5.175446   -4.871447
    111          7           0      -25.976186   -0.062126   -1.690026
    112          6           0      -25.667170   -0.797356   -2.877283
    113          6           0      -24.968679    0.024820   -3.799575
    114          6           0      -24.907738    1.258093   -3.129086
    115          6           0      -25.486263    1.117877   -1.850536
    116          6           0      -24.453703   -0.266844   -5.172225
    117          6           0      -24.472041    2.614485   -3.225690
    118          8           0      -23.872938    3.225877   -4.078931
    119          6           0      -24.971254    3.363147   -1.957594
    120          6           0      -23.848319    4.154764   -1.392515
    121          8           0      -22.847356    3.733208   -0.819980
    122          8           0      -24.155075    5.443146   -1.572428
    123          6           0      -23.237969    6.418885   -1.021787
    124          1           0      -27.945885    1.302307    3.987758
    125          1           0      -28.639954   -4.433422    1.558362
    126          1           0      -25.831807   -2.559371   -4.002121
    127          1           0      -25.370357    4.419196    0.790035
    128          1           0      -27.713380    3.776489    2.531974
    129          1           0      -24.731705    3.873083    2.978930
    130          1           0      -25.433325    2.439241    3.754883
    131          1           0      -26.117437    4.053518    4.131539
    132          1           0      -28.460357    4.385245    0.594402
    133          1           0      -27.559975    3.972860   -0.829854
    134          1           0      -28.395955    6.538199   -0.085304
    135          1           0      -27.114187    6.302443   -1.178616
    136          1           0      -29.718175   -0.662424    5.505536
    137          1           0      -28.211799    0.247159    5.535506
    138          1           0      -28.245167   -1.403974    6.167107
    139          1           0      -30.308449   -4.681720    5.544416
    140          1           0      -30.748301   -2.927749    5.797997
    141          1           0      -29.151719   -3.584780    6.168842
    142          1           0      -28.940927   -5.095798   -1.222935
    143          1           0      -26.438443   -4.926541   -2.680058
    144          1           0      -28.016583   -6.853065   -0.494830
    145          1           0      -26.989858   -5.914637    0.668148
    146          1           0      -26.483397   -6.478887   -0.990659
    147          1           0      -28.597041   -3.433099   -4.020698
    148          1           0      -29.046952   -5.062444   -3.323532
    149          1           0      -26.692800   -5.631698   -4.602655
    150          1           0      -27.333653   -4.499114   -5.667007
    151          1           0      -28.325260   -5.952503   -5.221960
    152          1           0      -25.379517   -0.270162   -5.748179
    153          1           0      -23.903501   -1.205051   -5.103928
    154          1           0      -23.836463    0.539160   -5.566554
    155          1           0      -25.670985    4.094756   -2.363801
    156          1           0      -22.227903    6.226471   -1.384591
    157          1           0      -23.111223    6.417850    0.061345
    158          1           0      -23.583846    7.390455   -1.375125
 ---------------------------------------------------------------------

 SCF Done:  E(RwB97XD) =  -4070.63040899     A.U. after   19 cycles

 Excitation energies and oscillator strengths:

 Excited State   1:      Singlet-A      1.6008 eV  774.53 nm  f=0.3887  <S**2>=0.000
     309 -> 316       -0.16170
     311 -> 313        0.68933
     309 <- 316       -0.11299
 This state for optimization and/or second-order correction.
 Total Energy, E(TD-HF/TD-DFT) =  -4070.57158155
 Copying the excited state density for this state as the 1-particle RhoCI density.

 Excited State   2:      Singlet-A      1.6810 eV  737.56 nm  f=0.3813  <S**2>=0.000
     310 -> 315       -0.16571
     312 -> 314        0.68559
     310 <- 315       -0.10524

 Excited State   3:      Singlet-A      2.1247 eV  583.55 nm  f=0.2109  <S**2>=0.000
     309 -> 313        0.66539
     311 -> 316        0.22068

 Excited State   4:      Singlet-A      2.2342 eV  554.95 nm  f=0.1202  <S**2>=0.000
     310 -> 314        0.63519
     312 -> 315        0.28428

 Excited State   5:      Singlet-A      3.1835 eV  389.46 nm  f=0.0051  <S**2>=0.000
     304 -> 313        0.18176
     305 -> 313        0.66090

 The electronic state is 1-A.
 Alpha  occ. eigenvalues --  -46.95226 -46.94097 -19.30423 -19.30040 -19.24996
 Alpha  occ. eigenvalues --  -19.24984 -19.24389 -19.23702 -19.22433 -19.22358
 Alpha  occ. eigenvalues --  -14.46924 -14.46830 -14.46209 -14.45987 -14.44837
 Alpha  occ. eigenvalues --  -14.44265 -14.44190 -14.43009 -10.43005 -10.42116
 Alpha  occ. eigenvalues --  -10.40257 -10.40042 -10.37914 -10.37076 -10.35982
 Alpha  occ. eigenvalues --  -10.35446 -10.35129 -10.35064 -10.34839 -10.34782
 Alpha  occ. eigenvalues --  -10.34763 -10.34727 -10.34725 -10.34681 -10.34470
 Alpha  occ. eigenvalues --  -10.34440 -10.34435 -10.34037 -10.33831 -10.33273
 Alpha  occ. eigenvalues --  -10.33197 -10.33107 -10.32948 -10.32902 -10.32847
 Alpha  occ. eigenvalues --  -10.32486 -10.32381 -10.32375 -10.32258 -10.32171
 Alpha  occ. eigenvalues --  -10.32153 -10.32148 -10.32049 -10.32030 -10.31987
 Alpha  occ. eigenvalues --  -10.31804 -10.31694 -10.31614 -10.31589 -10.31529
 Alpha  occ. eigenvalues --  -10.31407 -10.31403 -10.31105 -10.31084 -10.31079
 Alpha  occ. eigenvalues --  -10.30981 -10.30760 -10.30668 -10.30576 -10.30535
 Alpha  occ. eigenvalues --  -10.30314 -10.30140 -10.30119 -10.30076 -10.29934
 Alpha  occ. eigenvalues --  -10.29889 -10.29772 -10.29630 -10.29609 -10.29596
 Alpha  occ. eigenvalues --  -10.29570 -10.29546 -10.29424 -10.29368 -10.29218
 Alpha  occ. eigenvalues --  -10.27523  -3.21328  -3.20215  -1.94887  -1.94451
 Alpha  occ. eigenvalues --   -1.94315  -1.93822  -1.93325  -1.93220  -1.19242
 Alpha  occ. eigenvalues --   -1.18726  -1.12611  -1.12503  -1.11513  -1.09626
 Alpha  occ. eigenvalues --   -1.09224  -1.09216  -1.07063  -1.06916  -1.06045
 Alpha  occ. eigenvalues --   -1.05879  -1.05653  -1.04897  -1.04585  -1.04337
 Alpha  occ. eigenvalues --   -0.95700  -0.94574  -0.91595  -0.91405  -0.90669
 Alpha  occ. eigenvalues --   -0.90396  -0.90270  -0.89945  -0.89876  -0.89381
 Alpha  occ. eigenvalues --   -0.88920  -0.88778  -0.88565  -0.88169  -0.86622
 Alpha  occ. eigenvalues --   -0.85967  -0.85856  -0.85401  -0.85014  -0.84240
 Alpha  occ. eigenvalues --   -0.84008  -0.83752  -0.83191  -0.83022  -0.82771
 Alpha  occ. eigenvalues --   -0.82296  -0.80894  -0.80499  -0.79408  -0.79316
 Alpha  occ. eigenvalues --   -0.79205  -0.78653  -0.78159  -0.77483  -0.77373
 Alpha  occ. eigenvalues --   -0.76892  -0.75351  -0.75065  -0.73369  -0.72888
 Alpha  occ. eigenvalues --   -0.71203  -0.71153  -0.70771  -0.70583  -0.70166
 Alpha  occ. eigenvalues --   -0.69590  -0.69311  -0.68904  -0.67643  -0.67351
 Alpha  occ. eigenvalues --   -0.67144  -0.67075  -0.66976  -0.66887  -0.66466
 Alpha  occ. eigenvalues --   -0.66449  -0.64407  -0.64040  -0.62809  -0.62725
 Alpha  occ. eigenvalues --   -0.61773  -0.61518  -0.61487  -0.61129  -0.60830
 Alpha  occ. eigenvalues --   -0.60583  -0.60378  -0.59688  -0.59686  -0.59258
 Alpha  occ. eigenvalues --   -0.58646  -0.57846  -0.57594  -0.57552  -0.57282
 Alpha  occ. eigenvalues --   -0.56849  -0.56604  -0.56337  -0.56087  -0.55730
 Alpha  occ. eigenvalues --   -0.55652  -0.55477  -0.55173  -0.55132  -0.54763
 Alpha  occ. eigenvalues --   -0.54533  -0.54458  -0.54457  -0.54341  -0.54038
 Alpha  occ. eigenvalues --   -0.53687  -0.53656  -0.53338  -0.53197  -0.53173
 Alpha  occ. eigenvalues --   -0.53003  -0.52924  -0.52670  -0.52320  -0.52209
 Alpha  occ. eigenvalues --   -0.52200  -0.51930  -0.51832  -0.51808  -0.51628
 Alpha  occ. eigenvalues --   -0.51524  -0.51438  -0.51181  -0.51147  -0.50640
 Alpha  occ. eigenvalues --   -0.50592  -0.50470  -0.50423  -0.50242  -0.50062
 Alpha  occ. eigenvalues --   -0.49786  -0.49774  -0.49540  -0.49506  -0.49439
 Alpha  occ. eigenvalues --   -0.49158  -0.49079  -0.48627  -0.48441  -0.48438
 Alpha  occ. eigenvalues --   -0.48343  -0.48291  -0.48132  -0.47985  -0.47884
 Alpha  occ. eigenvalues --   -0.47366  -0.47190  -0.47025  -0.46912  -0.46908
 Alpha  occ. eigenvalues --   -0.46730  -0.46604  -0.46459  -0.46366  -0.46284
 Alpha  occ. eigenvalues --   -0.46211  -0.45908  -0.45658  -0.45644  -0.45579
 Alpha  occ. eigenvalues --   -0.45169  -0.45049  -0.44963  -0.44880  -0.44752
 Alpha  occ. eigenvalues --   -0.44584  -0.44519  -0.44253  -0.44024  -0.43902
 Alpha  occ. eigenvalues --   -0.43837  -0.43589  -0.43524  -0.43227  -0.42999
 Alpha  occ. eigenvalues --   -0.42679  -0.42645  -0.42576  -0.42282  -0.41958
 Alpha  occ. eigenvalues --   -0.41733  -0.41602  -0.41361  -0.41221  -0.40703
 Alpha  occ. eigenvalues --   -0.40465  -0.40172  -0.40153  -0.39678  -0.39593
 Alpha  occ. eigenvalues --   -0.39346  -0.39220  -0.38867  -0.38429  -0.38393
 Alpha  occ. eigenvalues --   -0.38301  -0.37848  -0.36614  -0.36261  -0.36204
 Alpha  occ. eigenvalues --   -0.35853  -0.35386  -0.34942  -0.34291  -0.33771
 Alpha  occ. eigenvalues --   -0.33556  -0.33432  -0.33098  -0.32235  -0.32063
 Alpha  occ. eigenvalues --   -0.31758  -0.31655  -0.31283  -0.26164  -0.26031
 Alpha  occ. eigenvalues --   -0.23538  -0.22856
 Alpha virt. eigenvalues --   -0.08014  -0.06905   0.00252   0.01150   0.02367
 Alpha virt. eigenvalues --    0.02557   0.04290   0.04953   0.04985   0.06113
 Alpha virt. eigenvalues --    0.06475   0.07656   0.08137   0.08315   0.08457

 Mulliken charges:
               1
     1  Mg   0.983377
     2  C   -0.013730
     3  C   -0.065831
     4  C   -0.042858
     5  C   -0.082989
     6  N   -0.296734
     7  C   -0.036527
     8  C   -0.083951
     9  C   -0.102264
    10  C   -0.016648
    11  C    0.047871
    12  C    0.043099
    13  C   -0.116527
    14  H    0.053858
    15  N   -0.496745
    16  C    0.190068
    17  C   -0.170749
    18  C   -0.082132
    19  C    0.148056
    20  C    0.071912
    21  C    0.008688
    22  O   -0.274962
    23  C    0.009804
    24  N   -0.391626
    25  C    0.045200
    26  C   -0.110634
    27  C   -0.102274
    28  C    0.088744
    29  C    0.051781
    30  C   -0.033959
    31  C   -0.032726
    32  N   -0.400091
    33  C    0.123257
    34  C   -0.202637
    35  C   -0.040005
    36  C    0.129322
    37  C    0.087817
    38  C    0.156552
    39  O   -0.192243
    40  C   -0.060254
    41  C    0.245609
    42  O   -0.268754
    43  O   -0.350397
    44  C    0.133711
    45  H   -0.007705
    46  H    0.013678
    47  H    0.005013
    48  H    0.033313
    49  H    0.025408
    50  H    0.044494
    51  H    0.034248
    52  H    0.048415
    53  H    0.032015
    54  H    0.031267
    55  H    0.048009
    56  H    0.042927
    57  H    0.067977
    58  H    0.040266
    59  H    0.043030
    60  H    0.064008
    61  H    0.055080
    62  H    0.045507
    63  H    0.047098
    64  H    0.025429
    65  H    0.046366
    66  H    0.060262
    67  H    0.027973
    68  H    0.024662
    69  H    0.033418
    70  H    0.042550
    71  H    0.036234
    72  H    0.048597
    73  H    0.031194
    74  H    0.060047
    75  H    0.065033
    76  H    0.071945
    77  H    0.066075
    78  H    0.033727
    79  H    0.061957
    80  Mg   0.983883
    81  C    0.006642
    82  C   -0.113512
    83  C   -0.075884
    84  C   -0.074258
    85  N   -0.350907
    86  C   -0.049293
    87  C   -0.050193
    88  C   -0.097937
    89  C    0.098314
    90  C    0.023309
    91  C    0.001727
    92  C   -0.115018
    93  H    0.031955
    94  N   -0.466514
    95  C    0.154179
    96  C   -0.174200
    97  C   -0.070302
    98  C    0.137919
    99  C    0.077783
   100  C    0.062784
   101  O   -0.243545
   102  C   -0.045505
   103  N   -0.390068
   104  C    0.116281
   105  C   -0.106958
   106  C   -0.048749
   107  C    0.073196
   108  C    0.009978
   109  C    0.001450
   110  C   -0.071398
   111  N   -0.414408
   112  C    0.082075
   113  C   -0.193348
   114  C   -0.037902
   115  C    0.139403
   116  C    0.088180
   117  C    0.083133
   118  O   -0.205366
   119  C   -0.074161
   120  C    0.226239
   121  O   -0.256829
   122  O   -0.333951
   123  C    0.142494
   124  H   -0.000110
   125  H    0.028410
   126  H   -0.008043
   127  H    0.049770
   128  H    0.040031
   129  H    0.052004
   130  H    0.043582
   131  H    0.040174
   132  H    0.030976
   133  H    0.043330
   134  H    0.042780
   135  H    0.062677
   136  H    0.053194
   137  H    0.041062
   138  H    0.058481
   139  H    0.058576
   140  H    0.065440
   141  H    0.052911
   142  H    0.043221
   143  H    0.032385
   144  H    0.027633
   145  H    0.060860
   146  H    0.025938
   147  H    0.049333
   148  H    0.028154
   149  H    0.020880
   150  H    0.037413
   151  H    0.045751
   152  H    0.054218
   153  H    0.052878
   154  H    0.061487
   155  H    0.067076
   156  H    0.054677
   157  H    0.045151
   158  H    0.056981
 Sum of Mulliken charges =  -0.00000

 Dipole moment (field-independent basis, Debye):
    X=             -1.1127    Y=              1.3887    Z=              4.4147  Tot=              4.7599
 Quadrupole moment (field-independent basis, Debye-Ang):
   XX=           -175.1360   YY=           -468.0127   ZZ=           -492.4311
   XY=             60.1301   XZ=            -92.2722   YZ=              9.7791

 Normal termination of Gaussian 16 at Sat Sep 18 18:45:55 2021.
