 Gaussian 16, Revision A.03,
 Gaussian 16:  ES64L-G16RevA.03 25-Dec-2016

 --------------------------------
 #p wB97XD/Def2SVP td=(nstates=5)
 --------------------------------

 --------------------------------
 TDDFT excited states in gaussian
 --------------------------------
 Symbolic Z-matrix:
 Charge =  0 Multiplicity = 1

                         Standard orientation:
 ---------------------------------------------------------------------
 Center     Atomic      Atomic             Coordinates (Angstroms)
 Number     Number       Type             X           Y           Z
 ---------------------------------------------------------------------
      1         12           0       15.978566    0.581208   -0.304384
      2          6           0       14.472257   -2.304095    1.304977
      3          6           0       13.468409    2.362077    1.071302
      4          6           0       17.285926    3.095582   -1.777992
      5          6           0       18.288454   -1.596676   -1.872219
      6          7           0       14.120939    0.023111    1.124356
      7          6           0       13.805548   -1.156106    1.687232
      8          6           0       12.667537   -0.971308    2.709168
      9          6           0       12.149689    0.448573    2.185427
     10          6           0       13.315408    1.000344    1.478171
     11          6           0       10.775270    0.522769    1.541662
     12          6           0       13.264820   -1.009329    4.126462
     13          6           0       12.236229   -1.460874    5.204767
     14          1           0       10.819962   -2.108848    4.845278
     15          7           0       15.485016    2.536325   -0.329056
     16          6           0       14.354875    3.104690    0.226716
     17          6           0       14.339669    4.518844   -0.134903
     18          6           0       15.499349    4.767681   -0.909779
     19          6           0       16.134034    3.424622   -1.030886
     20          6           0       13.288101    5.459530    0.255304
     21          6           0       16.068361    6.155736   -1.514416
     22          8           0       17.162275    6.225863   -2.004147
     23          6           0       15.378777    7.501239   -1.225723
     24          7           0       17.403399    0.663484   -1.850822
     25          6           0       17.870213    1.868654   -2.167270
     26          6           0       19.084603    1.851070   -3.056215
     27          6           0       19.596826    0.424776   -2.739365
     28          6           0       18.263561   -0.240560   -2.252646
     29          6           0       18.763923    2.032128   -4.612655
     30          6           0       20.799523    0.326026   -1.709784
     31          6           0       21.825898    1.491029   -1.600954
     32          7           0       16.277683   -1.495557   -0.406692
     33          6           0       17.245609   -2.240009   -0.996323
     34          6           0       17.187011   -3.574199   -0.601845
     35          6           0       16.107105   -3.624979    0.232598
     36          6           0       15.570516   -2.359619    0.366000
     37          6           0       18.175980   -4.670231   -0.989165
     38          6           0       15.362000   -4.576575    1.070462
     39          8           0       15.366605   -5.795612    1.153932
     40          6           0       14.309787   -3.680421    1.858415
     41          6           0       13.001182   -4.283722    1.676313
     42          8           0       12.278677   -4.204413    0.677709
     43          8           0       12.830899   -5.161818    2.686647
     44          6           0       11.753518   -6.101191    2.431871
     45          1           0       12.560709    2.893571    1.364905
     46          1           0       17.681314    3.970386   -2.297345
     47          1           0       19.080312   -2.212250   -2.303634
     48          1           0       11.861618   -1.687016    2.546331
     49          1           0       12.023179    1.059888    3.077910
     50          1           0       10.068155    1.087760    2.148260
     51          1           0       10.379697   -0.480119    1.382030
     52          1           0       10.776797    0.946706    0.537457
     53          1           0       13.509469    0.017032    4.400924
     54          1           0       14.191525   -1.577735    4.203240
     55          1           0       12.073051   -0.687301    5.955826
     56          1           0       12.845331   -2.115504    5.827953
     57          1           0       12.763593    5.130589    1.152154
     58          1           0       12.616144    5.503523   -0.601979
     59          1           0       13.650215    6.462531    0.482118
     60          1           0       15.409970    7.796050   -0.176838
     61          1           0       14.397006    7.407953   -1.690487
     62          1           0       15.838947    8.287858   -1.824270
     63          1           0       19.667183    2.692817   -2.682593
     64          1           0       19.929537   -0.116346   -3.624801
     65          1           0       19.514943    2.765878   -4.904476
     66          1           0       17.770799    2.429495   -4.825109
     67          1           0       18.907324    1.147646   -5.232149
     68          1           0       21.328763   -0.609712   -1.884090
     69          1           0       20.255087    0.369257   -0.766311
     70          1           0       21.469883    2.246464   -0.900893
     71          1           0       21.955478    1.806282   -2.636882
     72          1           0       22.810699    1.144786   -1.289207
     73          1           0       19.118533   -4.144105   -1.142287
     74          1           0       17.940060   -5.145694   -1.940756
     75          1           0       18.229546   -5.385998   -0.169051
     76          1           0       14.610271   -3.706054    2.906622
     77          1           0       11.618634   -6.831474    3.229228
     78          1           0       11.722041   -6.551161    1.439445
     79          1           0       10.790939   -5.589179    2.455819
     80         12           0      -15.920304    0.577642    0.381466
     81          6           0      -15.071369   -2.581512   -0.919496
     82          6           0      -12.712414    0.677580    1.720595
     83          6           0      -16.435468    3.741666    1.284305
     84          6           0      -18.632393    0.616833   -1.783350
     85          7           0      -14.064744   -0.782550    0.219822
     86          6           0      -13.953199   -2.079555   -0.241942
     87          6           0      -12.744275   -2.844192    0.254918
     88          6           0      -11.998735   -1.802551    1.122896
     89          6           0      -12.932132   -0.551187    1.030236
     90          6           0      -11.737094   -2.262911    2.614261
     91          6           0      -11.779314   -3.451572   -0.858671
     92          6           0      -11.648989   -2.694534   -2.190404
     93          1           0      -10.356750   -1.863112   -2.444241
     94          7           0      -14.762168    1.971898    1.352275
     95          6           0      -13.509556    1.810756    1.872588
     96          6           0      -13.115970    3.017299    2.613750
     97          6           0      -14.204659    3.935254    2.500499
     98          6           0      -15.207869    3.211336    1.660812
     99          6           0      -11.789589    3.160259    3.350667
    100          6           0      -14.055954    5.379593    3.108689
    101          8           0      -12.989240    5.674669    3.629366
    102          6           0      -15.230363    6.435531    2.957694
    103          7           0      -17.238268    1.983745   -0.263689
    104          6           0      -17.376187    3.211197    0.380347
    105          6           0      -18.694595    4.002575   -0.165503
    106          6           0      -19.233237    2.943917   -1.272449
    107          6           0      -18.310064    1.784131   -1.079620
    108          6           0      -19.718472    4.314440    0.965413
    109          6           0      -19.215007    3.463542   -2.773748
    110          6           0      -20.494962    3.350090   -3.616273
    111          7           0      -16.810237   -0.752644   -0.996018
    112          6           0      -17.896786   -0.628319   -1.823427
    113          6           0      -18.022695   -1.865988   -2.621720
    114          6           0      -16.963740   -2.703406   -2.179260
    115          6           0      -16.242732   -1.933319   -1.224402
    116          6           0      -19.036179   -2.173102   -3.689129
    117          6           0      -16.323956   -4.006001   -2.443380
    118          8           0      -16.652506   -4.981153   -3.134753
    119          6           0      -15.164282   -4.031146   -1.458837
    120          6           0      -15.298473   -5.046487   -0.469251
    121          8           0      -16.049367   -4.908114    0.530908
    122          8           0      -14.474379   -6.154269   -0.750386
    123          6           0      -14.372246   -7.211282    0.250646
    124          1           0      -11.791060    0.696823    2.305865
    125          1           0      -16.708433    4.716902    1.691760
    126          1           0      -19.537195    0.685101   -2.390174
    127          1           0      -13.196738   -3.648583    0.833622
    128          1           0      -11.118216   -1.520997    0.546521
    129          1           0      -10.669676   -2.427968    2.760546
    130          1           0      -12.300453   -3.187309    2.744395
    131          1           0      -12.058151   -1.503308    3.327796
    132          1           0      -12.276011   -4.399276   -1.070471
    133          1           0      -10.804760   -3.653294   -0.413498
    134          1           0      -12.495476   -2.022209   -2.334086
    135          1           0      -11.762426   -3.414459   -2.999848
    136          1           0      -11.046818    3.773111    2.839929
    137          1           0      -11.436016    2.194628    3.712330
    138          1           0      -11.936692    3.634330    4.320931
    139          1           0      -16.150269    5.925589    3.244765
    140          1           0      -15.252451    6.749109    1.914346
    141          1           0      -15.026668    7.395964    3.431168
    142          1           0      -18.339473    4.979092   -0.493403
    143          1           0      -20.231650    2.639135   -0.957975
    144          1           0      -20.454389    3.510648    0.968679
    145          1           0      -20.153667    5.310181    0.879754
    146          1           0      -19.277403    4.380669    1.959848
    147          1           0      -18.380013    2.962439   -3.264474
    148          1           0      -18.996314    4.521586   -2.629516
    149          1           0      -20.287522    3.400930   -4.685497
    150          1           0      -21.065748    4.217009   -3.284236
    151          1           0      -20.915343    2.385495   -3.331001
    152          1           0      -19.323007   -1.192915   -4.069046
    153          1           0      -19.866508   -2.575579   -3.108929
    154          1           0      -18.728224   -2.916952   -4.424532
    155          1           0      -14.324256   -4.227866   -2.124624
    156          1           0      -15.273328   -7.784760    0.468235
    157          1           0      -14.008807   -6.797902    1.191918
    158          1           0      -13.523087   -7.828787   -0.042585
 ---------------------------------------------------------------------

 SCF Done:  E(RwB97XD) =  -4070.57778633     A.U. after   19 cycles

 Excitation energies and oscillator strengths:

 Excited State   1:      Singlet-A      1.6635 eV  745.31 nm  f=0.3706  <S**2>=0.000
     309 -> 315       -0.18689
     312 -> 314        0.68286
     309 <- 315       -0.11707
 This state for optimization and/or second-order correction.
 Total Energy, E(TD-HF/TD-DFT) =  -4070.51665290
 Copying the excited state density for this state as the 1-particle RhoCI density.

 Excited State   2:      Singlet-A      1.7991 eV  689.15 nm  f=0.3723  <S**2>=0.000
     310 -> 316        0.19144
     311 -> 313        0.67945
     310 <- 316        0.11149

 Excited State   3:      Singlet-A      2.1926 eV  565.48 nm  f=0.1533  <S**2>=0.000
     310 -> 313        0.65249
     311 -> 316       -0.25643

 Excited State   4:      Singlet-A      2.2612 eV  548.32 nm  f=0.0696  <S**2>=0.000
     309 -> 314        0.61506
     312 -> 315        0.33669

 Excited State   5:      Singlet-A      3.9136 eV  316.81 nm  f=0.0000  <S**2>=0.000
     312 -> 313        0.70708

 The electronic state is 1-A.
 Alpha  occ. eigenvalues --  -46.95683 -46.95308 -19.31038 -19.30096 -19.25583
 Alpha  occ. eigenvalues --  -19.25217 -19.24677 -19.24278 -19.23850 -19.23691
 Alpha  occ. eigenvalues --  -14.47314 -14.46683 -14.46069 -14.45655 -14.44588
 Alpha  occ. eigenvalues --  -14.44554 -14.43918 -14.43193 -10.43907 -10.42023
 Alpha  occ. eigenvalues --  -10.41017 -10.40540 -10.39406 -10.38791 -10.35997
 Alpha  occ. eigenvalues --  -10.35856 -10.35443 -10.35414 -10.35031 -10.34850
 Alpha  occ. eigenvalues --  -10.34839 -10.34690 -10.34644 -10.34607 -10.34255
 Alpha  occ. eigenvalues --  -10.34130 -10.33922 -10.33646 -10.33560 -10.33554
 Alpha  occ. eigenvalues --  -10.33389 -10.33200 -10.32987 -10.32703 -10.32587
 Alpha  occ. eigenvalues --  -10.32540 -10.32378 -10.32373 -10.32347 -10.32287
 Alpha  occ. eigenvalues --  -10.32154 -10.32042 -10.31975 -10.31909 -10.31824
 Alpha  occ. eigenvalues --  -10.31654 -10.31641 -10.31627 -10.31530 -10.31444
 Alpha  occ. eigenvalues --  -10.31425 -10.31376 -10.31298 -10.31278 -10.31269
 Alpha  occ. eigenvalues --  -10.31122 -10.31057 -10.31039 -10.30781 -10.30703
 Alpha  occ. eigenvalues --  -10.30690 -10.30510 -10.30505 -10.30467 -10.30122
 Alpha  occ. eigenvalues --  -10.29943 -10.29883 -10.29863 -10.29720 -10.29452
 Alpha  occ. eigenvalues --  -10.29449 -10.29416 -10.29355 -10.29251 -10.29031
 Alpha  occ. eigenvalues --  -10.27674  -3.21637  -3.21374  -1.95227  -1.94919
 Alpha  occ. eigenvalues --   -1.94777  -1.94587  -1.94513  -1.94348  -1.18644
 Alpha  occ. eigenvalues --   -1.17157  -1.14877  -1.12677  -1.11635  -1.11312
 Alpha  occ. eigenvalues --   -1.09234  -1.08794  -1.07792  -1.07218  -1.06718
 Alpha  occ. eigenvalues --   -1.06176  -1.05620  -1.05410  -1.04631  -1.03926
 Alpha  occ. eigenvalues --   -0.95152  -0.94283  -0.91166  -0.91082  -0.90735
 Alpha  occ. eigenvalues --   -0.90603  -0.89978  -0.89945  -0.89495  -0.88817
 Alpha  occ. eigenvalues --   -0.88748  -0.88038  -0.87564  -0.87475  -0.86480
 Alpha  occ. eigenvalues --   -0.86288  -0.85807  -0.84993  -0.84708  -0.84252
 Alpha  occ. eigenvalues --   -0.83876  -0.83598  -0.82979  -0.82654  -0.82069
 Alpha  occ. eigenvalues --   -0.82056  -0.80617  -0.80115  -0.79181  -0.78725
 Alpha  occ. eigenvalues --   -0.78721  -0.78522  -0.78466  -0.77631  -0.77189
 Alpha  occ. eigenvalues --   -0.76885  -0.74702  -0.74344  -0.73751  -0.73623
 Alpha  occ. eigenvalues --   -0.71586  -0.71256  -0.70892  -0.70703  -0.70391
 Alpha  occ. eigenvalues --   -0.69564  -0.68851  -0.68807  -0.67715  -0.67388
 Alpha  occ. eigenvalues --   -0.67212  -0.67037  -0.66603  -0.66602  -0.66208
 Alpha  occ. eigenvalues --   -0.65652  -0.64453  -0.63769  -0.62864  -0.62264
 Alpha  occ. eigenvalues --   -0.61620  -0.61468  -0.61217  -0.61050  -0.60668
 Alpha  occ. eigenvalues --   -0.60362  -0.59846  -0.59742  -0.59464  -0.59226
 Alpha  occ. eigenvalues --   -0.58577  -0.58134  -0.57552  -0.57392  -0.57137
 Alpha  occ. eigenvalues --   -0.56902  -0.56513  -0.56383  -0.56172  -0.55977
 Alpha  occ. eigenvalues --   -0.55755  -0.55733  -0.55540  -0.55010  -0.54939
 Alpha  occ. eigenvalues --   -0.54846  -0.54521  -0.54326  -0.54173  -0.54078
 Alpha  occ. eigenvalues --   -0.53662  -0.53503  -0.53203  -0.53177  -0.53055
 Alpha  occ. eigenvalues --   -0.52906  -0.52679  -0.52625  -0.52400  -0.52260
 Alpha  occ. eigenvalues --   -0.51969  -0.51925  -0.51637  -0.51342  -0.51271
 Alpha  occ. eigenvalues --   -0.51206  -0.51050  -0.50928  -0.50872  -0.50689
 Alpha  occ. eigenvalues --   -0.50515  -0.50497  -0.50286  -0.50266  -0.50097
 Alpha  occ. eigenvalues --   -0.49787  -0.49412  -0.49307  -0.49292  -0.49218
 Alpha  occ. eigenvalues --   -0.48923  -0.48658  -0.48570  -0.48402  -0.48190
 Alpha  occ. eigenvalues --   -0.48148  -0.48103  -0.47702  -0.47668  -0.47342
 Alpha  occ. eigenvalues --   -0.47318  -0.46919  -0.46806  -0.46743  -0.46593
 Alpha  occ. eigenvalues --   -0.46544  -0.46486  -0.46429  -0.46213  -0.46145
 Alpha  occ. eigenvalues --   -0.45983  -0.45892  -0.45841  -0.45738  -0.45247
 Alpha  occ. eigenvalues --   -0.45175  -0.45174  -0.45032  -0.44906  -0.44889
 Alpha  occ. eigenvalues --   -0.44674  -0.44578  -0.44373  -0.44369  -0.44210
 Alpha  occ. eigenvalues --   -0.44196  -0.44069  -0.43978  -0.43569  -0.43341
 Alpha  occ. eigenvalues --   -0.43212  -0.42980  -0.42509  -0.42279  -0.42167
 Alpha  occ. eigenvalues --   -0.41784  -0.41620  -0.41620  -0.41219  -0.40860
 Alpha  occ. eigenvalues --   -0.40594  -0.40156  -0.40000  -0.39618  -0.39482
 Alpha  occ. eigenvalues --   -0.39402  -0.39176  -0.39005  -0.38655  -0.38648
 Alpha  occ. eigenvalues --   -0.37903  -0.37636  -0.36762  -0.36326  -0.36138
 Alpha  occ. eigenvalues --   -0.35658  -0.35496  -0.34683  -0.33952  -0.33736
 Alpha  occ. eigenvalues --   -0.33561  -0.33263  -0.33036  -0.32828  -0.32470
 Alpha  occ. eigenvalues --   -0.32304  -0.31785  -0.31582  -0.26091  -0.25298
 Alpha  occ. eigenvalues --   -0.23206  -0.22658
 Alpha virt. eigenvalues --   -0.06584  -0.06529   0.00091   0.00843   0.02321
 Alpha virt. eigenvalues --    0.02623   0.04081   0.04770   0.04902   0.05564
 Alpha virt. eigenvalues --    0.05576   0.06762   0.07471   0.07790   0.07915

 Mulliken charges:
               1
     1  Mg   0.963094
     2  C   -0.002625
     3  C   -0.069560
     4  C   -0.087100
     5  C   -0.078752
     6  N   -0.252395
     7  C   -0.062638
     8  C   -0.061927
     9  C   -0.088942
    10  C    0.000126
    11  C    0.039649
    12  C    0.010119
    13  C   -0.092244
    14  H    0.048438
    15  N   -0.472744
    16  C    0.161463
    17  C   -0.161828
    18  C   -0.088160
    19  C    0.121980
    20  C    0.059528
    21  C    0.076609
    22  O   -0.197377
    23  C   -0.024217
    24  N   -0.321584
    25  C    0.065189
    26  C   -0.102367
    27  C   -0.113776
    28  C    0.058357
    29  C    0.030226
    30  C   -0.010586
    31  C   -0.052907
    32  N   -0.409935
    33  C    0.090549
    34  C   -0.219163
    35  C   -0.051324
    36  C    0.154680
    37  C    0.095852
    38  C    0.138564
    39  O   -0.197798
    40  C   -0.093066
    41  C    0.252604
    42  O   -0.272127
    43  O   -0.331206
    44  C    0.153313
    45  H   -0.010546
    46  H    0.011931
    47  H    0.003414
    48  H    0.040462
    49  H    0.017733
    50  H    0.039842
    51  H    0.042793
    52  H    0.036651
    53  H    0.031801
    54  H    0.048029
    55  H    0.038519
    56  H    0.037332
    57  H    0.044156
    58  H    0.065951
    59  H    0.040914
    60  H    0.086423
    61  H    0.045264
    62  H    0.050833
    63  H    0.043782
    64  H    0.017541
    65  H    0.041956
    66  H    0.045918
    67  H    0.042537
    68  H    0.037402
    69  H    0.027782
    70  H    0.050434
    71  H    0.034823
    72  H    0.039877
    73  H    0.025438
    74  H    0.053058
    75  H    0.055790
    76  H    0.073333
    77  H    0.049804
    78  H    0.060915
    79  H    0.024120
    80  Mg   0.986887
    81  C   -0.108834
    82  C   -0.085586
    83  C   -0.110627
    84  C   -0.096024
    85  N   -0.341769
    86  C   -0.038351
    87  C   -0.062404
    88  C   -0.058568
    89  C    0.026510
    90  C    0.027374
    91  C   -0.015148
    92  C   -0.118728
    93  H    0.036865
    94  N   -0.448575
    95  C    0.153376
    96  C   -0.157719
    97  C   -0.113625
    98  C    0.206865
    99  C    0.095346
   100  C    0.069562
   101  O   -0.226647
   102  C   -0.026064
   103  N   -0.421967
   104  C    0.079235
   105  C   -0.103100
   106  C   -0.075692
   107  C    0.085863
   108  C    0.009844
   109  C   -0.024305
   110  C   -0.038127
   111  N   -0.406428
   112  C    0.119625
   113  C   -0.211595
   114  C   -0.096388
   115  C    0.263567
   116  C    0.092520
   117  C    0.145528
   118  O   -0.217741
   119  C   -0.059400
   120  C    0.315813
   121  O   -0.277635
   122  O   -0.382185
   123  C    0.152228
   124  H   -0.009176
   125  H   -0.035104
   126  H   -0.015818
   127  H    0.049523
   128  H    0.045625
   129  H    0.043672
   130  H    0.040467
   131  H    0.046333
   132  H    0.038401
   133  H    0.048366
   134  H    0.063052
   135  H    0.056502
   136  H    0.065263
   137  H    0.022993
   138  H    0.044040
   139  H    0.073659
   140  H    0.060894
   141  H    0.052687
   142  H    0.044394
   143  H    0.036147
   144  H    0.037616
   145  H    0.038493
   146  H    0.031760
   147  H    0.048516
   148  H    0.025098
   149  H    0.051639
   150  H    0.041615
   151  H    0.037733
   152  H    0.034763
   153  H    0.054980
   154  H    0.066732
   155  H    0.059903
   156  H    0.069401
   157  H    0.033763
   158  H    0.052290
 Sum of Mulliken charges =  -0.00000

 Dipole moment (field-independent basis, Debye):
    X=             -1.3816    Y=              7.7731    Z=              3.7275  Tot=              8.7307
 Quadrupole moment (field-independent basis, Debye-Ang):
   XX=           -483.3047   YY=           -520.3725   ZZ=           -507.7476
   XY=              4.5685   XZ=             -0.4841   YZ=            -20.3980

 Normal termination of Gaussian 16 at Sun Sep 19 15:43:43 2021.
