 Gaussian 16, Revision A.03,
 Gaussian 16:  ES64L-G16RevA.03 25-Dec-2016

 --------------------------------
 #p wB97XD/Def2SVP td=(nstates=5)
 --------------------------------

 --------------------------------
 TDDFT excited states in gaussian
 --------------------------------
 Symbolic Z-matrix:
 Charge =  0 Multiplicity = 1

                         Standard orientation:
 ---------------------------------------------------------------------
 Center     Atomic      Atomic             Coordinates (Angstroms)
 Number     Number       Type             X           Y           Z
 ---------------------------------------------------------------------
      1         12           0       21.803202   -0.613218    0.429580
      2          6           0       21.813345    2.406049   -1.414294
      3          6           0       22.393618    1.211259    3.299139
      4          6           0       22.079794   -3.535217    2.122814
      5          6           0       21.416892   -2.437331   -2.539053
      6          7           0       22.158934    1.545683    0.768129
      7          6           0       21.900595    2.622171   -0.077137
      8          6           0       22.025391    4.002171    0.689309
      9          6           0       22.478647    3.541794    2.100381
     10          6           0       22.399122    1.998961    2.073085
     11          6           0       23.887498    4.016414    2.619042
     12          6           0       20.786814    4.984090    0.592021
     13          6           0       21.079273    6.322468   -0.015907
     14          1           0       20.308940    7.552085    0.609489
     15          7           0       22.186543   -1.032755    2.390711
     16          6           0       22.338107   -0.169672    3.456948
     17          6           0       22.585077   -0.936098    4.668267
     18          6           0       22.501938   -2.328062    4.381351
     19          6           0       22.219372   -2.361396    2.899204
     20          6           0       22.731297   -0.310947    6.070221
     21          6           0       22.615210   -3.532259    5.310640
     22          8           0       22.437654   -4.679297    4.955461
     23          6           0       22.870948   -3.432786    6.870347
     24          7           0       21.848890   -2.716646   -0.159517
     25          6           0       21.969293   -3.704615    0.717581
     26          6           0       21.893809   -5.114806    0.030720
     27          6           0       21.483355   -4.748529   -1.450360
     28          6           0       21.556911   -3.192480   -1.399511
     29          6           0       23.198221   -5.936720    0.241473
     30          6           0       20.142137   -5.340777   -1.835470
     31          6           0       20.099585   -5.921485   -3.247807
     32          7           0       21.773602   -0.222642   -1.616365
     33          6           0       21.513966   -1.036618   -2.702268
     34          6           0       21.603866   -0.222796   -3.875350
     35          6           0       21.673336    1.128105   -3.453493
     36          6           0       21.784524    1.105101   -2.035225
     37          6           0       21.533768   -0.701907   -5.275679
     38          6           0       21.633284    2.527968   -3.911180
     39          8           0       21.666263    3.042127   -5.025383
     40          6           0       21.691161    3.444146   -2.463104
     41          6           0       22.809106    4.334436   -2.501524
     42          8           0       23.840011    4.174264   -1.884800
     43          8           0       22.508611    5.465648   -3.226117
     44          6           0       23.660409    6.394565   -3.340898
     45          1           0       22.456823    1.753365    4.245161
     46          1           0       22.208390   -4.504432    2.608096
     47          1           0       21.209103   -3.075122   -3.401493
     48          1           0       22.935051    4.446223    0.286473
     49          1           0       21.768178    3.871025    2.858689
     50          1           0       23.763032    4.260748    3.674449
     51          1           0       24.198428    4.878952    2.030102
     52          1           0       24.672947    3.264667    2.538805
     53          1           0       20.398330    5.071882    1.606746
     54          1           0       20.055371    4.501046   -0.056092
     55          1           0       20.814543    6.310835   -1.074024
     56          1           0       22.158422    6.420834    0.098395
     57          1           0       21.848037   -0.639070    6.617055
     58          1           0       22.611302    0.769716    5.990019
     59          1           0       23.613218   -0.612889    6.636517
     60          1           0       22.082950   -2.813037    7.299574
     61          1           0       23.912443   -3.222914    7.115743
     62          1           0       22.868172   -4.468091    7.209962
     63          1           0       21.082945   -5.738396    0.406665
     64          1           0       22.306117   -5.090657   -2.078452
     65          1           0       23.534079   -6.300286   -0.730087
     66          1           0       23.094131   -6.732322    0.979662
     67          1           0       23.977607   -5.288662    0.638960
     68          1           0       19.330141   -4.621753   -1.732049
     69          1           0       19.790446   -6.126416   -1.164951
     70          1           0       20.992696   -5.657890   -3.814442
     71          1           0       19.241425   -5.462023   -3.739077
     72          1           0       19.885409   -6.990340   -3.252945
     73          1           0       21.422125   -1.774539   -5.433799
     74          1           0       22.324647   -0.177474   -5.813300
     75          1           0       20.526294   -0.412582   -5.575615
     76          1           0       20.768096    4.017096   -2.370402
     77          1           0       24.493047    5.891899   -3.833472
     78          1           0       23.862274    6.748425   -2.329925
     79          1           0       23.446334    7.261082   -3.965319
     80         12           0      -21.692202   -0.687568   -0.064958
     81          6           0      -23.362782    2.033195    1.364120
     82          6           0      -19.719463    1.356532   -1.708034
     83          6           0      -20.621274   -3.329633   -1.982354
     84          6           0      -24.129847   -2.849791    1.294526
     85          7           0      -21.533712    1.413843   -0.048067
     86          6           0      -22.244220    2.376457    0.634776
     87          6           0      -21.616063    3.755957    0.484412
     88          6           0      -20.603137    3.512533   -0.680001
     89          6           0      -20.532439    2.026792   -0.750385
     90          6           0      -20.806143    4.210091   -2.007675
     91          6           0      -21.018549    4.352816    1.798557
     92          6           0      -20.409095    5.752298    1.661495
     93          1           0      -20.899107    6.794214    2.656380
     94          7           0      -20.329455   -0.944280   -1.752689
     95          6           0      -19.504222    0.037309   -2.172440
     96          6           0      -18.578220   -0.500947   -3.129916
     97          6           0      -18.905411   -1.857123   -3.300955
     98          6           0      -20.007665   -2.087460   -2.327898
     99          6           0      -17.520217    0.321227   -3.835060
    100          6           0      -18.255616   -2.897587   -4.153106
    101          8           0      -18.688373   -4.061444   -4.367623
    102          6           0      -16.918990   -2.609677   -4.825797
    103          7           0      -22.304348   -2.740725   -0.318684
    104          6           0      -21.744438   -3.585719   -1.215418
    105          6           0      -22.298445   -5.090036   -0.963563
    106          6           0      -23.058125   -4.931729    0.400185
    107          6           0      -23.133354   -3.445124    0.539886
    108          6           0      -23.196463   -5.519664   -2.188845
    109          6           0      -22.179221   -5.456327    1.593852
    110          6           0      -20.753268   -4.950570    1.747555
    111          7           0      -23.427552   -0.501078    1.179360
    112          6           0      -24.271298   -1.483766    1.619237
    113          6           0      -25.238465   -0.868174    2.403399
    114          6           0      -25.002598    0.536245    2.364826
    115          6           0      -23.880008    0.712233    1.599298
    116          6           0      -26.414639   -1.472414    3.085923
    117          6           0      -25.444404    1.887212    2.779169
    118          8           0      -26.407480    2.303110    3.413096
    119          6           0      -24.313606    2.909925    2.213595
    120          6           0      -24.951466    4.087268    1.566464
    121          8           0      -26.026075    4.050832    0.896520
    122          8           0      -24.283683    5.159044    1.971624
    123          6           0      -25.017553    6.401947    1.829142
    124          1           0      -18.963705    1.979736   -2.190885
    125          1           0      -20.267731   -4.188116   -2.558375
    126          1           0      -24.785566   -3.559741    1.801013
    127          1           0      -22.461591    4.406534    0.260150
    128          1           0      -19.583190    3.800640   -0.423126
    129          1           0      -21.445999    5.092500   -2.007336
    130          1           0      -21.172566    3.487126   -2.736974
    131          1           0      -19.816400    4.364466   -2.437873
    132          1           0      -20.282238    3.663116    2.211981
    133          1           0      -21.802179    4.399644    2.554047
    134          1           0      -20.829044    6.285859    0.809003
    135          1           0      -19.320660    5.707839    1.613519
    136          1           0      -17.583140    1.395341   -3.661046
    137          1           0      -17.587391    0.348988   -4.922361
    138          1           0      -16.501323    0.020559   -3.589086
    139          1           0      -17.090893   -1.865808   -5.603253
    140          1           0      -16.593478   -3.436269   -5.456965
    141          1           0      -16.122037   -2.376931   -4.118616
    142          1           0      -21.460464   -5.786219   -0.928301
    143          1           0      -24.039567   -5.372636    0.225739
    144          1           0      -23.088828   -4.868757   -3.056683
    145          1           0      -24.266221   -5.521197   -1.979126
    146          1           0      -22.941566   -6.497871   -2.594032
    147          1           0      -22.202294   -6.521398    1.362990
    148          1           0      -22.626695   -5.329078    2.579125
    149          1           0      -20.446991   -4.413555    0.849574
    150          1           0      -20.008569   -5.684205    2.054352
    151          1           0      -20.828938   -4.310330    2.626492
    152          1           0      -26.170997   -2.299729    3.752947
    153          1           0      -27.025681   -1.881078    2.281630
    154          1           0      -27.012227   -0.735515    3.621569
    155          1           0      -23.807871    3.254723    3.115139
    156          1           0      -24.888641    7.015859    2.721420
    157          1           0      -26.097114    6.314654    1.708905
    158          1           0      -24.572133    6.914050    0.975610
 ---------------------------------------------------------------------

 SCF Done:  E(RwB97XD) =  -4070.62101095     A.U. after   19 cycles

 Excitation energies and oscillator strengths:

 Excited State   1:      Singlet-A      1.6680 eV  743.29 nm  f=0.3895  <S**2>=0.000
     310 -> 316       -0.17126
     311 -> 313        0.68673
     310 <- 316       -0.11161
 This state for optimization and/or second-order correction.
 Total Energy, E(TD-HF/TD-DFT) =  -4070.55971133
 Copying the excited state density for this state as the 1-particle RhoCI density.

 Excited State   2:      Singlet-A      1.7610 eV  704.06 nm  f=0.3736  <S**2>=0.000
     309 -> 315        0.17859
     312 -> 314        0.68334
     309 <- 315        0.10771

 Excited State   3:      Singlet-A      2.0912 eV  592.90 nm  f=0.1646  <S**2>=0.000
     310 -> 313        0.66094
     311 -> 316        0.23076

 Excited State   4:      Singlet-A      2.2096 eV  561.12 nm  f=0.1120  <S**2>=0.000
     309 -> 314        0.63748
     312 -> 315       -0.28423

 Excited State   5:      Singlet-A      3.0724 eV  403.54 nm  f=0.0090  <S**2>=0.000
     308 -> 313        0.67869

 The electronic state is 1-A.
 Alpha  occ. eigenvalues --  -46.95734 -46.94621 -19.31862 -19.29524 -19.25002
 Alpha  occ. eigenvalues --  -19.24397 -19.24236 -19.24119 -19.24031 -19.23472
 Alpha  occ. eigenvalues --  -14.47530 -14.46937 -14.46435 -14.46375 -14.45054
 Alpha  occ. eigenvalues --  -14.44377 -14.43318 -14.42603 -10.43081 -10.42110
 Alpha  occ. eigenvalues --  -10.40493 -10.40007 -10.39817 -10.38840 -10.36707
 Alpha  occ. eigenvalues --  -10.36217 -10.36211 -10.35748 -10.35399 -10.35325
 Alpha  occ. eigenvalues --  -10.35183 -10.35021 -10.34999 -10.34892 -10.34759
 Alpha  occ. eigenvalues --  -10.34501 -10.34187 -10.34070 -10.34017 -10.33785
 Alpha  occ. eigenvalues --  -10.33233 -10.33118 -10.32707 -10.32628 -10.32609
 Alpha  occ. eigenvalues --  -10.32426 -10.32398 -10.32371 -10.32368 -10.32365
 Alpha  occ. eigenvalues --  -10.32152 -10.32129 -10.32052 -10.31948 -10.31905
 Alpha  occ. eigenvalues --  -10.31895 -10.31833 -10.31824 -10.31813 -10.31810
 Alpha  occ. eigenvalues --  -10.31704 -10.31679 -10.31434 -10.31207 -10.31040
 Alpha  occ. eigenvalues --  -10.30923 -10.30735 -10.30694 -10.30632 -10.30513
 Alpha  occ. eigenvalues --  -10.30460 -10.30430 -10.30394 -10.30341 -10.30232
 Alpha  occ. eigenvalues --  -10.30168 -10.30056 -10.29916 -10.29721 -10.29545
 Alpha  occ. eigenvalues --  -10.29259 -10.29122 -10.28956 -10.28882 -10.28715
 Alpha  occ. eigenvalues --  -10.28274  -3.21579  -3.20586  -1.95174  -1.94670
 Alpha  occ. eigenvalues --   -1.94559  -1.94184  -1.93702  -1.93564  -1.20295
 Alpha  occ. eigenvalues --   -1.17994  -1.13834  -1.11474  -1.11002  -1.10657
 Alpha  occ. eigenvalues --   -1.09595  -1.08107  -1.07519  -1.06398  -1.06121
 Alpha  occ. eigenvalues --   -1.05335  -1.04581  -1.04477  -1.04003  -1.02980
 Alpha  occ. eigenvalues --   -0.93801  -0.93794  -0.91502  -0.91209  -0.91025
 Alpha  occ. eigenvalues --   -0.90361  -0.90334  -0.90050  -0.89985  -0.89299
 Alpha  occ. eigenvalues --   -0.89072  -0.88862  -0.87602  -0.87511  -0.86727
 Alpha  occ. eigenvalues --   -0.86318  -0.85682  -0.85539  -0.84782  -0.84453
 Alpha  occ. eigenvalues --   -0.83826  -0.83312  -0.83036  -0.82699  -0.82647
 Alpha  occ. eigenvalues --   -0.82093  -0.80892  -0.80490  -0.79511  -0.79270
 Alpha  occ. eigenvalues --   -0.78867  -0.78393  -0.78070  -0.77694  -0.77196
 Alpha  occ. eigenvalues --   -0.76717  -0.74730  -0.74251  -0.73727  -0.73327
 Alpha  occ. eigenvalues --   -0.71895  -0.71133  -0.71101  -0.70778  -0.70370
 Alpha  occ. eigenvalues --   -0.69699  -0.69468  -0.69186  -0.67567  -0.67474
 Alpha  occ. eigenvalues --   -0.67212  -0.66782  -0.66689  -0.66642  -0.66522
 Alpha  occ. eigenvalues --   -0.66387  -0.64712  -0.63163  -0.63088  -0.62127
 Alpha  occ. eigenvalues --   -0.61755  -0.61236  -0.61194  -0.60808  -0.60549
 Alpha  occ. eigenvalues --   -0.59980  -0.59787  -0.59525  -0.59255  -0.59046
 Alpha  occ. eigenvalues --   -0.58235  -0.57984  -0.57969  -0.57734  -0.57703
 Alpha  occ. eigenvalues --   -0.57392  -0.57299  -0.56753  -0.56351  -0.56168
 Alpha  occ. eigenvalues --   -0.55655  -0.55273  -0.55256  -0.55205  -0.55113
 Alpha  occ. eigenvalues --   -0.54988  -0.54913  -0.54535  -0.54481  -0.54086
 Alpha  occ. eigenvalues --   -0.53658  -0.53652  -0.53528  -0.53353  -0.53079
 Alpha  occ. eigenvalues --   -0.52926  -0.52814  -0.52540  -0.52531  -0.52432
 Alpha  occ. eigenvalues --   -0.52083  -0.52048  -0.51558  -0.51541  -0.51490
 Alpha  occ. eigenvalues --   -0.51393  -0.51086  -0.50831  -0.50670  -0.50600
 Alpha  occ. eigenvalues --   -0.50507  -0.50461  -0.50272  -0.50030  -0.49999
 Alpha  occ. eigenvalues --   -0.49950  -0.49713  -0.49511  -0.49229  -0.49147
 Alpha  occ. eigenvalues --   -0.48729  -0.48705  -0.48459  -0.48370  -0.48299
 Alpha  occ. eigenvalues --   -0.48161  -0.47953  -0.47891  -0.47779  -0.47502
 Alpha  occ. eigenvalues --   -0.47374  -0.47136  -0.47095  -0.46789  -0.46695
 Alpha  occ. eigenvalues --   -0.46633  -0.46450  -0.46365  -0.46219  -0.45999
 Alpha  occ. eigenvalues --   -0.45913  -0.45811  -0.45653  -0.45514  -0.45367
 Alpha  occ. eigenvalues --   -0.45228  -0.45193  -0.45162  -0.45018  -0.44839
 Alpha  occ. eigenvalues --   -0.44580  -0.44337  -0.44329  -0.44229  -0.44008
 Alpha  occ. eigenvalues --   -0.43929  -0.43824  -0.43441  -0.43389  -0.43170
 Alpha  occ. eigenvalues --   -0.43159  -0.42783  -0.42500  -0.42398  -0.42238
 Alpha  occ. eigenvalues --   -0.41974  -0.41601  -0.41532  -0.41348  -0.41149
 Alpha  occ. eigenvalues --   -0.40637  -0.40625  -0.39863  -0.39688  -0.39385
 Alpha  occ. eigenvalues --   -0.39243  -0.38933  -0.38881  -0.38582  -0.38349
 Alpha  occ. eigenvalues --   -0.38262  -0.37875  -0.36202  -0.36138  -0.35962
 Alpha  occ. eigenvalues --   -0.35819  -0.35368  -0.35057  -0.34176  -0.33952
 Alpha  occ. eigenvalues --   -0.33530  -0.33194  -0.32977  -0.32919  -0.32218
 Alpha  occ. eigenvalues --   -0.32089  -0.30788  -0.30644  -0.26055  -0.26003
 Alpha  occ. eigenvalues --   -0.23606  -0.23191
 Alpha virt. eigenvalues --   -0.07735  -0.06874   0.00115   0.00630   0.01970
 Alpha virt. eigenvalues --    0.02056   0.04176   0.04519   0.04929   0.05978
 Alpha virt. eigenvalues --    0.06607   0.06884   0.07131   0.07874   0.08178

 Mulliken charges:
               1
     1  Mg   0.955687
     2  C    0.013577
     3  C   -0.100380
     4  C   -0.065521
     5  C   -0.067038
     6  N   -0.380768
     7  C   -0.011872
     8  C   -0.051931
     9  C   -0.156833
    10  C    0.113127
    11  C    0.022942
    12  C    0.049651
    13  C   -0.135413
    14  H    0.029576
    15  N   -0.509859
    16  C    0.184386
    17  C   -0.168110
    18  C   -0.051404
    19  C    0.184766
    20  C    0.065922
    21  C    0.037423
    22  O   -0.218181
    23  C   -0.019059
    24  N   -0.318057
    25  C    0.037562
    26  C   -0.121259
    27  C   -0.060514
    28  C    0.021329
    29  C    0.018082
    30  C    0.000716
    31  C   -0.057002
    32  N   -0.464227
    33  C    0.166558
    34  C   -0.208629
    35  C   -0.042131
    36  C    0.161376
    37  C    0.091213
    38  C    0.152310
    39  O   -0.199094
    40  C   -0.162638
    41  C    0.269531
    42  O   -0.250498
    43  O   -0.372358
    44  C    0.150437
    45  H   -0.008626
    46  H    0.020412
    47  H   -0.018297
    48  H    0.051659
    49  H    0.032757
    50  H    0.036895
    51  H    0.043468
    52  H    0.050815
    53  H    0.038825
    54  H    0.034433
    55  H    0.066028
    56  H    0.050679
    57  H    0.052507
    58  H    0.034056
    59  H    0.066428
    60  H    0.061597
    61  H    0.055664
    62  H    0.047393
    63  H    0.040330
    64  H    0.034417
    65  H    0.035237
    66  H    0.050609
    67  H    0.041497
    68  H    0.030906
    69  H    0.027947
    70  H    0.041082
    71  H    0.031052
    72  H    0.041241
    73  H    0.019067
    74  H    0.070188
    75  H    0.044790
    76  H    0.079857
    77  H    0.060118
    78  H    0.049484
    79  H    0.052092
    80  Mg   0.940785
    81  C    0.025500
    82  C   -0.076040
    83  C   -0.054397
    84  C   -0.071334
    85  N   -0.396470
    86  C   -0.020172
    87  C   -0.029588
    88  C   -0.089412
    89  C    0.104740
    90  C    0.044372
    91  C    0.022493
    92  C   -0.128873
    93  H    0.030690
    94  N   -0.379634
    95  C    0.094802
    96  C   -0.112127
    97  C   -0.048693
    98  C    0.101527
    99  C    0.053072
   100  C    0.041151
   101  O   -0.259341
   102  C   -0.008831
   103  N   -0.351628
   104  C    0.069271
   105  C   -0.145382
   106  C   -0.029732
   107  C    0.038903
   108  C    0.014257
   109  C   -0.014333
   110  C   -0.051411
   111  N   -0.418233
   112  C    0.151665
   113  C   -0.204224
   114  C   -0.041206
   115  C    0.088496
   116  C    0.077102
   117  C    0.161903
   118  O   -0.201869
   119  C   -0.129242
   120  C    0.263482
   121  O   -0.280586
   122  O   -0.330288
   123  C    0.127185
   124  H   -0.027657
   125  H    0.024848
   126  H   -0.001111
   127  H    0.031544
   128  H    0.031539
   129  H    0.056327
   130  H    0.033593
   131  H    0.025684
   132  H    0.024409
   133  H    0.044947
   134  H    0.046529
   135  H    0.062177
   136  H    0.028571
   137  H    0.048744
   138  H    0.055098
   139  H    0.043729
   140  H    0.044650
   141  H    0.064137
   142  H    0.043808
   143  H    0.030748
   144  H    0.043559
   145  H    0.032462
   146  H    0.040122
   147  H    0.029588
   148  H    0.030938
   149  H    0.055296
   150  H    0.043810
   151  H    0.033816
   152  H    0.035240
   153  H    0.042872
   154  H    0.057960
   155  H    0.082037
   156  H    0.053485
   157  H    0.078571
   158  H    0.049580
 Sum of Mulliken charges =  -0.00000

 Dipole moment (field-independent basis, Debye):
    X=              5.8562    Y=              0.5244    Z=              4.2610  Tot=              7.2613
 Quadrupole moment (field-independent basis, Debye-Ang):
   XX=           -846.5731   YY=           -471.6470   ZZ=           -510.8012
   XY=            -16.3645   XZ=            131.7117   YZ=              7.1999

 Normal termination of Gaussian 16 at Mon Sep 20 12:59:46 2021.
