 Gaussian 16, Revision A.03,
 Gaussian 16:  ES64L-G16RevA.03 25-Dec-2016

 --------------------------------
 #p wB97XD/Def2SVP td=(nstates=5)
 --------------------------------

 --------------------------------
 TDDFT excited states in gaussian
 --------------------------------
 Symbolic Z-matrix:
 Charge =  0 Multiplicity = 1

                         Standard orientation:
 ---------------------------------------------------------------------
 Center     Atomic      Atomic             Coordinates (Angstroms)
 Number     Number       Type             X           Y           Z
 ---------------------------------------------------------------------
      1         12           0      -26.650364   -0.589345   -0.130165
      2          6           0      -24.675990    1.832177   -1.432009
      3          6           0      -28.369200    1.802057    1.711449
      4          6           0      -28.620923   -3.012361    1.176496
      5          6           0      -24.637640   -3.008139   -1.572879
      6          7           0      -26.557333    1.511449   -0.022644
      7          6           0      -25.656502    2.342927   -0.604483
      8          6           0      -26.011387    3.795375   -0.420491
      9          6           0      -27.011927    3.768765    0.796769
     10          6           0      -27.362900    2.244847    0.812589
     11          6           0      -26.585464    4.375858    2.198314
     12          6           0      -26.734520    4.395600   -1.709120
     13          6           0      -26.579124    5.941434   -1.814405
     14          1           0      -26.383461    6.824719   -0.570754
     15          7           0      -28.247339   -0.655465    1.330546
     16          6           0      -28.800229    0.493468    1.954614
     17          6           0      -29.874011    0.097704    2.815229
     18          6           0      -29.966274   -1.334649    2.693557
     19          6           0      -28.913238   -1.699158    1.679578
     20          6           0      -30.742824    1.037782    3.574933
     21          6           0      -30.920885   -2.303358    3.382543
     22          8           0      -30.867998   -3.566395    3.313833
     23          6           0      -32.037129   -1.754726    4.255014
     24          7           0      -26.602094   -2.695703   -0.125487
     25          6           0      -27.646795   -3.499487    0.333538
     26          6           0      -27.602994   -4.970748   -0.171184
     27          6           0      -26.278969   -4.870844   -1.117099
     28          6           0      -25.810438   -3.468946   -0.976176
     29          6           0      -27.454274   -5.909155    1.033273
     30          6           0      -26.495905   -5.314399   -2.533829
     31          6           0      -25.557385   -6.402305   -2.971549
     32          7           0      -24.981929   -0.701024   -1.147140
     33          6           0      -24.246064   -1.729997   -1.721586
     34          6           0      -23.129532   -1.203633   -2.415303
     35          6           0      -23.192978    0.212245   -2.315733
     36          6           0      -24.392495    0.490152   -1.626921
     37          6           0      -22.076913   -1.920080   -3.170692
     38          6           0      -22.489157    1.447677   -2.581777
     39          8           0      -21.420963    1.738620   -3.083547
     40          6           0      -23.521332    2.552512   -2.052170
     41          6           0      -22.840295    3.677348   -1.359258
     42          8           0      -21.941818    3.592580   -0.561532
     43          8           0      -23.296216    4.883853   -1.730327
     44          6           0      -22.640022    6.029912   -1.038971
     45          1           0      -28.721415    2.600255    2.368359
     46          1           0      -29.175308   -3.789763    1.706202
     47          1           0      -24.019650   -3.697623   -2.151676
     48          1           0      -25.169973    4.387253   -0.060600
     49          1           0      -27.934654    4.260080    0.489758
     50          1           0      -25.611410    4.846105    2.062949
     51          1           0      -26.536606    3.698211    3.049194
     52          1           0      -27.358532    5.094516    2.470998
     53          1           0      -27.770143    4.070166   -1.609187
     54          1           0      -26.280947    3.923836   -2.580877
     55          1           0      -27.495319    6.228809   -2.330582
     56          1           0      -25.793460    6.116320   -2.548945
     57          1           0      -31.558603    1.490835    3.011508
     58          1           0      -30.065995    1.789160    3.979732
     59          1           0      -31.108176    0.621204    4.513122
     60          1           0      -31.587025   -1.565965    5.229512
     61          1           0      -32.751920   -2.572916    4.339486
     62          1           0      -32.478594   -0.829959    3.883090
     63          1           0      -28.573061   -5.158184   -0.631708
     64          1           0      -25.513652   -5.530933   -0.707450
     65          1           0      -27.261370   -5.427136    1.991909
     66          1           0      -26.742737   -6.695159    0.781380
     67          1           0      -28.434317   -6.366136    1.173345
     68          1           0      -26.325031   -4.522801   -3.263520
     69          1           0      -27.506872   -5.657693   -2.753730
     70          1           0      -26.064551   -7.235688   -3.456873
     71          1           0      -25.009190   -6.817724   -2.126383
     72          1           0      -24.813664   -5.882554   -3.576282
     73          1           0      -21.823528   -2.917643   -2.810622
     74          1           0      -21.165720   -1.396194   -2.880516
     75          1           0      -22.322448   -1.931390   -4.232672
     76          1           0      -23.830333    2.914493   -3.033207
     77          1           0      -21.651993    6.244850   -1.448509
     78          1           0      -22.672059    5.924477    0.045574
     79          1           0      -23.234119    6.924161   -1.228888
     80         12           0       26.697608   -0.673878    0.049053
     81          6           0       25.351185    2.461711    1.062613
     82          6           0       27.738132    0.813381   -2.871214
     83          6           0       27.827516   -3.674519   -0.749909
     84          6           0       25.121373   -2.201167    2.895489
     85          7           0       26.502308    1.451819   -0.877296
     86          6           0       25.997106    2.535735   -0.182882
     87          6           0       26.217850    3.783623   -1.104898
     88          6           0       26.970953    3.238585   -2.432587
     89          6           0       27.060869    1.758420   -2.047470
     90          6           0       26.291729    3.561164   -3.779836
     91          6           0       26.870918    5.064947   -0.439690
     92          6           0       26.052015    6.321224   -0.506151
     93          1           0       25.052037    6.609697   -1.594557
     94          7           0       27.809390   -1.338849   -1.604501
     95          6           0       28.113708   -0.571459   -2.684454
     96          6           0       29.002096   -1.365499   -3.493664
     97          6           0       28.961767   -2.675241   -2.968715
     98          6           0       28.150057   -2.660572   -1.708456
     99          6           0       29.628375   -0.766081   -4.764071
    100          6           0       29.503048   -3.920715   -3.602738
    101          8           0       29.305243   -5.052235   -3.099962
    102          6           0       30.241664   -3.821980   -4.885758
    103          7           0       26.410215   -2.674514    0.972641
    104          6           0       27.039305   -3.687238    0.486564
    105          6           0       26.935138   -5.080595    1.308073
    106          6           0       26.046796   -4.587281    2.460306
    107          6           0       25.841532   -3.128990    2.130707
    108          6           0       26.296417   -6.186727    0.390660
    109          6           0       26.599429   -4.784131    3.915684
    110          6           0       27.768471   -3.864823    4.342228
    111          7           0       25.426274   -0.057338    1.527088
    112          6           0       24.865144   -0.814279    2.582451
    113          6           0       24.140570    0.112021    3.463182
    114          6           0       24.313487    1.403186    2.909239
    115          6           0       25.144053    1.255708    1.747290
    116          6           0       23.383545   -0.284778    4.765898
    117          6           0       23.996010    2.714001    3.127198
    118          8           0       23.308274    3.259438    3.966072
    119          6           0       24.685478    3.520229    1.991281
    120          6           0       23.686907    4.333768    1.336961
    121          8           0       22.984743    3.963127    0.389457
    122          8           0       23.470251    5.501384    2.078298
    123          6           0       22.329923    6.323657    1.603318
    124          1           0       27.892564    1.089307   -3.916793
    125          1           0       28.064922   -4.678193   -1.108929
    126          1           0       24.625945   -2.613250    3.777019
    127          1           0       25.173300    4.066794   -1.228025
    128          1           0       27.935677    3.736892   -2.516985
    129          1           0       26.980986    4.085490   -4.442970
    130          1           0       25.358434    4.122400   -3.737531
    131          1           0       26.055749    2.580221   -4.192353
    132          1           0       27.849002    5.256844   -0.881293
    133          1           0       26.965146    4.820492    0.618386
    134          1           0       26.740074    7.119232   -0.787441
    135          1           0       25.582573    6.463615    0.466576
    136          1           0       29.577543    0.322943   -4.772549
    137          1           0       29.119806   -1.158490   -5.643746
    138          1           0       30.666206   -1.096425   -4.734946
    139          1           0       31.083659   -3.151383   -4.714057
    140          1           0       29.627369   -3.368878   -5.664804
    141          1           0       30.519274   -4.811561   -5.246511
    142          1           0       27.910727   -5.397500    1.677542
    143          1           0       25.038951   -4.984615    2.337832
    144          1           0       25.630540   -5.688810   -0.314117
    145          1           0       25.683236   -6.834224    1.018437
    146          1           0       26.967496   -6.826071   -0.183498
    147          1           0       26.778938   -5.842507    4.102015
    148          1           0       25.771965   -4.609829    4.602738
    149          1           0       28.465193   -3.561899    3.561334
    150          1           0       28.272052   -4.330523    5.190115
    151          1           0       27.288996   -2.978982    4.758460
    152          1           0       23.646073    0.338248    5.620955
    153          1           0       23.504418   -1.334216    5.032167
    154          1           0       22.347514    0.045436    4.686318
    155          1           0       25.382415    4.137995    2.556671
    156          1           0       21.384836    5.818235    1.800317
    157          1           0       22.327472    6.515421    0.530935
    158          1           0       22.478121    7.320364    2.019262
 ---------------------------------------------------------------------

 SCF Done:  E(RwB97XD) =  -4070.61063142     A.U. after   19 cycles

 Excitation energies and oscillator strengths:

 Excited State   1:      Singlet-A      1.5874 eV  781.03 nm  f=0.3907  <S**2>=0.000
     309 -> 316       -0.17577
     312 -> 313        0.68654
     309 <- 316       -0.11664
 This state for optimization and/or second-order correction.
 Total Energy, E(TD-HF/TD-DFT) =  -4070.55229423
 Copying the excited state density for this state as the 1-particle RhoCI density.

 Excited State   2:      Singlet-A      1.7177 eV  721.79 nm  f=0.3729  <S**2>=0.000
     310 -> 315       -0.19152
     311 -> 314        0.67997
     310 <- 315       -0.11531

 Excited State   3:      Singlet-A      2.1591 eV  574.23 nm  f=0.1052  <S**2>=0.000
     310 -> 314        0.63944
     311 -> 315        0.28264

 Excited State   4:      Singlet-A      2.1692 eV  571.58 nm  f=0.1107  <S**2>=0.000
     309 -> 313        0.63604
     312 -> 316        0.29408

 Excited State   5:      Singlet-A      3.3097 eV  374.61 nm  f=0.0147  <S**2>=0.000
     305 -> 313        0.10101
     307 -> 313        0.67093
     312 -> 316       -0.11076

 The electronic state is 1-A.
 Alpha  occ. eigenvalues --  -46.96129 -46.93495 -19.30357 -19.29416 -19.24269
 Alpha  occ. eigenvalues --  -19.24150 -19.23860 -19.23680 -19.23540 -19.22474
 Alpha  occ. eigenvalues --  -14.47451 -14.47244 -14.46434 -14.46287 -14.44359
 Alpha  occ. eigenvalues --  -14.44220 -14.44098 -14.43392 -10.42404 -10.42379
 Alpha  occ. eigenvalues --  -10.39209 -10.39161 -10.39072 -10.37183 -10.35968
 Alpha  occ. eigenvalues --  -10.35800 -10.35790 -10.35568 -10.35370 -10.35084
 Alpha  occ. eigenvalues --  -10.35034 -10.34939 -10.34706 -10.34505 -10.34469
 Alpha  occ. eigenvalues --  -10.34130 -10.34109 -10.33885 -10.33779 -10.33585
 Alpha  occ. eigenvalues --  -10.33318 -10.32951 -10.32880 -10.32865 -10.32824
 Alpha  occ. eigenvalues --  -10.32695 -10.32419 -10.32293 -10.32177 -10.32162
 Alpha  occ. eigenvalues --  -10.32105 -10.32088 -10.32087 -10.32044 -10.31950
 Alpha  occ. eigenvalues --  -10.31901 -10.31896 -10.31886 -10.31798 -10.31747
 Alpha  occ. eigenvalues --  -10.31656 -10.31587 -10.31578 -10.31531 -10.31449
 Alpha  occ. eigenvalues --  -10.31413 -10.31169 -10.31133 -10.31130 -10.31130
 Alpha  occ. eigenvalues --  -10.30667 -10.30491 -10.30246 -10.30195 -10.29959
 Alpha  occ. eigenvalues --  -10.29854 -10.29777 -10.29697 -10.29656 -10.29620
 Alpha  occ. eigenvalues --  -10.29487 -10.29430 -10.29315 -10.29269 -10.28905
 Alpha  occ. eigenvalues --  -10.27809  -3.21934  -3.19746  -1.95534  -1.95088
 Alpha  occ. eigenvalues --   -1.94854  -1.93335  -1.92860  -1.92767  -1.19463
 Alpha  occ. eigenvalues --   -1.16425  -1.12373  -1.11380  -1.10714  -1.09612
 Alpha  occ. eigenvalues --   -1.09438  -1.08425  -1.08106  -1.06508  -1.05752
 Alpha  occ. eigenvalues --   -1.05591  -1.05049  -1.04715  -1.03653  -1.03411
 Alpha  occ. eigenvalues --   -0.95346  -0.94195  -0.91575  -0.91571  -0.90716
 Alpha  occ. eigenvalues --   -0.90433  -0.90252  -0.89646  -0.89583  -0.89211
 Alpha  occ. eigenvalues --   -0.89158  -0.88682  -0.88348  -0.87383  -0.86224
 Alpha  occ. eigenvalues --   -0.86199  -0.85710  -0.85202  -0.84416  -0.84367
 Alpha  occ. eigenvalues --   -0.84172  -0.83578  -0.82991  -0.82573  -0.82453
 Alpha  occ. eigenvalues --   -0.82006  -0.80310  -0.80297  -0.79696  -0.79444
 Alpha  occ. eigenvalues --   -0.79259  -0.78450  -0.78320  -0.77592  -0.77144
 Alpha  occ. eigenvalues --   -0.76919  -0.74866  -0.74472  -0.73804  -0.73514
 Alpha  occ. eigenvalues --   -0.72331  -0.71064  -0.71000  -0.70580  -0.70131
 Alpha  occ. eigenvalues --   -0.69786  -0.68912  -0.68668  -0.67776  -0.67292
 Alpha  occ. eigenvalues --   -0.67224  -0.66865  -0.66763  -0.66563  -0.66188
 Alpha  occ. eigenvalues --   -0.66071  -0.64315  -0.63358  -0.62320  -0.62248
 Alpha  occ. eigenvalues --   -0.61876  -0.61462  -0.60925  -0.60583  -0.60353
 Alpha  occ. eigenvalues --   -0.60071  -0.59953  -0.59848  -0.59708  -0.59492
 Alpha  occ. eigenvalues --   -0.58193  -0.58066  -0.57964  -0.57343  -0.57178
 Alpha  occ. eigenvalues --   -0.57144  -0.56975  -0.56884  -0.55846  -0.55456
 Alpha  occ. eigenvalues --   -0.55270  -0.55198  -0.54945  -0.54911  -0.54797
 Alpha  occ. eigenvalues --   -0.54768  -0.54466  -0.54444  -0.54352  -0.54094
 Alpha  occ. eigenvalues --   -0.53949  -0.53893  -0.53441  -0.53234  -0.53202
 Alpha  occ. eigenvalues --   -0.53072  -0.52692  -0.52427  -0.52226  -0.52002
 Alpha  occ. eigenvalues --   -0.51916  -0.51718  -0.51586  -0.51450  -0.51164
 Alpha  occ. eigenvalues --   -0.51106  -0.50934  -0.50929  -0.50784  -0.50760
 Alpha  occ. eigenvalues --   -0.50492  -0.50298  -0.50122  -0.49941  -0.49891
 Alpha  occ. eigenvalues --   -0.49854  -0.49741  -0.49401  -0.49243  -0.49203
 Alpha  occ. eigenvalues --   -0.49116  -0.48624  -0.48620  -0.48530  -0.48517
 Alpha  occ. eigenvalues --   -0.48416  -0.48287  -0.48070  -0.47829  -0.47707
 Alpha  occ. eigenvalues --   -0.47399  -0.47134  -0.46838  -0.46808  -0.46698
 Alpha  occ. eigenvalues --   -0.46464  -0.46463  -0.46092  -0.45983  -0.45815
 Alpha  occ. eigenvalues --   -0.45706  -0.45634  -0.45452  -0.45373  -0.45195
 Alpha  occ. eigenvalues --   -0.45109  -0.45109  -0.44647  -0.44353  -0.44353
 Alpha  occ. eigenvalues --   -0.44241  -0.44241  -0.43967  -0.43827  -0.43759
 Alpha  occ. eigenvalues --   -0.43711  -0.43526  -0.43355  -0.43319  -0.43158
 Alpha  occ. eigenvalues --   -0.42998  -0.42942  -0.42823  -0.42490  -0.42466
 Alpha  occ. eigenvalues --   -0.42313  -0.42266  -0.41965  -0.41912  -0.41659
 Alpha  occ. eigenvalues --   -0.40987  -0.40194  -0.39872  -0.39622  -0.39158
 Alpha  occ. eigenvalues --   -0.38973  -0.38862  -0.38630  -0.38625  -0.38409
 Alpha  occ. eigenvalues --   -0.38005  -0.37431  -0.36609  -0.36195  -0.35884
 Alpha  occ. eigenvalues --   -0.35525  -0.35418  -0.35286  -0.33671  -0.33514
 Alpha  occ. eigenvalues --   -0.33168  -0.32804  -0.32631  -0.32492  -0.32123
 Alpha  occ. eigenvalues --   -0.31909  -0.31743  -0.31632  -0.26220  -0.25714
 Alpha  occ. eigenvalues --   -0.23041  -0.22824
 Alpha virt. eigenvalues --   -0.07312  -0.06861   0.00155   0.00308   0.02180
 Alpha virt. eigenvalues --    0.02224   0.04349   0.04457   0.05715   0.06135
 Alpha virt. eigenvalues --    0.07256   0.07449   0.07861   0.08043   0.08139

 Mulliken charges:
               1
     1  Mg   0.985726
     2  C    0.012819
     3  C   -0.095431
     4  C   -0.062354
     5  C   -0.128249
     6  N   -0.378509
     7  C   -0.008462
     8  C   -0.043349
     9  C   -0.122008
    10  C    0.057987
    11  C    0.021188
    12  C    0.005336
    13  C   -0.092360
    14  H    0.043454
    15  N   -0.389525
    16  C    0.164122
    17  C   -0.155428
    18  C   -0.073758
    19  C    0.099920
    20  C    0.064874
    21  C    0.052956
    22  O   -0.274742
    23  C   -0.022276
    24  N   -0.392068
    25  C    0.057945
    26  C   -0.092113
    27  C   -0.027198
    28  C    0.108952
    29  C    0.008966
    30  C   -0.008522
    31  C   -0.062963
    32  N   -0.527677
    33  C    0.189968
    34  C   -0.191353
    35  C   -0.055025
    36  C    0.141528
    37  C    0.072762
    38  C    0.153123
    39  O   -0.183096
    40  C   -0.107225
    41  C    0.224479
    42  O   -0.229882
    43  O   -0.358821
    44  C    0.140872
    45  H   -0.003547
    46  H    0.017230
    47  H   -0.016879
    48  H    0.024529
    49  H    0.035435
    50  H    0.042339
    51  H    0.048434
    52  H    0.037243
    53  H    0.035710
    54  H    0.041459
    55  H    0.044215
    56  H    0.060595
    57  H    0.073819
    58  H    0.034851
    59  H    0.031883
    60  H    0.066678
    61  H    0.059198
    62  H    0.050468
    63  H    0.056032
    64  H    0.035265
    65  H    0.060735
    66  H    0.037240
    67  H    0.041371
    68  H    0.033223
    69  H    0.028285
    70  H    0.043800
    71  H    0.022331
    72  H    0.037638
    73  H    0.026952
    74  H    0.061499
    75  H    0.068382
    76  H    0.069222
    77  H    0.070831
    78  H    0.058561
    79  H    0.040391
    80  Mg   0.949332
    81  C    0.012644
    82  C   -0.090563
    83  C   -0.048226
    84  C   -0.087880
    85  N   -0.314467
    86  C   -0.013192
    87  C   -0.056067
    88  C   -0.105079
    89  C    0.077769
    90  C    0.018412
    91  C    0.000205
    92  C   -0.139739
    93  H    0.031650
    94  N   -0.486393
    95  C    0.140240
    96  C   -0.180296
    97  C   -0.072247
    98  C    0.161240
    99  C    0.072734
   100  C    0.036365
   101  O   -0.261888
   102  C    0.006698
   103  N   -0.272098
   104  C    0.015629
   105  C   -0.109963
   106  C    0.029173
   107  C   -0.039921
   108  C   -0.003655
   109  C   -0.032826
   110  C   -0.036122
   111  N   -0.476926
   112  C    0.148604
   113  C   -0.176006
   114  C    0.006788
   115  C    0.138811
   116  C    0.087136
   117  C    0.031627
   118  O   -0.201446
   119  C   -0.063227
   120  C    0.267115
   121  O   -0.263259
   122  O   -0.379059
   123  C    0.150041
   124  H    0.007832
   125  H    0.029030
   126  H   -0.009065
   127  H    0.057256
   128  H    0.044898
   129  H    0.035046
   130  H    0.051820
   131  H    0.033495
   132  H    0.031587
   133  H    0.036254
   134  H    0.048466
   135  H    0.062304
   136  H    0.047865
   137  H    0.064234
   138  H    0.046309
   139  H    0.050861
   140  H    0.050357
   141  H    0.058498
   142  H    0.052368
   143  H    0.036488
   144  H    0.045585
   145  H    0.037060
   146  H    0.064053
   147  H    0.030895
   148  H    0.025098
   149  H    0.049787
   150  H    0.041200
   151  H    0.038649
   152  H    0.043737
   153  H    0.031540
   154  H    0.051184
   155  H    0.073533
   156  H    0.064679
   157  H    0.041708
   158  H    0.053722
 Sum of Mulliken charges =  -0.00000

 Dipole moment (field-independent basis, Debye):
    X=             -0.4577    Y=              1.5578    Z=             -2.8226  Tot=              3.2562
 Quadrupole moment (field-independent basis, Debye-Ang):
   XX=            -99.4345   YY=           -469.9855   ZZ=           -492.8989
   XY=            -83.0770   XZ=            -52.1876   YZ=             -8.0020

 Normal termination of Gaussian 16 at Sun Sep 19 22:49:42 2021.
