 Gaussian 16, Revision A.03,
 Gaussian 16:  ES64L-G16RevA.03 25-Dec-2016

 --------------------------------
 #p wB97XD/Def2SVP td=(nstates=5)
 --------------------------------

 --------------------------------
 TDDFT excited states in gaussian
 --------------------------------
 Symbolic Z-matrix:
 Charge =  0 Multiplicity = 1

                         Standard orientation:
 ---------------------------------------------------------------------
 Center     Atomic      Atomic             Coordinates (Angstroms)
 Number     Number       Type             X           Y           Z
 ---------------------------------------------------------------------
      1         12           0      -10.836602    0.597153    0.176903
      2          6           0       -9.105881   -2.218418   -0.975678
      3          6           0      -10.574765   -0.814223    3.323351
      4          6           0      -12.166278    3.394511    1.421393
      5          6           0      -10.239704    2.187753   -2.878271
      6          7           0       -9.690803   -1.337679    1.088766
      7          6           0       -9.180396   -2.363700    0.381208
      8          6           0       -8.679248   -3.499737    1.240217
      9          6           0       -9.459300   -3.094021    2.548439
     10          6           0       -9.913697   -1.647598    2.381941
     11          6           0      -10.717515   -3.987595    2.713410
     12          6           0       -7.146674   -3.564472    1.242460
     13          6           0       -6.323397   -2.260526    1.291653
     14          1           0       -5.206272   -2.216192    2.327486
     15          7           0      -11.311983    1.200827    2.072778
     16          6           0      -11.231821    0.419446    3.194890
     17          6           0      -12.104632    0.985721    4.231547
     18          6           0      -12.475504    2.314491    3.778024
     19          6           0      -11.989696    2.326359    2.364419
     20          6           0      -12.219722    0.372360    5.679389
     21          6           0      -13.192025    3.396462    4.589815
     22          8           0      -13.632334    3.152058    5.678462
     23          6           0      -13.390900    4.765476    4.006099
     24          7           0      -10.946973    2.618432   -0.615435
     25          6           0      -11.662361    3.627534    0.055591
     26          6           0      -11.805985    4.957509   -0.798709
     27          6           0      -11.216685    4.485122   -2.212275
     28          6           0      -10.802449    2.972860   -1.908298
     29          6           0      -13.227647    5.705009   -0.907943
     30          6           0      -10.036430    5.353968   -2.845589
     31          6           0      -10.138487    5.361800   -4.450435
     32          7           0       -9.918711    0.121000   -1.639194
     33          6           0       -9.838608    0.840160   -2.814348
     34          6           0       -9.237994    0.003875   -3.846416
     35          6           0       -8.969902   -1.251758   -3.242705
     36          6           0       -9.335761   -1.102532   -1.856336
     37          6           0       -9.108805    0.337707   -5.309545
     38          6           0       -8.374468   -2.622499   -3.362484
     39          8           0       -7.778687   -3.138957   -4.281406
     40          6           0       -8.513798   -3.262400   -1.916104
     41          6           0       -9.391900   -4.474208   -2.066168
     42          8           0       -9.001820   -5.569913   -2.541634
     43          8           0      -10.621660   -4.234313   -1.470426
     44          6           0      -11.469763   -5.371169   -1.335182
     45          1           0      -10.574989   -1.298831    4.302014
     46          1           0      -12.763864    4.278855    1.653201
     47          1           0      -10.242077    2.626551   -3.878352
     48          1           0       -9.106709   -4.454940    0.935897
     49          1           0       -8.926535   -3.146259    3.496964
     50          1           0      -11.471204   -3.354845    3.182739
     51          1           0      -10.469093   -4.903668    3.247454
     52          1           0      -11.270823   -4.295807    1.825748
     53          1           0       -6.872069   -4.003220    0.283688
     54          1           0       -6.837863   -4.221076    2.055943
     55          1           0       -6.986943   -1.434771    1.547244
     56          1           0       -5.837626   -2.131723    0.324849
     57          1           0      -11.378443    0.584936    6.339616
     58          1           0      -12.351431   -0.707321    5.607588
     59          1           0      -13.115161    0.635879    6.241104
     60          1           0      -13.772831    5.472080    4.743666
     61          1           0      -14.065641    4.773237    3.149849
     62          1           0      -12.363017    5.075419    3.815842
     63          1           0      -11.094380    5.586501   -0.265158
     64          1           0      -12.003104    4.430902   -2.964522
     65          1           0      -13.274381    6.422698   -0.089724
     66          1           0      -14.055935    4.999273   -0.851283
     67          1           0      -13.284206    6.195408   -1.879966
     68          1           0       -9.068312    4.883786   -2.673397
     69          1           0      -10.015931    6.357963   -2.420987
     70          1           0       -9.250878    4.916910   -4.900422
     71          1           0      -10.225678    6.389422   -4.802053
     72          1           0      -10.910930    4.765108   -4.934382
     73          1           0       -8.513857    1.245617   -5.402781
     74          1           0      -10.097029    0.524881   -5.730188
     75          1           0       -8.588303   -0.439804   -5.868460
     76          1           0       -7.515271   -3.643797   -1.703768
     77          1           0      -12.359211   -5.089654   -0.771972
     78          1           0      -10.922940   -6.227453   -0.940006
     79          1           0      -11.906858   -5.671184   -2.287531
     80         12           0       10.892770    0.468235    0.350351
     81          6           0        8.100557   -1.593195   -0.547993
     82          6           0       10.848435    1.719293   -2.862813
     83          6           0       13.783406    1.842216    1.007316
     84          6           0       10.851190   -1.105033    3.437993
     85          7           0        9.750101   -0.119057   -1.633253
     86          6           0        8.617583   -0.887460   -1.642002
     87          6           0        7.857534   -0.673843   -2.978449
     88          6           0        8.772663    0.354572   -3.765985
     89          6           0        9.905223    0.696171   -2.730329
     90          6           0        9.411084   -0.120628   -5.138500
     91          6           0        6.404144   -0.148581   -2.835034
     92          6           0        5.349957   -0.788499   -3.666450
     93          1           0        5.656560   -1.635842   -4.959970
     94          7           0       12.208798    1.651083   -0.782981
     95          6           0       11.974511    2.188822   -2.048266
     96          6           0       13.151188    2.981466   -2.453535
     97          6           0       13.961349    3.107179   -1.260283
     98          6           0       13.342895    2.181361   -0.283118
     99          6           0       13.383027    3.589415   -3.803670
    100          6           0       15.228091    3.948499   -0.976760
    101          8           0       15.668143    4.219170    0.160511
    102          6           0       15.868481    4.620862   -2.123888
    103          7           0       12.109940    0.318899    1.926218
    104          6           0       13.325039    0.967800    1.911520
    105          6           0       13.997457    0.931462    3.311866
    106          6           0       12.834587    0.279165    4.183151
    107          6           0       11.848217   -0.193835    3.129455
    108          6           0       15.388328    0.189003    3.455049
    109          6           0       12.152693    1.173163    5.206690
    110          6           0       12.361329    0.776989    6.683371
    111          7           0        9.628850   -0.893508    1.358823
    112          6           0        9.763653   -1.459834    2.604311
    113          6           0        8.706027   -2.455940    2.819889
    114          6           0        8.015850   -2.475919    1.620877
    115          6           0        8.605354   -1.519734    0.764086
    116          6           0        8.456462   -3.323304    4.009304
    117          6           0        6.901569   -3.094326    0.997456
    118          8           0        6.017468   -3.885826    1.432677
    119          6           0        6.903540   -2.581557   -0.380163
    120          6           0        6.875877   -3.724053   -1.359112
    121          8           0        7.771804   -4.468006   -1.570021
    122          8           0        5.713021   -3.735652   -2.010341
    123          6           0        5.338550   -4.891028   -2.752891
    124          1           0       10.914007    2.158456   -3.860617
    125          1           0       14.716856    2.269054    1.382412
    126          1           0       10.894534   -1.649606    4.382656
    127          1           0        7.836099   -1.649047   -3.466291
    128          1           0        8.214970    1.268919   -3.966350
    129          1           0        9.047043   -1.075465   -5.516758
    130          1           0       10.473028   -0.283591   -4.948914
    131          1           0        9.310454    0.658054   -5.895170
    132          1           0        6.309273    0.908730   -3.085151
    133          1           0        6.015030   -0.256470   -1.822995
    134          1           0        4.698273   -0.021912   -4.086772
    135          1           0        4.758538   -1.421196   -3.005200
    136          1           0       14.349447    3.261951   -4.186329
    137          1           0       13.413710    4.668204   -3.650752
    138          1           0       12.520870    3.455182   -4.457763
    139          1           0       16.220797    3.844537   -2.803146
    140          1           0       16.751581    5.109982   -1.713510
    141          1           0       15.240156    5.406972   -2.541740
    142          1           0       14.102938    1.975701    3.607769
    143          1           0       13.278746   -0.559876    4.718627
    144          1           0       15.702500   -0.207398    2.490175
    145          1           0       15.397694   -0.553163    4.254220
    146          1           0       16.110369    0.927833    3.803107
    147          1           0       11.100498    1.399771    5.033963
    148          1           0       12.618380    2.154373    5.120922
    149          1           0       11.485947    0.807423    7.331816
    150          1           0       12.940597    1.579873    7.140153
    151          1           0       12.808363   -0.202540    6.847572
    152          1           0        8.958859   -2.959907    4.906223
    153          1           0        8.934600   -4.292874    3.870714
    154          1           0        7.378717   -3.479068    4.055687
    155          1           0        5.993681   -1.989817   -0.477179
    156          1           0        5.055381   -5.645330   -2.017408
    157          1           0        6.198545   -5.319560   -3.267762
    158          1           0        4.464784   -4.693973   -3.374588
 ---------------------------------------------------------------------

 SCF Done:  E(RwB97XD) =  -4070.60206376     A.U. after   20 cycles

 Excitation energies and oscillator strengths:

 Excited State   1:      Singlet-A      1.6714 eV  741.81 nm  f=0.4236  <S**2>=0.000
     310 -> 316        0.18107
     312 -> 313        0.68448
     310 <- 316        0.11407
 This state for optimization and/or second-order correction.
 Total Energy, E(TD-HF/TD-DFT) =  -4070.54064207
 Copying the excited state density for this state as the 1-particle RhoCI density.

 Excited State   2:      Singlet-A      1.6942 eV  731.81 nm  f=0.3462  <S**2>=0.000
     309 -> 315       -0.19908
     311 -> 314        0.67853
     309 <- 315       -0.11855

 Excited State   3:      Singlet-A      2.1577 eV  574.60 nm  f=0.1274  <S**2>=0.000
     310 -> 313        0.64757
     312 -> 316       -0.26947

 Excited State   4:      Singlet-A      2.1842 eV  567.63 nm  f=0.1009  <S**2>=0.000
     309 -> 314        0.63336
     311 -> 315        0.30064

 Excited State   5:      Singlet-A      3.6739 eV  337.48 nm  f=0.0000  <S**2>=0.000
     311 -> 313        0.70697

 The electronic state is 1-A.
 Alpha  occ. eigenvalues --  -46.96747 -46.95168 -19.31245 -19.30094 -19.24984
 Alpha  occ. eigenvalues --  -19.24577 -19.24480 -19.24090 -19.24082 -19.23447
 Alpha  occ. eigenvalues --  -14.46852 -14.46568 -14.46414 -14.46141 -14.45138
 Alpha  occ. eigenvalues --  -14.44247 -14.44048 -14.44022 -10.43847 -10.42780
 Alpha  occ. eigenvalues --  -10.39814 -10.39295 -10.38798 -10.38693 -10.36967
 Alpha  occ. eigenvalues --  -10.35960 -10.35700 -10.35687 -10.35184 -10.35073
 Alpha  occ. eigenvalues --  -10.35003 -10.34966 -10.34845 -10.34598 -10.34571
 Alpha  occ. eigenvalues --  -10.34195 -10.34034 -10.33974 -10.33808 -10.33580
 Alpha  occ. eigenvalues --  -10.33565 -10.33391 -10.33296 -10.33255 -10.33038
 Alpha  occ. eigenvalues --  -10.32910 -10.32725 -10.32590 -10.32488 -10.32459
 Alpha  occ. eigenvalues --  -10.32450 -10.32436 -10.32205 -10.32202 -10.32187
 Alpha  occ. eigenvalues --  -10.32172 -10.32150 -10.32058 -10.32041 -10.31910
 Alpha  occ. eigenvalues --  -10.31823 -10.31759 -10.31643 -10.31521 -10.31496
 Alpha  occ. eigenvalues --  -10.31184 -10.30998 -10.30791 -10.30788 -10.30709
 Alpha  occ. eigenvalues --  -10.30592 -10.30341 -10.30317 -10.30281 -10.30162
 Alpha  occ. eigenvalues --  -10.30145 -10.30126 -10.30091 -10.29940 -10.29807
 Alpha  occ. eigenvalues --  -10.29674 -10.29654 -10.29331 -10.29230 -10.29225
 Alpha  occ. eigenvalues --  -10.29079  -3.22592  -3.21188  -1.96136  -1.95725
 Alpha  occ. eigenvalues --   -1.95543  -1.94760  -1.94323  -1.94158  -1.20689
 Alpha  occ. eigenvalues --   -1.18626  -1.13757  -1.12892  -1.11794  -1.10385
 Alpha  occ. eigenvalues --   -1.10278  -1.09245  -1.06830  -1.06798  -1.05967
 Alpha  occ. eigenvalues --   -1.05728  -1.04960  -1.04424  -1.03914  -1.03688
 Alpha  occ. eigenvalues --   -0.95545  -0.94469  -0.90960  -0.90881  -0.90302
 Alpha  occ. eigenvalues --   -0.90293  -0.90175  -0.89655  -0.89607  -0.89270
 Alpha  occ. eigenvalues --   -0.88691  -0.88125  -0.87988  -0.87676  -0.86760
 Alpha  occ. eigenvalues --   -0.86420  -0.85309  -0.85259  -0.84614  -0.84427
 Alpha  occ. eigenvalues --   -0.83878  -0.83816  -0.83562  -0.82756  -0.82393
 Alpha  occ. eigenvalues --   -0.82347  -0.80166  -0.79568  -0.79503  -0.79229
 Alpha  occ. eigenvalues --   -0.79004  -0.78630  -0.78332  -0.78185  -0.77284
 Alpha  occ. eigenvalues --   -0.77034  -0.75108  -0.74801  -0.74045  -0.73387
 Alpha  occ. eigenvalues --   -0.71867  -0.71340  -0.71304  -0.70861  -0.70225
 Alpha  occ. eigenvalues --   -0.69325  -0.69211  -0.68123  -0.67841  -0.67776
 Alpha  occ. eigenvalues --   -0.66857  -0.66837  -0.66772  -0.66722  -0.66619
 Alpha  occ. eigenvalues --   -0.66367  -0.65696  -0.64912  -0.62216  -0.62087
 Alpha  occ. eigenvalues --   -0.61800  -0.61273  -0.61224  -0.61035  -0.60941
 Alpha  occ. eigenvalues --   -0.60162  -0.60111  -0.59716  -0.59648  -0.59342
 Alpha  occ. eigenvalues --   -0.58311  -0.58272  -0.58023  -0.58005  -0.57479
 Alpha  occ. eigenvalues --   -0.57000  -0.56999  -0.56813  -0.56214  -0.55653
 Alpha  occ. eigenvalues --   -0.55623  -0.55215  -0.55147  -0.55126  -0.55026
 Alpha  occ. eigenvalues --   -0.54834  -0.54766  -0.54596  -0.54253  -0.53839
 Alpha  occ. eigenvalues --   -0.53627  -0.53544  -0.53421  -0.53370  -0.53336
 Alpha  occ. eigenvalues --   -0.53039  -0.52954  -0.52652  -0.52491  -0.52008
 Alpha  occ. eigenvalues --   -0.51937  -0.51916  -0.51870  -0.51718  -0.51687
 Alpha  occ. eigenvalues --   -0.51509  -0.51164  -0.50912  -0.50892  -0.50610
 Alpha  occ. eigenvalues --   -0.50600  -0.50453  -0.50303  -0.50136  -0.50057
 Alpha  occ. eigenvalues --   -0.49540  -0.49505  -0.49270  -0.49264  -0.49184
 Alpha  occ. eigenvalues --   -0.48892  -0.48769  -0.48638  -0.48628  -0.48269
 Alpha  occ. eigenvalues --   -0.48076  -0.48004  -0.47969  -0.47899  -0.47642
 Alpha  occ. eigenvalues --   -0.47639  -0.47442  -0.47257  -0.47124  -0.47106
 Alpha  occ. eigenvalues --   -0.46830  -0.46656  -0.46413  -0.46330  -0.46182
 Alpha  occ. eigenvalues --   -0.45907  -0.45810  -0.45601  -0.45527  -0.45397
 Alpha  occ. eigenvalues --   -0.45296  -0.45240  -0.44939  -0.44816  -0.44698
 Alpha  occ. eigenvalues --   -0.44491  -0.44440  -0.44251  -0.44171  -0.44021
 Alpha  occ. eigenvalues --   -0.43930  -0.43704  -0.43651  -0.43486  -0.43311
 Alpha  occ. eigenvalues --   -0.43138  -0.43051  -0.42805  -0.42249  -0.42105
 Alpha  occ. eigenvalues --   -0.41910  -0.41831  -0.41496  -0.41026  -0.40905
 Alpha  occ. eigenvalues --   -0.40841  -0.40085  -0.40008  -0.39763  -0.39355
 Alpha  occ. eigenvalues --   -0.39209  -0.39006  -0.38787  -0.38425  -0.38243
 Alpha  occ. eigenvalues --   -0.38110  -0.37684  -0.36677  -0.36542  -0.36405
 Alpha  occ. eigenvalues --   -0.36030  -0.35393  -0.35073  -0.33630  -0.33563
 Alpha  occ. eigenvalues --   -0.33469  -0.33233  -0.32935  -0.32822  -0.32779
 Alpha  occ. eigenvalues --   -0.32535  -0.31868  -0.31514  -0.25963  -0.25961
 Alpha  occ. eigenvalues --   -0.23221  -0.23032
 Alpha virt. eigenvalues --   -0.07199  -0.06993  -0.00183   0.00534   0.01937
 Alpha virt. eigenvalues --    0.02177   0.03921   0.04140   0.04202   0.05482
 Alpha virt. eigenvalues --    0.06659   0.07896   0.07965   0.08467   0.08583

 Mulliken charges:
               1
     1  Mg   0.954785
     2  C    0.127118
     3  C   -0.086777
     4  C   -0.102770
     5  C   -0.086988
     6  N   -0.280244
     7  C   -0.106279
     8  C    0.024606
     9  C   -0.115346
    10  C    0.019818
    11  C    0.017994
    12  C    0.021162
    13  C   -0.133405
    14  H    0.033551
    15  N   -0.458979
    16  C    0.175485
    17  C   -0.148363
    18  C   -0.099929
    19  C    0.211665
    20  C    0.047875
    21  C    0.038157
    22  O   -0.200567
    23  C   -0.012759
    24  N   -0.368200
    25  C    0.007530
    26  C   -0.062991
    27  C   -0.084133
    28  C    0.069846
    29  C    0.005032
    30  C   -0.009815
    31  C   -0.094108
    32  N   -0.439555
    33  C    0.138830
    34  C   -0.213707
    35  C   -0.016349
    36  C    0.078852
    37  C    0.071727
    38  C    0.139910
    39  O   -0.173623
    40  C   -0.211110
    41  C    0.295969
    42  O   -0.266875
    43  O   -0.352149
    44  C    0.141290
    45  H    0.007407
    46  H   -0.025144
    47  H   -0.021024
    48  H    0.029577
    49  H    0.028541
    50  H    0.024488
    51  H    0.050364
    52  H    0.027379
    53  H    0.036980
    54  H    0.046582
    55  H    0.070417
    56  H    0.060265
    57  H    0.063363
    58  H    0.025894
    59  H    0.056076
    60  H    0.046968
    61  H    0.080129
    62  H    0.053677
    63  H    0.053637
    64  H    0.040259
    65  H    0.049428
    66  H    0.047550
    67  H    0.050410
    68  H    0.049620
    69  H    0.043897
    70  H    0.038279
    71  H    0.044366
    72  H    0.040134
    73  H    0.037202
    74  H    0.051943
    75  H    0.058751
    76  H    0.085232
    77  H    0.049509
    78  H    0.055103
    79  H    0.046562
    80  Mg   0.968492
    81  C   -0.020887
    82  C   -0.037335
    83  C   -0.069122
    84  C   -0.100497
    85  N   -0.318809
    86  C   -0.004674
    87  C   -0.025430
    88  C   -0.108453
    89  C    0.038713
    90  C    0.011118
    91  C    0.006968
    92  C   -0.132213
    93  H    0.014772
    94  N   -0.444918
    95  C    0.109577
    96  C   -0.188479
    97  C   -0.082302
    98  C    0.150550
    99  C    0.090794
   100  C    0.056556
   101  O   -0.260262
   102  C   -0.009850
   103  N   -0.429144
   104  C    0.096489
   105  C   -0.123038
   106  C   -0.081882
   107  C    0.106425
   108  C    0.028036
   109  C    0.012517
   110  C   -0.064870
   111  N   -0.411554
   112  C    0.113910
   113  C   -0.170933
   114  C   -0.051396
   115  C    0.143882
   116  C    0.088567
   117  C    0.115003
   118  O   -0.250997
   119  C   -0.028866
   120  C    0.225682
   121  O   -0.205944
   122  O   -0.332264
   123  C    0.138501
   124  H   -0.013878
   125  H    0.019955
   126  H   -0.001673
   127  H    0.046315
   128  H    0.041905
   129  H    0.041302
   130  H    0.040200
   131  H    0.039914
   132  H    0.033187
   133  H    0.031231
   134  H    0.046015
   135  H    0.058108
   136  H    0.058178
   137  H    0.041219
   138  H    0.035392
   139  H    0.054067
   140  H    0.046720
   141  H    0.066072
   142  H    0.046220
   143  H    0.023230
   144  H    0.051629
   145  H    0.034734
   146  H    0.038115
   147  H    0.040934
   148  H    0.022450
   149  H    0.029557
   150  H    0.032155
   151  H    0.037060
   152  H    0.030763
   153  H    0.058211
   154  H    0.072636
   155  H    0.069621
   156  H    0.047793
   157  H    0.056165
   158  H    0.062065
 Sum of Mulliken charges =  -0.00000

 Dipole moment (field-independent basis, Debye):
    X=             -4.3999    Y=              5.9955    Z=             -0.1786  Tot=              7.4389
 Quadrupole moment (field-independent basis, Debye-Ang):
   XX=           -464.4987   YY=           -510.4043   ZZ=           -503.0374
   XY=            -15.6870   XZ=             11.6526   YZ=            -49.6937

 Normal termination of Gaussian 16 at Sun Sep 19 20:45:23 2021.
