 Gaussian 16, Revision A.03,
 Gaussian 16:  ES64L-G16RevA.03 25-Dec-2016

 --------------------------------
 #p wB97XD/Def2SVP td=(nstates=5)
 --------------------------------

 --------------------------------
 TDDFT excited states in gaussian
 --------------------------------
 Symbolic Z-matrix:
 Charge =  0 Multiplicity = 1

                         Standard orientation:
 ---------------------------------------------------------------------
 Center     Atomic      Atomic             Coordinates (Angstroms)
 Number     Number       Type             X           Y           Z
 ---------------------------------------------------------------------
      1         12           0       25.363975   -0.153669   -0.302732
      2          6           0       22.019884   -0.467369    0.520796
      3          6           0       24.469435    2.369561   -2.632094
      4          6           0       28.668955    0.627692   -0.759623
      5          6           0       26.261146   -2.253110    2.288878
      6          7           0       23.436630    0.709761   -1.034957
      7          6           0       22.201850    0.486915   -0.462746
      8          6           0       21.076093    1.462572   -0.973044
      9          6           0       21.787784    2.088009   -2.263968
     10          6           0       23.352586    1.693372   -2.044100
     11          6           0       21.276401    1.682555   -3.698714
     12          6           0       20.650209    2.505495   -0.000499
     13          6           0       19.217723    2.567321    0.493814
     14          1           0       18.703340    3.958107    0.898637
     15          7           0       26.432077    1.247721   -1.609010
     16          6           0       25.824567    2.139530   -2.512884
     17          6           0       26.830852    2.817567   -3.266474
     18          6           0       28.107603    2.429017   -2.611756
     19          6           0       27.793950    1.390475   -1.582083
     20          6           0       26.540817    3.913461   -4.297310
     21          6           0       29.448447    3.047504   -3.044296
     22          8           0       29.628831    3.904221   -3.904890
     23          6           0       30.610778    2.839179   -2.139368
     24          7           0       27.284325   -0.614744    0.787907
     25          6           0       28.472630   -0.299164    0.255008
     26          6           0       29.526091   -0.651409    1.304239
     27          6           0       28.813010   -1.682911    2.297684
     28          6           0       27.319118   -1.554223    1.757659
     29          6           0       30.735776   -1.375757    0.614057
     30          6           0       28.900162   -1.457875    3.863027
     31          6           0       29.644216   -2.448093    4.746468
     32          7           0       24.342612   -1.255039    1.112014
     33          6           0       24.836178   -2.110627    2.101881
     34          6           0       23.755364   -2.619505    2.889668
     35          6           0       22.593055   -2.007757    2.326312
     36          6           0       23.053112   -1.219100    1.200689
     37          6           0       23.811232   -3.553583    4.057189
     38          6           0       21.192148   -1.909590    2.358329
     39          8           0       20.420908   -2.461517    3.117386
     40          6           0       20.762845   -0.859484    1.261752
     41          6           0       19.615699   -1.401797    0.517027
     42          8           0       18.464268   -1.013482    0.678413
     43          8           0       20.035571   -2.404978   -0.343690
     44          6           0       18.921950   -3.027144   -1.094539
     45          1           0       24.314398    3.125763   -3.403918
     46          1           0       29.698226    0.873770   -1.030379
     47          1           0       26.566810   -2.879899    3.129063
     48          1           0       20.207861    0.881930   -1.282757
     49          1           0       21.754731    3.170870   -2.138632
     50          1           0       20.317788    1.181228   -3.565546
     51          1           0       21.958746    1.044936   -4.260963
     52          1           0       21.187888    2.603222   -4.274256
     53          1           0       20.793813    3.465219   -0.499177
     54          1           0       21.241934    2.427158    0.910914
     55          1           0       19.160265    1.983816    1.412220
     56          1           0       18.491211    2.227204   -0.243807
     57          1           0       25.527360    4.273446   -4.473145
     58          1           0       27.010754    3.508201   -5.193087
     59          1           0       27.253562    4.694036   -4.033155
     60          1           0       31.255813    1.972989   -2.280455
     61          1           0       30.336498    2.930176   -1.088264
     62          1           0       31.295868    3.663443   -2.341176
     63          1           0       29.889206    0.220174    1.849317
     64          1           0       29.095960   -2.704053    2.044531
     65          1           0       31.639165   -0.869933    0.954807
     66          1           0       30.710416   -1.398428   -0.476143
     67          1           0       30.809657   -2.431942    0.874146
     68          1           0       27.857664   -1.400088    4.175233
     69          1           0       29.441267   -0.518167    3.982108
     70          1           0       29.205505   -2.326257    5.737137
     71          1           0       30.690108   -2.146985    4.809923
     72          1           0       29.596047   -3.515013    4.531181
     73          1           0       22.777482   -3.697936    4.372319
     74          1           0       24.449984   -3.091213    4.809115
     75          1           0       24.211433   -4.544338    3.841160
     76          1           0       20.399179   -0.014761    1.847782
     77          1           0       18.522108   -3.874452   -0.537596
     78          1           0       19.321425   -3.255987   -2.082519
     79          1           0       18.117862   -2.317941   -1.288874
     80         12           0      -25.459999    0.119869    0.403209
     81          6           0      -22.242688   -1.055809   -0.480584
     82          6           0      -26.694320   -2.195837   -1.568376
     83          6           0      -28.238854    1.910849    0.451983
     84          6           0      -23.776344    2.890421    1.858447
     85          7           0      -24.461180   -1.562776   -0.738080
     86          6           0      -23.235315   -1.906585   -0.897277
     87          6           0      -23.135187   -3.299641   -1.552151
     88          6           0      -24.542022   -3.435659   -2.329224
     89          6           0      -25.298415   -2.273179   -1.561313
     90          6           0      -24.508445   -3.224178   -3.894578
     91          6           0      -23.027031   -4.455731   -0.426698
     92          6           0      -22.205580   -5.756557   -0.702742
     93          1           0      -22.113400   -6.214360   -2.204998
     94          7           0      -27.289872   -0.213649   -0.270040
     95          6           0      -27.607207   -1.315021   -1.050699
     96          6           0      -29.078947   -1.262914   -1.362974
     97          6           0      -29.535555   -0.039487   -0.715977
     98          6           0      -28.398914    0.671574   -0.124467
     99          6           0      -29.737424   -2.320191   -2.228992
    100          6           0      -30.957398    0.471165   -0.636332
    101          8           0      -31.292553    1.541745   -0.110659
    102          6           0      -32.041637   -0.365218   -1.184395
    103          7           0      -25.976616    2.148910    1.183109
    104          6           0      -27.198673    2.618679    1.009097
    105          6           0      -27.417531    3.916840    1.906500
    106          6           0      -25.882194    4.222360    2.338338
    107          6           0      -25.166598    2.990267    1.791037
    108          6           0      -28.160444    5.079436    1.168910
    109          6           0      -25.575420    4.439984    3.856422
    110          6           0      -25.172655    5.828857    4.280978
    111          7           0      -23.415875    0.737124    0.863745
    112          6           0      -22.947507    1.892408    1.457326
    113          6           0      -21.545906    1.929030    1.399477
    114          6           0      -21.232743    0.807347    0.608564
    115          6           0      -22.367886    0.113258    0.262444
    116          6           0      -20.652100    2.928609    1.939066
    117          6           0      -20.110365    0.100791    0.125637
    118          8           0      -18.859121    0.195043    0.250889
    119          6           0      -20.740142   -0.999644   -0.841549
    120          6           0      -20.029016   -2.293207   -0.682369
    121          8           0      -19.964373   -3.001045    0.320582
    122          8           0      -19.507884   -2.646668   -1.966921
    123          6           0      -18.746582   -3.899001   -2.058903
    124          1           0      -27.062092   -3.063784   -2.120389
    125          1           0      -29.179370    2.461204    0.512851
    126          1           0      -23.267864    3.706513    2.377318
    127          1           0      -22.415463   -3.216869   -2.366137
    128          1           0      -24.886301   -4.464529   -2.230104
    129          1           0      -23.565221   -2.791231   -4.227026
    130          1           0      -25.267079   -2.512661   -4.220174
    131          1           0      -24.644660   -4.214598   -4.328734
    132          1           0      -24.016715   -4.755617   -0.081824
    133          1           0      -22.624172   -4.003216    0.479629
    134          1           0      -22.573809   -6.630600   -0.164608
    135          1           0      -21.159543   -5.506306   -0.521561
    136          1           0      -30.686144   -2.660414   -1.812370
    137          1           0      -29.105101   -3.191956   -2.397343
    138          1           0      -29.805478   -1.954233   -3.253168
    139          1           0      -31.881418   -0.573330   -2.242657
    140          1           0      -32.999401    0.137840   -1.050943
    141          1           0      -32.189884   -1.326776   -0.692934
    142          1           0      -27.948959    3.702040    2.833545
    143          1           0      -25.432501    5.006919    1.727996
    144          1           0      -28.311590    4.827479    0.119102
    145          1           0      -27.511336    5.920004    1.415110
    146          1           0      -29.076537    5.268577    1.726965
    147          1           0      -24.746783    3.780692    4.115813
    148          1           0      -26.432183    4.117827    4.448599
    149          1           0      -25.356591    6.424684    3.387948
    150          1           0      -24.097835    5.819948    4.465714
    151          1           0      -25.782231    6.228885    5.090276
    152          1           0      -20.923995    3.058388    2.986262
    153          1           0      -20.818931    3.951447    1.601199
    154          1           0      -19.622769    2.576877    1.866888
    155          1           0      -20.642706   -0.643217   -1.867505
    156          1           0      -18.324729   -4.021790   -3.056775
    157          1           0      -19.446433   -4.732766   -1.999825
    158          1           0      -17.917424   -3.865946   -1.352935
 ---------------------------------------------------------------------

 SCF Done:  E(RwB97XD) =  -4070.56037531     A.U. after   20 cycles

 Excitation energies and oscillator strengths:

 Excited State   1:      Singlet-A      1.6653 eV  744.54 nm  f=0.3804  <S**2>=0.000
     309 -> 316        0.17867
     311 -> 313        0.68430
     309 <- 316        0.11350
 This state for optimization and/or second-order correction.
 Total Energy, E(TD-HF/TD-DFT) =  -4070.49917844
 Copying the excited state density for this state as the 1-particle RhoCI density.

 Excited State   2:      Singlet-A      1.7434 eV  711.14 nm  f=0.3640  <S**2>=0.000
     310 -> 315       -0.21769
     312 -> 314        0.67307
     310 <- 315       -0.11923

 Excited State   3:      Singlet-A      2.1184 eV  585.28 nm  f=0.1558  <S**2>=0.000
     309 -> 313        0.64906
     311 -> 316       -0.25657

 Excited State   4:      Singlet-A      2.1695 eV  571.49 nm  f=0.0785  <S**2>=0.000
     310 -> 314        0.62758
     312 -> 315        0.30963

 Excited State   5:      Singlet-A      3.0633 eV  404.74 nm  f=0.0077  <S**2>=0.000
     307 -> 313        0.68065

 The electronic state is 1-A.
 Alpha  occ. eigenvalues --  -46.96815 -46.95722 -19.30325 -19.29172 -19.25140
 Alpha  occ. eigenvalues --  -19.24754 -19.24190 -19.24024 -19.23523 -19.23282
 Alpha  occ. eigenvalues --  -14.48147 -14.46710 -14.46549 -14.46284 -14.44699
 Alpha  occ. eigenvalues --  -14.44603 -14.44410 -14.43173 -10.43151 -10.42959
 Alpha  occ. eigenvalues --  -10.39298 -10.39081 -10.38517 -10.38137 -10.37266
 Alpha  occ. eigenvalues --  -10.36219 -10.35748 -10.35676 -10.35574 -10.35218
 Alpha  occ. eigenvalues --  -10.35018 -10.34822 -10.34796 -10.34779 -10.34693
 Alpha  occ. eigenvalues --  -10.34626 -10.34545 -10.34432 -10.34276 -10.34091
 Alpha  occ. eigenvalues --  -10.34078 -10.33518 -10.33305 -10.33018 -10.32764
 Alpha  occ. eigenvalues --  -10.32747 -10.32738 -10.32726 -10.32715 -10.32566
 Alpha  occ. eigenvalues --  -10.32551 -10.32505 -10.32377 -10.32355 -10.32333
 Alpha  occ. eigenvalues --  -10.32319 -10.32298 -10.32206 -10.31961 -10.31906
 Alpha  occ. eigenvalues --  -10.31874 -10.31649 -10.31648 -10.31570 -10.31532
 Alpha  occ. eigenvalues --  -10.31457 -10.31317 -10.31001 -10.30953 -10.30857
 Alpha  occ. eigenvalues --  -10.30836 -10.30398 -10.30231 -10.30160 -10.30153
 Alpha  occ. eigenvalues --  -10.30061 -10.30059 -10.29873 -10.29787 -10.29700
 Alpha  occ. eigenvalues --  -10.29682 -10.29662 -10.29330 -10.29210 -10.28887
 Alpha  occ. eigenvalues --  -10.28664  -3.22510  -3.21634  -1.96120  -1.95601
 Alpha  occ. eigenvalues --   -1.95471  -1.95225  -1.94766  -1.94581  -1.17675
 Alpha  occ. eigenvalues --   -1.16101  -1.12329  -1.11943  -1.11626  -1.09663
 Alpha  occ. eigenvalues --   -1.09500  -1.08924  -1.07786  -1.07208  -1.06791
 Alpha  occ. eigenvalues --   -1.06053  -1.05546  -1.04632  -1.03804  -1.03505
 Alpha  occ. eigenvalues --   -0.94947  -0.94532  -0.91465  -0.91418  -0.91245
 Alpha  occ. eigenvalues --   -0.90512  -0.90039  -0.89794  -0.89645  -0.89477
 Alpha  occ. eigenvalues --   -0.89261  -0.89075  -0.88850  -0.87831  -0.86436
 Alpha  occ. eigenvalues --   -0.86210  -0.85864  -0.85718  -0.84815  -0.84640
 Alpha  occ. eigenvalues --   -0.84173  -0.83947  -0.83441  -0.82822  -0.82719
 Alpha  occ. eigenvalues --   -0.82625  -0.80934  -0.79779  -0.79645  -0.79132
 Alpha  occ. eigenvalues --   -0.78932  -0.78884  -0.78138  -0.77821  -0.77454
 Alpha  occ. eigenvalues --   -0.77164  -0.75490  -0.75217  -0.74280  -0.74241
 Alpha  occ. eigenvalues --   -0.71334  -0.70964  -0.70935  -0.70500  -0.69983
 Alpha  occ. eigenvalues --   -0.69886  -0.69200  -0.69089  -0.67883  -0.67574
 Alpha  occ. eigenvalues --   -0.67549  -0.67536  -0.67447  -0.67278  -0.66774
 Alpha  occ. eigenvalues --   -0.66590  -0.64970  -0.63251  -0.62540  -0.62297
 Alpha  occ. eigenvalues --   -0.62117  -0.61722  -0.61447  -0.61292  -0.61063
 Alpha  occ. eigenvalues --   -0.60346  -0.59790  -0.59717  -0.59289  -0.58959
 Alpha  occ. eigenvalues --   -0.58895  -0.58547  -0.57922  -0.57751  -0.57402
 Alpha  occ. eigenvalues --   -0.57397  -0.56683  -0.56302  -0.55762  -0.55734
 Alpha  occ. eigenvalues --   -0.55486  -0.55465  -0.55166  -0.55108  -0.54878
 Alpha  occ. eigenvalues --   -0.54795  -0.54688  -0.54550  -0.54395  -0.54387
 Alpha  occ. eigenvalues --   -0.54180  -0.54034  -0.53837  -0.53451  -0.53255
 Alpha  occ. eigenvalues --   -0.53076  -0.52838  -0.52829  -0.52502  -0.52345
 Alpha  occ. eigenvalues --   -0.52259  -0.52146  -0.51829  -0.51703  -0.51490
 Alpha  occ. eigenvalues --   -0.51437  -0.51171  -0.51101  -0.50833  -0.50733
 Alpha  occ. eigenvalues --   -0.50611  -0.50548  -0.50304  -0.50212  -0.49950
 Alpha  occ. eigenvalues --   -0.49823  -0.49781  -0.49722  -0.49557  -0.49239
 Alpha  occ. eigenvalues --   -0.49136  -0.48999  -0.48955  -0.48721  -0.48602
 Alpha  occ. eigenvalues --   -0.48506  -0.48240  -0.48079  -0.48047  -0.47915
 Alpha  occ. eigenvalues --   -0.47787  -0.47641  -0.47516  -0.47286  -0.47199
 Alpha  occ. eigenvalues --   -0.47085  -0.46864  -0.46642  -0.46489  -0.46182
 Alpha  occ. eigenvalues --   -0.46060  -0.45893  -0.45845  -0.45650  -0.45558
 Alpha  occ. eigenvalues --   -0.45491  -0.45234  -0.44965  -0.44913  -0.44735
 Alpha  occ. eigenvalues --   -0.44547  -0.44331  -0.44145  -0.43882  -0.43612
 Alpha  occ. eigenvalues --   -0.43582  -0.43568  -0.43421  -0.43233  -0.43106
 Alpha  occ. eigenvalues --   -0.42942  -0.42651  -0.42527  -0.42327  -0.42229
 Alpha  occ. eigenvalues --   -0.41969  -0.41880  -0.41617  -0.41361  -0.40946
 Alpha  occ. eigenvalues --   -0.40415  -0.40252  -0.39930  -0.39903  -0.39402
 Alpha  occ. eigenvalues --   -0.39401  -0.39189  -0.38776  -0.38389  -0.38088
 Alpha  occ. eigenvalues --   -0.37826  -0.37604  -0.36576  -0.36509  -0.36318
 Alpha  occ. eigenvalues --   -0.35887  -0.35630  -0.35465  -0.34009  -0.33991
 Alpha  occ. eigenvalues --   -0.33221  -0.33203  -0.32612  -0.32463  -0.32302
 Alpha  occ. eigenvalues --   -0.32287  -0.31834  -0.31460  -0.26535  -0.26085
 Alpha  occ. eigenvalues --   -0.23967  -0.23486
 Alpha virt. eigenvalues --   -0.08082  -0.06959  -0.00728  -0.00411   0.01823
 Alpha virt. eigenvalues --    0.02071   0.04336   0.04364   0.05439   0.05480
 Alpha virt. eigenvalues --    0.06749   0.07067   0.07440   0.07868   0.08134

 Mulliken charges:
               1
     1  Mg   0.930380
     2  C    0.060753
     3  C   -0.053549
     4  C   -0.067831
     5  C   -0.064514
     6  N   -0.367820
     7  C   -0.017557
     8  C   -0.066867
     9  C   -0.122655
    10  C    0.087743
    11  C    0.030131
    12  C    0.037129
    13  C   -0.149296
    14  H    0.025299
    15  N   -0.454756
    16  C    0.135320
    17  C   -0.149546
    18  C   -0.136774
    19  C    0.177572
    20  C    0.084140
    21  C    0.092286
    22  O   -0.239818
    23  C   -0.062729
    24  N   -0.335462
    25  C    0.120438
    26  C   -0.138931
    27  C   -0.048739
    28  C    0.022549
    29  C    0.006364
    30  C   -0.011664
    31  C   -0.052416
    32  N   -0.425452
    33  C    0.118319
    34  C   -0.169464
    35  C   -0.018271
    36  C    0.076913
    37  C    0.078427
    38  C    0.069308
    39  O   -0.202327
    40  C   -0.060348
    41  C    0.246579
    42  O   -0.245732
    43  O   -0.384175
    44  C    0.134936
    45  H   -0.012769
    46  H   -0.019728
    47  H   -0.002633
    48  H    0.034905
    49  H    0.040604
    50  H    0.043310
    51  H    0.048376
    52  H    0.043012
    53  H    0.039666
    54  H    0.043291
    55  H    0.068890
    56  H    0.059003
    57  H    0.056947
    58  H    0.057824
    59  H    0.063765
    60  H    0.068473
    61  H    0.055883
    62  H    0.048625
    63  H    0.055218
    64  H    0.030143
    65  H    0.036202
    66  H    0.039787
    67  H    0.031072
    68  H    0.041436
    69  H    0.028822
    70  H    0.036997
    71  H    0.037542
    72  H    0.038383
    73  H    0.063016
    74  H    0.045527
    75  H    0.046935
    76  H    0.066588
    77  H    0.069740
    78  H    0.052464
    79  H    0.054794
    80  Mg   0.950655
    81  C   -0.001458
    82  C   -0.092580
    83  C   -0.057115
    84  C   -0.097644
    85  N   -0.289298
    86  C   -0.079836
    87  C   -0.022102
    88  C   -0.152097
    89  C    0.044644
    90  C    0.020220
    91  C    0.019292
    92  C   -0.121957
    93  H   -0.003191
    94  N   -0.573520
    95  C    0.230533
    96  C   -0.157420
    97  C   -0.064068
    98  C    0.176402
    99  C    0.067598
   100  C    0.057020
   101  O   -0.243297
   102  C   -0.029261
   103  N   -0.281722
   104  C    0.040603
   105  C   -0.118724
   106  C   -0.082474
   107  C    0.022762
   108  C    0.039326
   109  C   -0.018064
   110  C   -0.035015
   111  N   -0.420868
   112  C    0.154832
   113  C   -0.152032
   114  C   -0.029640
   115  C    0.146021
   116  C    0.092522
   117  C    0.133346
   118  O   -0.250600
   119  C   -0.095246
   120  C    0.288644
   121  O   -0.246462
   122  O   -0.409249
   123  C    0.146563
   124  H   -0.006527
   125  H    0.019231
   126  H   -0.015414
   127  H    0.025022
   128  H    0.044098
   129  H    0.036949
   130  H    0.039598
   131  H    0.044091
   132  H    0.028266
   133  H    0.057667
   134  H    0.065767
   135  H    0.078883
   136  H    0.055791
   137  H    0.031547
   138  H    0.060654
   139  H    0.053812
   140  H    0.050825
   141  H    0.059998
   142  H    0.047708
   143  H    0.033927
   144  H    0.061747
   145  H    0.028992
   146  H    0.039250
   147  H    0.034215
   148  H    0.025058
   149  H    0.022686
   150  H    0.040455
   151  H    0.046562
   152  H    0.029897
   153  H    0.045564
   154  H    0.071992
   155  H    0.082468
   156  H    0.044124
   157  H    0.042307
   158  H    0.066746
 Sum of Mulliken charges =  -0.00000

 Dipole moment (field-independent basis, Debye):
    X=             -0.2756    Y=             -2.2284    Z=             -3.1735  Tot=              3.8875
 Quadrupole moment (field-independent basis, Debye-Ang):
   XX=           -161.6706   YY=           -488.8030   ZZ=           -500.0732
   XY=             10.8443   XZ=             39.7185   YZ=             30.9557

 Normal termination of Gaussian 16 at Mon Sep 20 05:34:30 2021.
