 Gaussian 16, Revision A.03,
 Gaussian 16:  ES64L-G16RevA.03 25-Dec-2016

 --------------------------------
 #p wB97XD/Def2SVP td=(nstates=5)
 --------------------------------

 --------------------------------
 TDDFT excited states in gaussian
 --------------------------------
 Symbolic Z-matrix:
 Charge =  0 Multiplicity = 1

                         Standard orientation:
 ---------------------------------------------------------------------
 Center     Atomic      Atomic             Coordinates (Angstroms)
 Number     Number       Type             X           Y           Z
 ---------------------------------------------------------------------
      1         12           0      -28.876222    0.490883   -0.682347
      2          6           0      -28.269374   -2.116765    1.724748
      3          6           0      -27.841791    2.704611    1.701601
      4          6           0      -29.731185    2.929249   -2.821243
      5          6           0      -30.308896   -1.838930   -2.699913
      6          7           0      -28.062204    0.268945    1.541562
      7          6           0      -27.892043   -0.906177    2.214292
      8          6           0      -27.174822   -0.589860    3.471621
      9          6           0      -27.150829    0.961751    3.550959
     10          6           0      -27.764382    1.425930    2.201676
     11          6           0      -27.991057    1.496245    4.754201
     12          6           0      -25.809086   -1.211104    3.625160
     13          6           0      -25.106807   -1.135573    4.971281
     14          1           0      -24.558102   -2.391565    5.505451
     15          7           0      -28.694425    2.498097   -0.616227
     16          6           0      -28.325075    3.262476    0.524865
     17          6           0      -28.253556    4.667596    0.081990
     18          6           0      -28.876099    4.707407   -1.162902
     19          6           0      -29.191717    3.324922   -1.565739
     20          6           0      -27.757034    5.758256    1.007962
     21          6           0      -29.148746    5.911919   -2.089583
     22          8           0      -29.908502    5.876214   -3.075593
     23          6           0      -28.430802    7.162769   -1.784169
     24          7           0      -29.950157    0.574357   -2.506905
     25          6           0      -30.183108    1.647886   -3.233801
     26          6           0      -30.983631    1.353158   -4.532017
     27          6           0      -30.917445   -0.175340   -4.563884
     28          6           0      -30.324024   -0.501200   -3.212445
     29          6           0      -32.448827    1.898481   -4.441489
     30          6           0      -30.139003   -0.802555   -5.698349
     31          6           0      -30.772135   -2.032607   -6.372684
     32          7           0      -29.130857   -1.547711   -0.560018
     33          6           0      -29.736092   -2.360494   -1.493474
     34          6           0      -29.681389   -3.795619   -1.081545
     35          6           0      -29.128484   -3.651767    0.174990
     36          6           0      -28.859403   -2.312504    0.482014
     37          6           0      -29.992805   -5.012258   -1.892598
     38          6           0      -28.717994   -4.434996    1.331072
     39          8           0      -28.744292   -5.654184    1.455948
     40          6           0      -28.135426   -3.482615    2.400388
     41          6           0      -28.803006   -3.798736    3.637291
     42          8           0      -29.970549   -3.479356    3.967387
     43          8           0      -27.928732   -4.367845    4.512634
     44          6           0      -28.324827   -4.509376    5.896751
     45          1           0      -27.433580    3.416817    2.421370
     46          1           0      -30.157394    3.720481   -3.441278
     47          1           0      -30.986001   -2.452800   -3.297213
     48          1           0      -27.845329   -0.983792    4.234264
     49          1           0      -26.141349    1.356740    3.666445
     50          1           0      -27.609225    2.209987    5.484869
     51          1           0      -28.248966    0.597868    5.314783
     52          1           0      -28.986131    1.860522    4.497389
     53          1           0      -25.079969   -0.725733    2.976170
     54          1           0      -25.755129   -2.196024    3.162174
     55          1           0      -25.786048   -0.769006    5.739472
     56          1           0      -24.179359   -0.597209    4.777809
     57          1           0      -28.386342    6.647715    1.030362
     58          1           0      -26.740392    6.089884    0.797828
     59          1           0      -27.742240    5.491254    2.064938
     60          1           0      -27.369966    6.933988   -1.681267
     61          1           0      -28.858060    7.443940   -0.822253
     62          1           0      -28.531570    7.795921   -2.664913
     63          1           0      -30.419417    1.812176   -5.344565
     64          1           0      -31.874261   -0.696614   -4.571813
     65          1           0      -33.176828    1.088591   -4.405165
     66          1           0      -32.710120    2.479968   -5.325643
     67          1           0      -32.485149    2.469807   -3.513805
     68          1           0      -29.126675   -1.068831   -5.396060
     69          1           0      -29.872532    0.043846   -6.330527
     70          1           0      -30.406538   -2.048230   -7.398963
     71          1           0      -31.855217   -2.075733   -6.253828
     72          1           0      -30.359789   -2.837095   -5.764057
     73          1           0      -29.116133   -5.514900   -2.301554
     74          1           0      -30.756111   -4.694009   -2.602084
     75          1           0      -30.608156   -5.688875   -1.298311
     76          1           0      -27.117953   -3.842094    2.553834
     77          1           0      -29.273590   -4.035087    6.149157
     78          1           0      -27.519583   -4.196328    6.560782
     79          1           0      -28.458871   -5.554139    6.178330
     80         12           0       29.419070   -0.369411   -0.007399
     81          6           0       26.697937    1.417176    1.028653
     82          6           0       27.175594   -2.994676   -0.866133
     83          6           0       32.019399   -2.005456   -1.402950
     84          6           0       31.309593    2.556800    0.011130
     85          7           0       27.048612   -0.585103   -0.262814
     86          6           0       26.210443    0.204855    0.465305
     87          6           0       24.798457   -0.295936    0.337036
     88          6           0       24.948405   -1.737928   -0.316965
     89          6           0       26.494206   -1.846371   -0.509136
     90          6           0       24.081033   -2.808961    0.236277
     91          6           0       23.680384    0.634345   -0.333689
     92          6           0       24.104221    1.585857   -1.413021
     93          1           0       23.273705    1.599205   -2.688700
     94          7           0       29.601056   -2.319952   -0.770109
     95          6           0       28.616932   -3.227094   -1.013730
     96          6           0       29.127983   -4.436099   -1.588844
     97          6           0       30.598239   -4.202936   -1.646180
     98          6           0       30.800800   -2.790596   -1.255659
     99          6           0       28.402678   -5.633972   -1.980009
    100          6           0       31.704521   -5.176063   -2.027648
    101          8           0       31.443278   -6.234072   -2.479391
    102          6           0       33.183548   -4.908178   -1.988452
    103          7           0       31.301935    0.222586   -0.716102
    104          6           0       32.225653   -0.684217   -1.069377
    105          6           0       33.574508    0.044925   -1.585064
    106          6           0       33.428409    1.416454   -0.762252
    107          6           0       31.935828    1.409385   -0.532615
    108          6           0       34.883513   -0.698773   -1.305586
    109          6           0       34.046066    2.621055   -1.495105
    110          6           0       34.974994    3.594416   -0.759920
    111          7           0       29.062719    1.625940    0.324104
    112          6           0       29.912831    2.724631    0.345642
    113          6           0       29.267527    3.870840    0.856891
    114          6           0       28.000293    3.434131    1.206123
    115          6           0       27.904912    2.038911    0.863228
    116          6           0       29.846503    5.236453    1.062736
    117          6           0       26.756189    3.715971    1.791489
    118          8           0       26.374088    4.794012    2.242159
    119          6           0       25.801016    2.511137    1.557224
    120          6           0       25.230164    2.249513    2.943221
    121          8           0       24.009249    2.164533    3.194056
    122          8           0       26.287962    1.991494    3.782908
    123          6           0       26.094065    1.455461    5.152416
    124          1           0       26.426836   -3.705902   -1.220885
    125          1           0       32.785210   -2.465026   -2.031077
    126          1           0       31.929969    3.452381    0.080446
    127          1           0       24.371803   -0.378760    1.337310
    128          1           0       24.621660   -1.630259   -1.350847
    129          1           0       24.620035   -3.727606    0.467641
    130          1           0       23.193459   -2.977416   -0.373608
    131          1           0       23.701662   -2.496447    1.209212
    132          1           0       23.169592    1.298038    0.364050
    133          1           0       22.966227    0.009690   -0.871149
    134          1           0       25.174702    1.599926   -1.615171
    135          1           0       23.866920    2.589003   -1.057248
    136          1           0       27.535496   -5.745151   -1.329808
    137          1           0       28.995086   -6.547165   -1.937440
    138          1           0       28.072431   -5.476674   -3.007431
    139          1           0       33.135062   -4.232774   -1.133965
    140          1           0       33.545276   -4.390477   -2.876295
    141          1           0       33.840176   -5.761152   -1.816270
    142          1           0       33.405038    0.262979   -2.639936
    143          1           0       33.833967    1.465319    0.248008
    144          1           0       35.378140   -0.170736   -0.489885
    145          1           0       35.427975   -0.870186   -2.233719
    146          1           0       34.730047   -1.714599   -0.942597
    147          1           0       33.212977    3.200021   -1.894572
    148          1           0       34.530682    2.247859   -2.397434
    149          1           0       35.929835    3.852093   -1.218407
    150          1           0       35.129068    3.327463    0.286414
    151          1           0       34.328693    4.462109   -0.631526
    152          1           0       29.459039    5.770049    1.930969
    153          1           0       29.648201    5.831921    0.171258
    154          1           0       30.922570    5.226002    1.241009
    155          1           0       25.075563    2.915349    0.852278
    156          1           0       26.849986    0.719228    5.425069
    157          1           0       25.109424    0.989750    5.196665
    158          1           0       26.088934    2.120909    6.014790
 ---------------------------------------------------------------------

 SCF Done:  E(RwB97XD) =  -4070.56720700     A.U. after   19 cycles

 Excitation energies and oscillator strengths:

 Excited State   1:      Singlet-A      1.5769 eV  786.23 nm  f=0.3857  <S**2>=0.000
     309 -> 315       -0.17495
     311 -> 313        0.68654
     309 <- 315       -0.11858
 This state for optimization and/or second-order correction.
 Total Energy, E(TD-HF/TD-DFT) =  -4070.50925564
 Copying the excited state density for this state as the 1-particle RhoCI density.

 Excited State   2:      Singlet-A      1.6935 eV  732.13 nm  f=0.3769  <S**2>=0.000
     310 -> 316        0.20455
     312 -> 314        0.67932
     310 <- 316        0.12255

 Excited State   3:      Singlet-A      2.0921 eV  592.64 nm  f=0.1441  <S**2>=0.000
     309 -> 313        0.64988
     311 -> 315        0.25887

 Excited State   4:      Singlet-A      2.2626 eV  547.97 nm  f=0.0703  <S**2>=0.000
     310 -> 314        0.61593
     312 -> 316       -0.33991

 Excited State   5:      Singlet-A      3.0079 eV  412.19 nm  f=0.0074  <S**2>=0.000
     307 -> 313       -0.21775
     308 -> 313        0.63588
     308 -> 317        0.12457

 The electronic state is 1-A.
 Alpha  occ. eigenvalues --  -46.96330 -46.94842 -19.31506 -19.30405 -19.25356
 Alpha  occ. eigenvalues --  -19.24076 -19.23822 -19.23673 -19.23637 -19.22208
 Alpha  occ. eigenvalues --  -14.47204 -14.46678 -14.46473 -14.45710 -14.44637
 Alpha  occ. eigenvalues --  -14.44390 -14.44312 -14.44188 -10.44425 -10.42996
 Alpha  occ. eigenvalues --  -10.39221 -10.38479 -10.38381 -10.37491 -10.36597
 Alpha  occ. eigenvalues --  -10.36173 -10.35687 -10.35039 -10.34954 -10.34950
 Alpha  occ. eigenvalues --  -10.34885 -10.34790 -10.34722 -10.34604 -10.34584
 Alpha  occ. eigenvalues --  -10.34559 -10.34461 -10.34437 -10.34177 -10.34083
 Alpha  occ. eigenvalues --  -10.33473 -10.33196 -10.33070 -10.32983 -10.32606
 Alpha  occ. eigenvalues --  -10.32535 -10.32535 -10.32391 -10.32390 -10.32375
 Alpha  occ. eigenvalues --  -10.32169 -10.32138 -10.32034 -10.32021 -10.32015
 Alpha  occ. eigenvalues --  -10.31946 -10.31900 -10.31719 -10.31618 -10.31586
 Alpha  occ. eigenvalues --  -10.31495 -10.31430 -10.31306 -10.31255 -10.31110
 Alpha  occ. eigenvalues --  -10.31030 -10.30962 -10.30780 -10.30777 -10.30734
 Alpha  occ. eigenvalues --  -10.30719 -10.30232 -10.30224 -10.30091 -10.30088
 Alpha  occ. eigenvalues --  -10.29959 -10.29938 -10.29843 -10.29838 -10.29836
 Alpha  occ. eigenvalues --  -10.29767 -10.29649 -10.29561 -10.29026 -10.28963
 Alpha  occ. eigenvalues --  -10.28643  -3.22264  -3.20879  -1.95805  -1.95420
 Alpha  occ. eigenvalues --   -1.95204  -1.94479  -1.93997  -1.93860  -1.18309
 Alpha  occ. eigenvalues --   -1.17918  -1.13603  -1.11714  -1.11684  -1.11278
 Alpha  occ. eigenvalues --   -1.09518  -1.08157  -1.07768  -1.07239  -1.06615
 Alpha  occ. eigenvalues --   -1.06459  -1.05087  -1.04962  -1.04234  -1.04190
 Alpha  occ. eigenvalues --   -0.95773  -0.95158  -0.91950  -0.91746  -0.91187
 Alpha  occ. eigenvalues --   -0.90656  -0.90413  -0.90342  -0.89941  -0.89539
 Alpha  occ. eigenvalues --   -0.89215  -0.89007  -0.88576  -0.87816  -0.86626
 Alpha  occ. eigenvalues --   -0.86483  -0.85954  -0.85940  -0.85036  -0.84818
 Alpha  occ. eigenvalues --   -0.84527  -0.84126  -0.83197  -0.82968  -0.82861
 Alpha  occ. eigenvalues --   -0.82581  -0.80632  -0.80495  -0.79780  -0.79645
 Alpha  occ. eigenvalues --   -0.79372  -0.78944  -0.78682  -0.78482  -0.77464
 Alpha  occ. eigenvalues --   -0.77181  -0.75619  -0.74987  -0.73928  -0.73774
 Alpha  occ. eigenvalues --   -0.71999  -0.71455  -0.71412  -0.71225  -0.70382
 Alpha  occ. eigenvalues --   -0.70039  -0.68593  -0.68529  -0.68327  -0.68232
 Alpha  occ. eigenvalues --   -0.67539  -0.67371  -0.67107  -0.66723  -0.66565
 Alpha  occ. eigenvalues --   -0.66412  -0.65634  -0.64535  -0.62391  -0.62315
 Alpha  occ. eigenvalues --   -0.61898  -0.61491  -0.61486  -0.60886  -0.60761
 Alpha  occ. eigenvalues --   -0.60362  -0.60080  -0.59623  -0.59607  -0.59242
 Alpha  occ. eigenvalues --   -0.58532  -0.58471  -0.57830  -0.57697  -0.57520
 Alpha  occ. eigenvalues --   -0.57291  -0.57096  -0.56428  -0.56369  -0.55988
 Alpha  occ. eigenvalues --   -0.55960  -0.55827  -0.55418  -0.55313  -0.55127
 Alpha  occ. eigenvalues --   -0.55120  -0.54881  -0.54456  -0.54077  -0.53909
 Alpha  occ. eigenvalues --   -0.53798  -0.53782  -0.53760  -0.53637  -0.53356
 Alpha  occ. eigenvalues --   -0.53126  -0.53072  -0.52718  -0.52673  -0.52577
 Alpha  occ. eigenvalues --   -0.52450  -0.52219  -0.51940  -0.51862  -0.51657
 Alpha  occ. eigenvalues --   -0.51583  -0.51479  -0.51151  -0.51005  -0.50972
 Alpha  occ. eigenvalues --   -0.50600  -0.50311  -0.50266  -0.50166  -0.49879
 Alpha  occ. eigenvalues --   -0.49848  -0.49758  -0.49510  -0.49317  -0.49294
 Alpha  occ. eigenvalues --   -0.49182  -0.49160  -0.49067  -0.48975  -0.48846
 Alpha  occ. eigenvalues --   -0.48467  -0.48404  -0.48154  -0.48090  -0.47965
 Alpha  occ. eigenvalues --   -0.47605  -0.47512  -0.47498  -0.47291  -0.47089
 Alpha  occ. eigenvalues --   -0.47011  -0.46995  -0.46845  -0.46463  -0.46151
 Alpha  occ. eigenvalues --   -0.45966  -0.45876  -0.45831  -0.45629  -0.45337
 Alpha  occ. eigenvalues --   -0.45332  -0.45064  -0.45011  -0.44690  -0.44578
 Alpha  occ. eigenvalues --   -0.44463  -0.44402  -0.44350  -0.44072  -0.43979
 Alpha  occ. eigenvalues --   -0.43962  -0.43677  -0.43671  -0.43645  -0.43506
 Alpha  occ. eigenvalues --   -0.43443  -0.43232  -0.43211  -0.42976  -0.42765
 Alpha  occ. eigenvalues --   -0.42481  -0.42208  -0.42043  -0.41811  -0.40972
 Alpha  occ. eigenvalues --   -0.40709  -0.40657  -0.39974  -0.39840  -0.39465
 Alpha  occ. eigenvalues --   -0.39221  -0.39006  -0.38182  -0.38016  -0.37912
 Alpha  occ. eigenvalues --   -0.37664  -0.37566  -0.36829  -0.35882  -0.35881
 Alpha  occ. eigenvalues --   -0.35493  -0.35347  -0.35165  -0.33828  -0.33778
 Alpha  occ. eigenvalues --   -0.33095  -0.32988  -0.32755  -0.32609  -0.32531
 Alpha  occ. eigenvalues --   -0.32436  -0.31555  -0.30423  -0.26413  -0.26003
 Alpha  occ. eigenvalues --   -0.23549  -0.22723
 Alpha virt. eigenvalues --   -0.08066  -0.06508  -0.00049   0.00100   0.02309
 Alpha virt. eigenvalues --    0.02789   0.04049   0.04621   0.04806   0.06131
 Alpha virt. eigenvalues --    0.06624   0.06683   0.07332   0.08131   0.08473

 Mulliken charges:
               1
     1  Mg   0.974699
     2  C    0.002741
     3  C   -0.074149
     4  C   -0.058826
     5  C   -0.108685
     6  N   -0.330730
     7  C   -0.063273
     8  C    0.015616
     9  C   -0.121648
    10  C    0.063858
    11  C    0.011219
    12  C    0.011788
    13  C   -0.120002
    14  H    0.035314
    15  N   -0.515975
    16  C    0.190102
    17  C   -0.128906
    18  C   -0.091710
    19  C    0.167202
    20  C    0.036606
    21  C    0.055242
    22  O   -0.254788
    23  C    0.008726
    24  N   -0.326280
    25  C   -0.014204
    26  C   -0.060008
    27  C   -0.104875
    28  C    0.037461
    29  C    0.034231
    30  C    0.005123
    31  C   -0.035262
    32  N   -0.421220
    33  C    0.133139
    34  C   -0.209198
    35  C   -0.009032
    36  C    0.152924
    37  C    0.108956
    38  C    0.073412
    39  O   -0.209196
    40  C   -0.032001
    41  C    0.264655
    42  O   -0.283642
    43  O   -0.351472
    44  C    0.134905
    45  H   -0.012383
    46  H    0.030640
    47  H    0.003628
    48  H    0.033960
    49  H    0.037523
    50  H    0.041027
    51  H    0.017663
    52  H    0.035926
    53  H    0.014288
    54  H    0.025706
    55  H    0.056586
    56  H    0.056721
    57  H    0.040351
    58  H    0.054031
    59  H    0.039001
    60  H    0.053159
    61  H    0.060427
    62  H    0.061919
    63  H    0.043780
    64  H    0.028143
    65  H    0.033571
    66  H    0.048021
    67  H    0.054512
    68  H    0.023086
    69  H    0.008876
    70  H    0.052200
    71  H    0.038546
    72  H    0.041128
    73  H    0.077471
    74  H    0.017118
    75  H    0.049448
    76  H    0.080823
    77  H    0.066821
    78  H    0.047347
    79  H    0.046096
    80  Mg   0.958493
    81  C    0.008426
    82  C   -0.083366
    83  C   -0.084043
    84  C   -0.096677
    85  N   -0.330823
    86  C   -0.005402
    87  C   -0.018979
    88  C   -0.091841
    89  C    0.035711
    90  C    0.041616
    91  C   -0.010631
    92  C   -0.168647
    93  H    0.029972
    94  N   -0.448480
    95  C    0.171554
    96  C   -0.181687
    97  C   -0.096648
    98  C    0.137383
    99  C    0.086311
   100  C    0.013453
   101  O   -0.209779
   102  C   -0.015006
   103  N   -0.361589
   104  C    0.084276
   105  C   -0.139101
   106  C   -0.084215
   107  C    0.074777
   108  C    0.050099
   109  C   -0.015395
   110  C   -0.044741
   111  N   -0.441981
   112  C    0.139374
   113  C   -0.188068
   114  C    0.058659
   115  C    0.109796
   116  C    0.078479
   117  C    0.062386
   118  O   -0.216464
   119  C   -0.121413
   120  C    0.312951
   121  O   -0.256659
   122  O   -0.379215
   123  C    0.145008
   124  H    0.008464
   125  H    0.003793
   126  H   -0.014226
   127  H    0.042108
   128  H    0.049759
   129  H    0.035492
   130  H    0.041454
   131  H    0.026926
   132  H    0.059133
   133  H    0.045100
   134  H    0.064495
   135  H    0.055791
   136  H    0.031681
   137  H    0.063206
   138  H    0.053813
   139  H    0.032400
   140  H    0.070932
   141  H    0.058011
   142  H    0.056112
   143  H    0.040619
   144  H    0.038902
   145  H    0.039582
   146  H    0.032347
   147  H    0.030278
   148  H    0.027727
   149  H    0.056422
   150  H    0.025824
   151  H    0.030881
   152  H    0.060954
   153  H    0.060880
   154  H    0.031935
   155  H    0.065525
   156  H    0.053580
   157  H    0.053918
   158  H    0.058307
 Sum of Mulliken charges =  -0.00000

 Dipole moment (field-independent basis, Debye):
    X=              6.9740    Y=              3.6499    Z=              0.9912  Tot=              7.9335
 Quadrupole moment (field-independent basis, Debye-Ang):
   XX=           -424.7082   YY=           -565.2079   ZZ=           -478.8041
   XY=            -55.7440   XZ=             61.2147   YZ=              1.9012

 Normal termination of Gaussian 16 at Mon Sep 20 02:03:35 2021.
