 Gaussian 16, Revision A.03,
 Gaussian 16:  ES64L-G16RevA.03 25-Dec-2016

 --------------------------------
 #p wB97XD/Def2SVP td=(nstates=5)
 --------------------------------

 --------------------------------
 TDDFT excited states in gaussian
 --------------------------------
 Symbolic Z-matrix:
 Charge =  0 Multiplicity = 1

                         Standard orientation:
 ---------------------------------------------------------------------
 Center     Atomic      Atomic             Coordinates (Angstroms)
 Number     Number       Type             X           Y           Z
 ---------------------------------------------------------------------
      1         12           0       24.395713    0.396239   -0.292872
      2          6           0       23.220143   -1.752098    2.240028
      3          6           0       22.998057    3.020916    1.346739
      4          6           0       25.446390    2.395559   -2.810558
      5          6           0       25.393442   -2.392692   -2.105312
      6          7           0       23.176714    0.600651    1.495026
      7          6           0       22.915684   -0.395180    2.440198
      8          6           0       22.293695    0.223853    3.655724
      9          6           0       21.816293    1.595989    3.123651
     10          6           0       22.737198    1.758481    1.886914
     11          6           0       20.322834    1.719901    2.685453
     12          6           0       23.225861    0.343901    4.919689
     13          6           0       22.600220   -0.119681    6.196588
     14          1           0       22.796471    0.785448    7.427122
     15          7           0       24.326737    2.390908   -0.598309
     16          6           0       23.774088    3.362910    0.252184
     17          6           0       23.990838    4.649101   -0.279496
     18          6           0       24.738494    4.512322   -1.542282
     19          6           0       24.876795    3.091351   -1.688096
     20          6           0       23.427413    5.929651    0.263705
     21          6           0       25.226940    5.570574   -2.624138
     22          8           0       25.856341    5.220573   -3.594217
     23          6           0       25.005623    7.062109   -2.416991
     24          7           0       25.195219    0.033184   -2.240805
     25          6           0       25.523349    1.045920   -3.084130
     26          6           0       26.089254    0.455336   -4.463014
     27          6           0       26.352723   -1.074203   -4.112001
     28          6           0       25.595071   -1.175650   -2.720141
     29          6           0       25.172947    0.613436   -5.707805
     30          6           0       27.871171   -1.459143   -4.003429
     31          6           0       28.194106   -2.614040   -4.855261
     32          7           0       24.290370   -1.655053   -0.040503
     33          6           0       24.841352   -2.671269   -0.819671
     34          6           0       24.632790   -3.942817   -0.182234
     35          6           0       23.982150   -3.631596    0.994279
     36          6           0       23.819500   -2.283942    1.064590
     37          6           0       25.174276   -5.270858   -0.772703
     38          6           0       23.376852   -4.189624    2.189581
     39          8           0       23.195326   -5.356685    2.458451
     40          6           0       22.821278   -2.956168    3.060434
     41          6           0       21.366919   -3.116147    3.242396
     42          8           0       20.535539   -3.201711    2.300809
     43          8           0       21.106949   -3.192908    4.579311
     44          6           0       19.760884   -3.730179    4.911678
     45          1           0       22.487838    3.807725    1.906192
     46          1           0       25.799845    2.964384   -3.672896
     47          1           0       25.647169   -3.260136   -2.717365
     48          1           0       21.368589   -0.257663    3.974923
     49          1           0       21.953818    2.410440    3.835095
     50          1           0       19.636570    1.112039    3.276517
     51          1           0       20.279462    1.446427    1.630892
     52          1           0       19.921975    2.732574    2.650022
     53          1           0       23.518591    1.393137    4.953625
     54          1           0       24.171344   -0.178738    4.771826
     55          1           0       23.068833   -1.096968    6.313471
     56          1           0       21.517241   -0.157545    6.079740
     57          1           0       24.141412    6.587034    0.760333
     58          1           0       22.718620    5.698283    1.057783
     59          1           0       22.890454    6.589135   -0.417571
     60          1           0       25.556270    7.552878   -3.218573
     61          1           0       25.251943    7.367897   -1.399751
     62          1           0       23.936633    7.271883   -2.369935
     63          1           0       26.978979    1.007994   -4.765214
     64          1           0       25.850812   -1.687898   -4.861524
     65          1           0       24.186084    1.043400   -5.533409
     66          1           0       24.977947   -0.330203   -6.217943
     67          1           0       25.707194    1.256816   -6.407413
     68          1           0       28.077899   -1.765791   -2.977407
     69          1           0       28.561986   -0.672401   -4.305903
     70          1           0       28.652795   -2.248568   -5.774407
     71          1           0       27.412753   -3.336362   -5.088903
     72          1           0       28.886441   -3.269099   -4.326307
     73          1           0       25.936664   -5.040942   -1.517399
     74          1           0       24.363755   -5.922752   -1.101776
     75          1           0       25.692638   -5.738993    0.063278
     76          1           0       23.312076   -2.896992    4.032215
     77          1           0       19.672808   -3.890555    5.986084
     78          1           0       19.746563   -4.732485    4.483015
     79          1           0       19.033622   -3.052209    4.464094
     80         12           0      -24.076094    0.585184    0.489481
     81          6           0      -23.678116   -2.771595   -0.702180
     82          6           0      -20.595266    0.990530    0.001014
     83          6           0      -24.501127    3.894344    0.848778
     84          6           0      -27.494092    0.169102    0.249595
     85          7           0      -22.301852   -0.738517   -0.258595
     86          6           0      -22.472872   -2.022685   -0.694305
     87          6           0      -21.209268   -2.495909   -1.395169
     88          6           0      -20.217271   -1.371988   -0.877355
     89          6           0      -21.034737   -0.262725   -0.333941
     90          6           0      -19.142734   -1.795415    0.179681
     91          6           0      -21.469434   -2.645924   -2.928449
     92          6           0      -20.947160   -3.929648   -3.695301
     93          1           0      -19.917608   -3.774635   -4.829040
     94          7           0      -22.794294    2.154113    0.622802
     95          6           0      -21.390311    2.145201    0.411307
     96          6           0      -20.835383    3.468376    0.629066
     97          6           0      -21.996819    4.309877    0.868866
     98          6           0      -23.152948    3.436670    0.791312
     99          6           0      -19.403553    3.750124    0.437631
    100          6           0      -21.887519    5.815823    1.164723
    101          8           0      -20.728678    6.318772    1.087278
    102          6           0      -23.062344    6.742496    1.543346
    103          7           0      -25.754629    1.981500    0.289060
    104          6           0      -25.697537    3.247952    0.653978
    105          6           0      -27.071028    3.830344    0.563547
    106          6           0      -27.999285    2.593500    0.430595
    107          6           0      -27.018597    1.481059    0.220577
    108          6           0      -27.581397    4.836828    1.681492
    109          6           0      -29.098928    2.679526   -0.749370
    110          6           0      -30.597935    2.701746   -0.362159
    111          7           0      -25.341745   -0.967164    0.106502
    112          6           0      -26.683579   -1.000456    0.043557
    113          6           0      -27.158088   -2.296957   -0.275520
    114          6           0      -25.997338   -3.030994   -0.530289
    115          6           0      -24.893188   -2.165077   -0.327057
    116          6           0      -28.529879   -2.836546   -0.348218
    117          6           0      -25.586104   -4.332972   -0.956676
    118          8           0      -26.276755   -5.271459   -1.284989
    119          6           0      -23.944884   -4.189831   -1.137811
    120          6           0      -23.261184   -5.153728   -0.267344
    121          8           0      -23.558935   -5.398315    0.908683
    122          8           0      -22.228369   -5.689736   -1.006606
    123          6           0      -21.400911   -6.691004   -0.335728
    124          1           0      -19.527784    1.177472   -0.125367
    125          1           0      -24.704082    4.966896    0.862522
    126          1           0      -28.550655   -0.073445    0.382518
    127          1           0      -20.904473   -3.411429   -0.887542
    128          1           0      -19.847353   -1.043845   -1.849448
    129          1           0      -19.275491   -1.153558    1.051774
    130          1           0      -18.113194   -1.656793   -0.149625
    131          1           0      -19.242211   -2.807280    0.573720
    132          1           0      -20.937650   -1.763033   -3.282446
    133          1           0      -22.502377   -2.518121   -3.251391
    134          1           0      -21.849977   -4.411632   -4.069973
    135          1           0      -20.623692   -4.657468   -2.951780
    136          1           0      -19.149840    3.379428   -0.555780
    137          1           0      -18.811739    3.158539    1.135809
    138          1           0      -19.053095    4.765122    0.626694
    139          1           0      -23.670638    6.894146    0.651519
    140          1           0      -22.594134    7.541238    2.117638
    141          1           0      -23.616895    6.140652    2.264106
    142          1           0      -27.091936    4.433838   -0.343055
    143          1           0      -28.349967    2.469963    1.455301
    144          1           0      -28.296976    5.474495    1.161824
    145          1           0      -26.722040    5.378436    2.076491
    146          1           0      -28.089873    4.231186    2.431861
    147          1           0      -28.869490    1.816248   -1.373821
    148          1           0      -28.828527    3.522801   -1.384744
    149          1           0      -31.190296    1.982284   -0.925902
    150          1           0      -30.983171    3.708413   -0.526527
    151          1           0      -30.777996    2.544977    0.701538
    152          1           0      -28.538990   -3.924890   -0.297997
    153          1           0      -28.781271   -2.454045   -1.337628
    154          1           0      -29.168049   -2.216744    0.281484
    155          1           0      -23.658566   -4.219316   -2.188512
    156          1           0      -22.005394   -7.480248    0.111832
    157          1           0      -20.779514   -6.208883    0.420380
    158          1           0      -20.754408   -7.161036   -1.076851
 ---------------------------------------------------------------------

 SCF Done:  E(RwB97XD) =  -4070.61089779     A.U. after   19 cycles

 Excitation energies and oscillator strengths:

 Excited State   1:      Singlet-A      1.6376 eV  757.10 nm  f=0.3855  <S**2>=0.000
     309 -> 315       -0.19096
     312 -> 314        0.68325
     309 <- 315       -0.12121
 This state for optimization and/or second-order correction.
 Total Energy, E(TD-HF/TD-DFT) =  -4070.55071640
 Copying the excited state density for this state as the 1-particle RhoCI density.

 Excited State   2:      Singlet-A      1.6894 eV  733.88 nm  f=0.3968  <S**2>=0.000
     310 -> 316        0.18338
     311 -> 313        0.68254
     310 <- 316        0.11554

 Excited State   3:      Singlet-A      2.1431 eV  578.52 nm  f=0.1543  <S**2>=0.000
     310 -> 313        0.65152
     311 -> 316       -0.25247

 Excited State   4:      Singlet-A      2.1989 eV  563.84 nm  f=0.1290  <S**2>=0.000
     309 -> 314        0.63869
     312 -> 315        0.29224

 Excited State   5:      Singlet-A      3.1997 eV  387.48 nm  f=0.0021  <S**2>=0.000
     306 -> 313        0.29707
     307 -> 313        0.62282

 The electronic state is 1-A.
 Alpha  occ. eigenvalues --  -46.95250 -46.93547 -19.31509 -19.30875 -19.25529
 Alpha  occ. eigenvalues --  -19.24935 -19.24817 -19.24476 -19.24070 -19.23188
 Alpha  occ. eigenvalues --  -14.46673 -14.46551 -14.46093 -14.45973 -14.44560
 Alpha  occ. eigenvalues --  -14.44427 -14.43970 -14.43150 -10.43955 -10.43280
 Alpha  occ. eigenvalues --  -10.40358 -10.39501 -10.39254 -10.39039 -10.36199
 Alpha  occ. eigenvalues --  -10.35912 -10.35218 -10.35071 -10.34791 -10.34736
 Alpha  occ. eigenvalues --  -10.34691 -10.34678 -10.34652 -10.34422 -10.34401
 Alpha  occ. eigenvalues --  -10.34396 -10.34328 -10.34008 -10.33779 -10.33152
 Alpha  occ. eigenvalues --  -10.33102 -10.33081 -10.32961 -10.32791 -10.32723
 Alpha  occ. eigenvalues --  -10.32615 -10.32259 -10.32183 -10.32153 -10.32037
 Alpha  occ. eigenvalues --  -10.31852 -10.31848 -10.31830 -10.31818 -10.31699
 Alpha  occ. eigenvalues --  -10.31673 -10.31673 -10.31636 -10.31627 -10.31562
 Alpha  occ. eigenvalues --  -10.31550 -10.31479 -10.31440 -10.31239 -10.31198
 Alpha  occ. eigenvalues --  -10.31196 -10.31111 -10.31029 -10.30673 -10.30629
 Alpha  occ. eigenvalues --  -10.30564 -10.30483 -10.30421 -10.30352 -10.30280
 Alpha  occ. eigenvalues --  -10.30130 -10.29974 -10.29955 -10.29901 -10.29854
 Alpha  occ. eigenvalues --  -10.29608 -10.29185 -10.28985 -10.28621 -10.28441
 Alpha  occ. eigenvalues --  -10.28340  -3.21248  -3.19680  -1.94826  -1.94359
 Alpha  occ. eigenvalues --   -1.94231  -1.93281  -1.92798  -1.92681  -1.18732
 Alpha  occ. eigenvalues --   -1.17934  -1.13958  -1.13090  -1.12547  -1.10376
 Alpha  occ. eigenvalues --   -1.09460  -1.08516  -1.07473  -1.06952  -1.06760
 Alpha  occ. eigenvalues --   -1.05757  -1.05350  -1.04571  -1.04399  -1.03510
 Alpha  occ. eigenvalues --   -0.95166  -0.94544  -0.91248  -0.91073  -0.90555
 Alpha  occ. eigenvalues --   -0.90210  -0.90008  -0.89939  -0.89893  -0.89421
 Alpha  occ. eigenvalues --   -0.88963  -0.88383  -0.87976  -0.87768  -0.86592
 Alpha  occ. eigenvalues --   -0.86216  -0.85766  -0.85704  -0.84814  -0.84612
 Alpha  occ. eigenvalues --   -0.84052  -0.83924  -0.83337  -0.83144  -0.82635
 Alpha  occ. eigenvalues --   -0.82449  -0.80232  -0.80193  -0.79595  -0.79244
 Alpha  occ. eigenvalues --   -0.78827  -0.78690  -0.78227  -0.77650  -0.77291
 Alpha  occ. eigenvalues --   -0.76830  -0.75205  -0.74866  -0.74200  -0.72917
 Alpha  occ. eigenvalues --   -0.71734  -0.71386  -0.70604  -0.70436  -0.70027
 Alpha  occ. eigenvalues --   -0.69522  -0.68750  -0.68527  -0.68074  -0.67626
 Alpha  occ. eigenvalues --   -0.67462  -0.67120  -0.67102  -0.66783  -0.66587
 Alpha  occ. eigenvalues --   -0.66053  -0.64960  -0.63936  -0.62341  -0.62148
 Alpha  occ. eigenvalues --   -0.62097  -0.61933  -0.61510  -0.61255  -0.60905
 Alpha  occ. eigenvalues --   -0.60404  -0.60153  -0.59693  -0.59600  -0.59592
 Alpha  occ. eigenvalues --   -0.58187  -0.58184  -0.57906  -0.57646  -0.57604
 Alpha  occ. eigenvalues --   -0.57422  -0.56892  -0.56857  -0.56475  -0.55721
 Alpha  occ. eigenvalues --   -0.55668  -0.55537  -0.55389  -0.55295  -0.54897
 Alpha  occ. eigenvalues --   -0.54580  -0.54574  -0.54504  -0.54062  -0.53828
 Alpha  occ. eigenvalues --   -0.53749  -0.53648  -0.53516  -0.53355  -0.53185
 Alpha  occ. eigenvalues --   -0.52973  -0.52813  -0.52531  -0.52447  -0.52253
 Alpha  occ. eigenvalues --   -0.52058  -0.51996  -0.51903  -0.51746  -0.51530
 Alpha  occ. eigenvalues --   -0.51362  -0.51354  -0.51351  -0.51111  -0.50732
 Alpha  occ. eigenvalues --   -0.50649  -0.50408  -0.49894  -0.49859  -0.49660
 Alpha  occ. eigenvalues --   -0.49607  -0.49585  -0.49547  -0.49402  -0.49170
 Alpha  occ. eigenvalues --   -0.48988  -0.48759  -0.48580  -0.48574  -0.48391
 Alpha  occ. eigenvalues --   -0.48388  -0.48092  -0.48066  -0.47896  -0.47780
 Alpha  occ. eigenvalues --   -0.47679  -0.47547  -0.47383  -0.47321  -0.46992
 Alpha  occ. eigenvalues --   -0.46969  -0.46695  -0.46590  -0.46479  -0.46406
 Alpha  occ. eigenvalues --   -0.46289  -0.45687  -0.45577  -0.45537  -0.45356
 Alpha  occ. eigenvalues --   -0.45261  -0.45214  -0.45023  -0.44913  -0.44867
 Alpha  occ. eigenvalues --   -0.44790  -0.44775  -0.44576  -0.44304  -0.44249
 Alpha  occ. eigenvalues --   -0.43877  -0.43792  -0.43497  -0.43149  -0.43141
 Alpha  occ. eigenvalues --   -0.43085  -0.42884  -0.42787  -0.42352  -0.42245
 Alpha  occ. eigenvalues --   -0.42145  -0.41969  -0.41048  -0.40868  -0.40737
 Alpha  occ. eigenvalues --   -0.40665  -0.40278  -0.40220  -0.39902  -0.39773
 Alpha  occ. eigenvalues --   -0.39760  -0.39595  -0.38770  -0.38553  -0.38409
 Alpha  occ. eigenvalues --   -0.37922  -0.37758  -0.37151  -0.36239  -0.36107
 Alpha  occ. eigenvalues --   -0.36107  -0.35380  -0.35297  -0.33747  -0.33560
 Alpha  occ. eigenvalues --   -0.33487  -0.33153  -0.32835  -0.32330  -0.32245
 Alpha  occ. eigenvalues --   -0.32165  -0.31754  -0.31558  -0.26090  -0.25887
 Alpha  occ. eigenvalues --   -0.23344  -0.23120
 Alpha virt. eigenvalues --   -0.07374  -0.07297   0.00173   0.00636   0.02380
 Alpha virt. eigenvalues --    0.02779   0.04495   0.04868   0.05473   0.06398
 Alpha virt. eigenvalues --    0.06470   0.06692   0.07572   0.08044   0.08510

 Mulliken charges:
               1
     1  Mg   0.978529
     2  C   -0.032884
     3  C   -0.099731
     4  C   -0.063566
     5  C   -0.089465
     6  N   -0.322077
     7  C    0.015317
     8  C   -0.082515
     9  C   -0.128315
    10  C    0.030434
    11  C    0.020655
    12  C    0.044961
    13  C   -0.121248
    14  H    0.030831
    15  N   -0.523032
    16  C    0.242148
    17  C   -0.149240
    18  C   -0.081349
    19  C    0.154382
    20  C    0.041873
    21  C    0.076320
    22  O   -0.213770
    23  C   -0.007862
    24  N   -0.359198
    25  C    0.071709
    26  C   -0.108310
    27  C   -0.079752
    28  C    0.063491
    29  C    0.008310
    30  C    0.027459
    31  C   -0.074076
    32  N   -0.443879
    33  C    0.130220
    34  C   -0.214780
    35  C    0.007920
    36  C    0.121480
    37  C    0.094277
    38  C    0.108362
    39  O   -0.190853
    40  C   -0.041868
    41  C    0.275569
    42  O   -0.281946
    43  O   -0.372048
    44  C    0.141541
    45  H   -0.011114
    46  H    0.021703
    47  H   -0.003606
    48  H    0.026709
    49  H    0.025657
    50  H    0.045044
    51  H    0.043244
    52  H    0.033153
    53  H    0.030104
    54  H    0.030089
    55  H    0.065271
    56  H    0.054109
    57  H    0.051115
    58  H    0.023066
    59  H    0.045354
    60  H    0.070873
    61  H    0.046700
    62  H    0.048749
    63  H    0.037847
    64  H    0.037781
    65  H    0.044163
    66  H    0.029736
    67  H    0.037023
    68  H    0.035364
    69  H    0.037550
    70  H    0.038907
    71  H    0.028197
    72  H    0.026675
    73  H    0.030842
    74  H    0.066447
    75  H    0.049377
    76  H    0.057602
    77  H    0.060438
    78  H    0.064165
    79  H    0.067645
    80  Mg   0.980582
    81  C   -0.124148
    82  C   -0.080854
    83  C   -0.101800
    84  C   -0.096418
    85  N   -0.314603
    86  C   -0.024807
    87  C   -0.047780
    88  C   -0.085449
    89  C    0.061165
    90  C    0.030214
    91  C   -0.009399
    92  C   -0.101225
    93  H    0.050348
    94  N   -0.481336
    95  C    0.127744
    96  C   -0.142790
    97  C   -0.097885
    98  C    0.230282
    99  C    0.077042
   100  C    0.025816
   101  O   -0.277742
   102  C    0.020158
   103  N   -0.347014
   104  C    0.018915
   105  C   -0.090661
   106  C   -0.108985
   107  C    0.094411
   108  C    0.033641
   109  C    0.010071
   110  C   -0.047590
   111  N   -0.436757
   112  C    0.106266
   113  C   -0.206194
   114  C   -0.066847
   115  C    0.193027
   116  C    0.118123
   117  C    0.144205
   118  O   -0.188404
   119  C   -0.050471
   120  C    0.292208
   121  O   -0.254418
   122  O   -0.371182
   123  C    0.136618
   124  H   -0.000105
   125  H   -0.036479
   126  H    0.002975
   127  H    0.018603
   128  H    0.029562
   129  H    0.037164
   130  H    0.045344
   131  H    0.037066
   132  H    0.031079
   133  H    0.053669
   134  H    0.048097
   135  H    0.042456
   136  H    0.047751
   137  H    0.033311
   138  H    0.069375
   139  H    0.083953
   140  H    0.065067
   141  H    0.043336
   142  H    0.038402
   143  H    0.032681
   144  H    0.040662
   145  H    0.041120
   146  H    0.031833
   147  H    0.033607
   148  H    0.025549
   149  H    0.046679
   150  H    0.035586
   151  H    0.033275
   152  H    0.080978
   153  H    0.046777
   154  H    0.029904
   155  H    0.059546
   156  H    0.065667
   157  H    0.052751
   158  H    0.056680
 Sum of Mulliken charges =  -0.00000

 Dipole moment (field-independent basis, Debye):
    X=             -0.8560    Y=              5.2471    Z=              1.0494  Tot=              5.4190
 Quadrupole moment (field-independent basis, Debye-Ang):
   XX=           -439.7383   YY=           -531.7568   ZZ=           -497.1682
   XY=             12.2773   XZ=             22.2535   YZ=             17.9960

 Normal termination of Gaussian 16 at Sat Sep 18 17:12:43 2021.
