 Gaussian 16, Revision A.03,
 Gaussian 16:  ES64L-G16RevA.03 25-Dec-2016

 --------------------------------
 #p wB97XD/Def2SVP td=(nstates=5)
 --------------------------------

 --------------------------------
 TDDFT excited states in gaussian
 --------------------------------
 Symbolic Z-matrix:
 Charge =  0 Multiplicity = 1

                         Standard orientation:
 ---------------------------------------------------------------------
 Center     Atomic      Atomic             Coordinates (Angstroms)
 Number     Number       Type             X           Y           Z
 ---------------------------------------------------------------------
      1         12           0       13.446278    0.111764    0.138366
      2          6           0       10.157570   -0.975330   -0.425283
      3          6           0       14.360260   -0.840253   -2.924282
      4          6           0       16.440364    1.096492    0.872789
      5          6           0       12.569440    0.115511    3.648326
      6          7           0       12.357441   -0.900209   -1.421324
      7          6           0       11.039205   -1.100872   -1.542975
      8          6           0       10.689220   -1.775387   -2.844272
      9          6           0       12.112847   -2.096306   -3.453418
     10          6           0       12.998436   -1.230322   -2.578546
     11          6           0       12.581977   -3.586500   -3.506253
     12          6           0        9.895916   -0.757988   -3.813290
     13          6           0        8.609122   -1.379651   -4.448463
     14          1           0        7.684498   -0.246694   -5.154061
     15          7           0       15.050302    0.352143   -0.933319
     16          6           0       15.260478   -0.067280   -2.235883
     17          6           0       16.486616    0.513895   -2.709045
     18          6           0       17.180121    1.162640   -1.606863
     19          6           0       16.183754    1.003124   -0.479407
     20          6           0       16.941161    0.224969   -4.168582
     21          6           0       18.505381    1.894632   -1.428560
     22          8           0       18.896042    2.474527   -0.399305
     23          6           0       19.293935    1.962244   -2.688294
     24          7           0       14.336196    0.370855    2.028630
     25          6           0       15.642509    0.791433    1.985015
     26          6           0       16.230374    0.897354    3.392627
     27          6           0       14.944292    0.900192    4.260029
     28          6           0       13.880976    0.374382    3.293807
     29          6           0       17.296973   -0.246168    3.620374
     30          6           0       14.536501    2.295212    4.898931
     31          6           0       13.665459    2.248543    6.164517
     32          7           0       11.723317   -0.292811    1.402475
     33          6           0       11.559430   -0.237417    2.753428
     34          6           0       10.180321   -0.465495    3.122664
     35          6           0        9.595585   -0.689166    1.862713
     36          6           0       10.572143   -0.639212    0.857701
     37          6           0        9.461490   -0.477547    4.491360
     38          6           0        8.335054   -0.953175    1.226843
     39          8           0        7.194787   -0.933027    1.610214
     40          6           0        8.707358   -1.318141   -0.302811
     41          6           0        7.668481   -0.574617   -1.020434
     42          8           0        7.643394    0.640302   -1.341978
     43          8           0        6.702446   -1.477032   -1.263902
     44          6           0        5.488705   -1.025816   -1.946023
     45          1           0       14.645060   -1.064700   -3.954457
     46          1           0       17.425819    1.500452    1.114752
     47          1           0       12.338382    0.225762    4.709886
     48          1           0       10.054666   -2.657482   -2.754146
     49          1           0       12.297242   -1.724500   -4.461494
     50          1           0       13.390992   -3.704188   -2.785341
     51          1           0       12.960408   -3.726905   -4.518613
     52          1           0       11.862334   -4.369831   -3.270925
     53          1           0       10.486268   -0.298422   -4.606877
     54          1           0        9.685451    0.127308   -3.213140
     55          1           0        8.011344   -1.881451   -3.687849
     56          1           0        8.786032   -2.079651   -5.264689
     57          1           0       16.529829    1.005453   -4.807218
     58          1           0       16.437164   -0.628692   -4.623402
     59          1           0       17.984284   -0.052952   -4.317607
     60          1           0       18.802659    2.491525   -3.503991
     61          1           0       19.479862    0.907339   -2.893710
     62          1           0       20.280250    2.410284   -2.564430
     63          1           0       16.746874    1.857061    3.414191
     64          1           0       15.085971    0.235756    5.112361
     65          1           0       16.897524   -1.005507    4.292525
     66          1           0       18.259588    0.015763    4.058773
     67          1           0       17.551980   -0.858229    2.754990
     68          1           0       13.876328    2.718768    4.141561
     69          1           0       15.336180    3.002159    5.120974
     70          1           0       12.670106    2.660673    5.993614
     71          1           0       14.017568    2.741597    7.070849
     72          1           0       13.478895    1.190679    6.344110
     73          1           0       10.231366   -0.714159    5.225805
     74          1           0        8.662785   -1.220250    4.509088
     75          1           0        9.096087    0.536595    4.652564
     76          1           0        8.542588   -2.381933   -0.474887
     77          1           0        5.473884   -1.459274   -2.945868
     78          1           0        5.367475    0.055941   -1.900480
     79          1           0        4.631828   -1.480428   -1.448994
     80         12           0      -12.910105   -0.690989   -0.343504
     81          6           0      -12.934782    2.889016   -0.104403
     82          6           0       -9.354842   -0.376599   -0.488905
     83          6           0      -12.513552   -3.934214    0.439499
     84          6           0      -16.214733   -0.701327    0.537198
     85          7           0      -11.390902    1.053671   -0.261878
     86          6           0      -11.628040    2.395448   -0.192010
     87          6           0      -10.297454    3.225869   -0.213800
     88          6           0       -9.259526    2.124669   -0.743760
     89          6           0      -10.023005    0.854536   -0.403956
     90          6           0       -8.971870    2.188327   -2.226278
     91          6           0      -10.002949    3.931061    1.099821
     92          6           0       -9.513618    5.400979    1.029693
     93          1           0       -7.963016    5.759311    1.188093
     94          7           0      -11.138240   -2.058160   -0.150399
     95          6           0       -9.786565   -1.706962   -0.348344
     96          6           0       -8.964837   -2.918389   -0.237389
     97          6           0       -9.913231   -3.991268   -0.006667
     98          6           0      -11.205330   -3.369675    0.188857
     99          6           0       -7.486482   -3.006078   -0.302188
    100          6           0       -9.571892   -5.460175    0.009884
    101          8           0       -8.461408   -5.792008   -0.339316
    102          6           0      -10.528925   -6.554864    0.421947
    103          7           0      -14.155383   -2.003021    0.475123
    104          6           0      -13.780080   -3.341651    0.545863
    105          6           0      -14.989710   -4.128621    1.055537
    106          6           0      -16.195041   -3.135142    0.873555
    107          6           0      -15.477985   -1.864708    0.563229
    108          6           0      -15.231682   -5.573902    0.484217
    109          6           0      -17.239497   -3.028054    2.026772
    110          6           0      -18.678364   -3.250522    1.691901
    111          7           0      -14.346322    0.728334    0.007849
    112          6           0      -15.694859    0.589949    0.286584
    113          6           0      -16.386486    1.889455    0.183669
    114          6           0      -15.279388    2.819507    0.091568
    115          6           0      -14.114238    2.051269    0.006195
    116          6           0      -17.854089    2.219695    0.256002
    117          6           0      -14.960760    4.274230   -0.009761
    118          8           0      -15.671186    5.235276    0.073539
    119          6           0      -13.436703    4.333387   -0.021187
    120          6           0      -13.018204    5.112457   -1.232235
    121          8           0      -13.241979    4.650706   -2.330573
    122          8           0      -12.287675    6.313007   -0.983145
    123          6           0      -11.687704    6.987940   -2.173854
    124          1           0       -8.268502   -0.322838   -0.587646
    125          1           0      -12.562546   -4.993000    0.699234
    126          1           0      -17.300947   -0.765192    0.626198
    127          1           0      -10.290130    3.957835   -1.020924
    128          1           0       -8.350488    2.112419   -0.142546
    129          1           0       -9.785606    1.692625   -2.755130
    130          1           0       -7.996926    1.726839   -2.382553
    131          1           0       -8.918343    3.163903   -2.710605
    132          1           0       -9.191845    3.371171    1.564345
    133          1           0      -10.849236    3.760910    1.765310
    134          1           0      -10.071598    5.881483    1.833716
    135          1           0       -9.798739    5.907949    0.107772
    136          1           0       -7.245560   -3.309840   -1.320458
    137          1           0       -7.150985   -3.838280    0.316743
    138          1           0       -6.871566   -2.146063   -0.034250
    139          1           0      -10.095584   -7.552597    0.488737
    140          1           0      -11.295363   -6.575854   -0.352896
    141          1           0      -11.107039   -6.441892    1.338326
    142          1           0      -14.699332   -4.323153    2.088386
    143          1           0      -16.667637   -3.350806   -0.084230
    144          1           0      -14.707601   -5.705631   -0.462783
    145          1           0      -16.299150   -5.777448    0.401438
    146          1           0      -14.878894   -6.321838    1.193973
    147          1           0      -17.146134   -2.047271    2.492971
    148          1           0      -16.907647   -3.698779    2.819191
    149          1           0      -19.200484   -2.294160    1.712470
    150          1           0      -19.133202   -3.893402    2.445388
    151          1           0      -18.908478   -3.696492    0.724539
    152          1           0      -18.062350    3.181715   -0.211787
    153          1           0      -18.115686    2.226137    1.314497
    154          1           0      -18.404566    1.379991   -0.168621
    155          1           0      -13.119488    4.730306    0.943260
    156          1           0      -12.463421    7.551215   -2.692869
    157          1           0      -11.316906    6.255326   -2.890398
    158          1           0      -10.859064    7.630837   -1.877596
 ---------------------------------------------------------------------

 SCF Done:  E(RwB97XD) =  -4070.60084283     A.U. after   17 cycles

 Excitation energies and oscillator strengths:

 Excited State   1:      Singlet-A      1.6112 eV  769.53 nm  f=0.4319  <S**2>=0.000
     309 -> 316        0.17487
     312 -> 313        0.68528
     309 <- 316        0.11571
 This state for optimization and/or second-order correction.
 Total Energy, E(TD-HF/TD-DFT) =  -4070.54163386
 Copying the excited state density for this state as the 1-particle RhoCI density.

 Excited State   2:      Singlet-A      1.6708 eV  742.05 nm  f=0.3556  <S**2>=0.000
     310 -> 315        0.20276
     311 -> 314        0.67782
     310 <- 315        0.11985

 Excited State   3:      Singlet-A      2.1828 eV  567.99 nm  f=0.1257  <S**2>=0.000
     309 -> 313        0.63915
     312 -> 316       -0.28426

 Excited State   4:      Singlet-A      2.1931 eV  565.35 nm  f=0.0600  <S**2>=0.000
     310 -> 314        0.61583
     311 -> 315       -0.33605

 Excited State   5:      Singlet-A      3.1512 eV  393.45 nm  f=0.0020  <S**2>=0.000
     306 -> 313       -0.12098
     308 -> 313        0.66877
     312 -> 316        0.10244

 The electronic state is 1-A.
 Alpha  occ. eigenvalues --  -46.95601 -46.93912 -19.30441 -19.30070 -19.25610
 Alpha  occ. eigenvalues --  -19.24726 -19.24726 -19.24058 -19.23394 -19.22908
 Alpha  occ. eigenvalues --  -14.47334 -14.47174 -14.46303 -14.46202 -14.44086
 Alpha  occ. eigenvalues --  -14.43876 -14.43681 -14.42989 -10.44046 -10.42414
 Alpha  occ. eigenvalues --  -10.39983 -10.39376 -10.38651 -10.38386 -10.35964
 Alpha  occ. eigenvalues --  -10.35749 -10.35361 -10.35261 -10.35189 -10.34815
 Alpha  occ. eigenvalues --  -10.34728 -10.34662 -10.34633 -10.34417 -10.34247
 Alpha  occ. eigenvalues --  -10.34242 -10.34240 -10.34218 -10.34143 -10.33448
 Alpha  occ. eigenvalues --  -10.33440 -10.33215 -10.33128 -10.33047 -10.32834
 Alpha  occ. eigenvalues --  -10.32784 -10.32781 -10.32720 -10.32684 -10.32632
 Alpha  occ. eigenvalues --  -10.32405 -10.32036 -10.31982 -10.31980 -10.31875
 Alpha  occ. eigenvalues --  -10.31785 -10.31768 -10.31748 -10.31747 -10.31673
 Alpha  occ. eigenvalues --  -10.31644 -10.31573 -10.31323 -10.31226 -10.30980
 Alpha  occ. eigenvalues --  -10.30763 -10.30755 -10.30538 -10.30509 -10.30439
 Alpha  occ. eigenvalues --  -10.30349 -10.30342 -10.30341 -10.30303 -10.30254
 Alpha  occ. eigenvalues --  -10.30226 -10.29929 -10.29860 -10.29825 -10.29721
 Alpha  occ. eigenvalues --  -10.29684 -10.29559 -10.29491 -10.29199 -10.29181
 Alpha  occ. eigenvalues --  -10.28470  -3.21635  -3.20155  -1.95165  -1.94756
 Alpha  occ. eigenvalues --   -1.94607  -1.93738  -1.93299  -1.93145  -1.18105
 Alpha  occ. eigenvalues --   -1.17460  -1.13928  -1.12992  -1.12337  -1.11623
 Alpha  occ. eigenvalues --   -1.10029  -1.07710  -1.07190  -1.06515  -1.06303
 Alpha  occ. eigenvalues --   -1.05604  -1.05525  -1.04733  -1.04461  -1.03472
 Alpha  occ. eigenvalues --   -0.94688  -0.94683  -0.91206  -0.91049  -0.90684
 Alpha  occ. eigenvalues --   -0.90283  -0.90113  -0.89888  -0.89461  -0.89366
 Alpha  occ. eigenvalues --   -0.88924  -0.88205  -0.88107  -0.87520  -0.86443
 Alpha  occ. eigenvalues --   -0.86329  -0.85794  -0.85723  -0.84383  -0.84337
 Alpha  occ. eigenvalues --   -0.84158  -0.83674  -0.83222  -0.82429  -0.82235
 Alpha  occ. eigenvalues --   -0.82106  -0.80178  -0.80025  -0.79368  -0.79227
 Alpha  occ. eigenvalues --   -0.78816  -0.78677  -0.78179  -0.77839  -0.77311
 Alpha  occ. eigenvalues --   -0.77097  -0.74765  -0.74578  -0.74105  -0.73686
 Alpha  occ. eigenvalues --   -0.71389  -0.71214  -0.70822  -0.70709  -0.69842
 Alpha  occ. eigenvalues --   -0.69839  -0.69190  -0.68614  -0.67979  -0.67797
 Alpha  occ. eigenvalues --   -0.67455  -0.66988  -0.66871  -0.66486  -0.66429
 Alpha  occ. eigenvalues --   -0.66252  -0.64276  -0.63745  -0.62255  -0.61783
 Alpha  occ. eigenvalues --   -0.61736  -0.61434  -0.61136  -0.61125  -0.60973
 Alpha  occ. eigenvalues --   -0.60610  -0.60259  -0.59979  -0.59570  -0.59097
 Alpha  occ. eigenvalues --   -0.58432  -0.58314  -0.57837  -0.57536  -0.57432
 Alpha  occ. eigenvalues --   -0.57353  -0.56275  -0.56169  -0.55833  -0.55760
 Alpha  occ. eigenvalues --   -0.55371  -0.55236  -0.55167  -0.54989  -0.54784
 Alpha  occ. eigenvalues --   -0.54747  -0.54482  -0.54140  -0.54100  -0.53701
 Alpha  occ. eigenvalues --   -0.53604  -0.53515  -0.53329  -0.53156  -0.52969
 Alpha  occ. eigenvalues --   -0.52962  -0.52771  -0.52672  -0.52301  -0.52281
 Alpha  occ. eigenvalues --   -0.52116  -0.51941  -0.51803  -0.51738  -0.51603
 Alpha  occ. eigenvalues --   -0.51348  -0.51177  -0.51007  -0.50955  -0.50830
 Alpha  occ. eigenvalues --   -0.50577  -0.50460  -0.50389  -0.50075  -0.50018
 Alpha  occ. eigenvalues --   -0.49919  -0.49541  -0.49306  -0.49180  -0.48944
 Alpha  occ. eigenvalues --   -0.48869  -0.48802  -0.48403  -0.48299  -0.48270
 Alpha  occ. eigenvalues --   -0.48248  -0.48064  -0.47917  -0.47833  -0.47828
 Alpha  occ. eigenvalues --   -0.47682  -0.47640  -0.47446  -0.47127  -0.47056
 Alpha  occ. eigenvalues --   -0.46840  -0.46829  -0.46520  -0.45952  -0.45678
 Alpha  occ. eigenvalues --   -0.45647  -0.45495  -0.45493  -0.45407  -0.45336
 Alpha  occ. eigenvalues --   -0.45173  -0.45002  -0.44802  -0.44770  -0.44750
 Alpha  occ. eigenvalues --   -0.44582  -0.44486  -0.44423  -0.44326  -0.44151
 Alpha  occ. eigenvalues --   -0.44017  -0.43865  -0.43770  -0.43487  -0.43247
 Alpha  occ. eigenvalues --   -0.43140  -0.42956  -0.42697  -0.42649  -0.42455
 Alpha  occ. eigenvalues --   -0.42404  -0.42192  -0.42085  -0.41493  -0.41122
 Alpha  occ. eigenvalues --   -0.40717  -0.40327  -0.39761  -0.39578  -0.39453
 Alpha  occ. eigenvalues --   -0.39282  -0.39085  -0.38937  -0.38540  -0.37682
 Alpha  occ. eigenvalues --   -0.37503  -0.37209  -0.36926  -0.36319  -0.36145
 Alpha  occ. eigenvalues --   -0.35965  -0.35389  -0.34949  -0.33714  -0.33565
 Alpha  occ. eigenvalues --   -0.33494  -0.33252  -0.32609  -0.32453  -0.32335
 Alpha  occ. eigenvalues --   -0.31794  -0.31763  -0.30846  -0.26158  -0.26109
 Alpha  occ. eigenvalues --   -0.22922  -0.22851
 Alpha virt. eigenvalues --   -0.07273  -0.06778  -0.00386   0.00502   0.01760
 Alpha virt. eigenvalues --    0.02788   0.04298   0.04571   0.04888   0.06226
 Alpha virt. eigenvalues --    0.06584   0.07024   0.07381   0.07610   0.08051

 Mulliken charges:
               1
     1  Mg   0.994249
     2  C    0.048576
     3  C   -0.082816
     4  C   -0.068733
     5  C   -0.108732
     6  N   -0.341564
     7  C    0.046011
     8  C   -0.121812
     9  C   -0.075776
    10  C    0.029278
    11  C    0.026871
    12  C    0.023973
    13  C   -0.140307
    14  H    0.018535
    15  N   -0.559111
    16  C    0.189708
    17  C   -0.126482
    18  C   -0.130590
    19  C    0.181136
    20  C    0.043950
    21  C    0.089300
    22  O   -0.240726
    23  C   -0.021027
    24  N   -0.363900
    25  C    0.073171
    26  C   -0.083650
    27  C   -0.059615
    28  C    0.063103
    29  C    0.017225
    30  C   -0.011430
    31  C   -0.064763
    32  N   -0.360459
    33  C    0.130738
    34  C   -0.202693
    35  C   -0.017895
    36  C    0.092028
    37  C    0.097827
    38  C    0.101690
    39  O   -0.185054
    40  C   -0.133271
    41  C    0.263493
    42  O   -0.285165
    43  O   -0.350020
    44  C    0.138290
    45  H   -0.014453
    46  H    0.026578
    47  H   -0.019324
    48  H    0.037296
    49  H    0.028890
    50  H    0.042199
    51  H    0.037583
    52  H    0.043093
    53  H    0.031514
    54  H    0.058073
    55  H    0.053350
    56  H    0.056674
    57  H    0.054034
    58  H    0.028104
    59  H    0.054110
    60  H    0.074602
    61  H    0.050288
    62  H    0.047482
    63  H    0.043259
    64  H    0.027341
    65  H    0.021198
    66  H    0.043970
    67  H    0.041028
    68  H    0.036383
    69  H    0.043276
    70  H    0.035171
    71  H    0.044617
    72  H    0.027559
    73  H    0.034238
    74  H    0.066361
    75  H    0.064374
    76  H    0.073609
    77  H    0.048653
    78  H    0.075723
    79  H    0.049587
    80  Mg   0.981091
    81  C   -0.076477
    82  C   -0.053951
    83  C   -0.080044
    84  C   -0.124405
    85  N   -0.312997
    86  C   -0.015731
    87  C   -0.066001
    88  C   -0.119773
    89  C    0.048969
    90  C    0.041469
    91  C    0.037286
    92  C   -0.107822
    93  H    0.024146
    94  N   -0.419672
    95  C    0.112351
    96  C   -0.143611
    97  C   -0.073831
    98  C    0.168816
    99  C    0.081075
   100  C    0.035505
   101  O   -0.234905
   102  C   -0.012060
   103  N   -0.451702
   104  C    0.092024
   105  C   -0.128629
   106  C   -0.033744
   107  C    0.089168
   108  C    0.013829
   109  C    0.001000
   110  C   -0.047206
   111  N   -0.442110
   112  C    0.135191
   113  C   -0.189598
   114  C   -0.106279
   115  C    0.178287
   116  C    0.090774
   117  C    0.132681
   118  O   -0.174169
   119  C   -0.015093
   120  C    0.278239
   121  O   -0.234502
   122  O   -0.404906
   123  C    0.133389
   124  H   -0.005842
   125  H   -0.037589
   126  H   -0.011978
   127  H    0.025646
   128  H    0.029087
   129  H    0.043081
   130  H    0.042776
   131  H    0.036784
   132  H    0.037583
   133  H    0.040505
   134  H    0.055404
   135  H    0.048033
   136  H    0.055388
   137  H    0.054006
   138  H    0.037274
   139  H    0.051151
   140  H    0.049985
   141  H    0.057969
   142  H    0.051514
   143  H    0.033482
   144  H    0.044780
   145  H    0.038237
   146  H    0.031015
   147  H    0.038674
   148  H    0.025345
   149  H    0.036231
   150  H    0.036822
   151  H    0.035765
   152  H    0.071506
   153  H    0.053800
   154  H    0.034319
   155  H    0.072794
   156  H    0.063663
   157  H    0.051485
   158  H    0.065232
 Sum of Mulliken charges =  -0.00000

 Dipole moment (field-independent basis, Debye):
    X=              1.9749    Y=             -4.3842    Z=             -2.1514  Tot=              5.2679
 Quadrupole moment (field-independent basis, Debye-Ang):
   XX=           -417.8188   YY=           -518.9938   ZZ=           -473.3697
   XY=             26.6919   XZ=            -42.2800   YZ=              0.0123

 Normal termination of Gaussian 16 at Sun Sep 19 13:58:44 2021.
