 Gaussian 16, Revision A.03,
 Gaussian 16:  ES64L-G16RevA.03 25-Dec-2016

 --------------------------------
 #p wB97XD/Def2SVP td=(nstates=5)
 --------------------------------

 --------------------------------
 TDDFT excited states in gaussian
 --------------------------------
 Symbolic Z-matrix:
 Charge =  0 Multiplicity = 1

                         Standard orientation:
 ---------------------------------------------------------------------
 Center     Atomic      Atomic             Coordinates (Angstroms)
 Number     Number       Type             X           Y           Z
 ---------------------------------------------------------------------
      1         12           0       17.051923   -0.466005    0.380642
      2          6           0       15.592045    2.010913   -1.467483
      3          6           0       18.389527    1.765580    2.462264
      4          6           0       18.540421   -2.952899    1.871370
      5          6           0       16.079253   -2.685440   -2.232895
      6          7           0       17.142857    1.702311    0.395069
      7          6           0       16.255577    2.460290   -0.296464
      8          6           0       16.102790    3.831729    0.302271
      9          6           0       17.240825    3.804648    1.399967
     10          6           0       17.695147    2.361220    1.383103
     11          6           0       18.368287    4.843238    1.187545
     12          6           0       14.576406    4.183036    0.816203
     13          6           0       13.964064    5.537139    0.426732
     14          1           0       14.959111    6.693454    0.095497
     15          7           0       18.103895   -0.592116    1.983324
     16          6           0       18.598021    0.411203    2.754615
     17          6           0       19.482523   -0.053502    3.795256
     18          6           0       19.372318   -1.410850    3.763522
     19          6           0       18.747820   -1.696537    2.434529
     20          6           0       20.258482    0.998270    4.566770
     21          6           0       19.961034   -2.451433    4.736774
     22          8           0       19.860609   -3.647534    4.591933
     23          6           0       20.716860   -1.850057    5.884664
     24          7           0       17.402061   -2.502624   -0.239885
     25          6           0       17.953120   -3.326189    0.669861
     26          6           0       17.906915   -4.780312    0.190132
     27          6           0       16.845314   -4.734614   -0.960818
     28          6           0       16.775260   -3.211720   -1.195632
     29          6           0       19.266984   -5.477036   -0.241743
     30          6           0       15.408939   -5.277657   -0.610022
     31          6           0       14.569336   -4.705567    0.501742
     32          7           0       15.972586   -0.467313   -1.454110
     33          6           0       15.722740   -1.401298   -2.464752
     34          6           0       14.967112   -0.807649   -3.575150
     35          6           0       14.882488    0.546656   -3.218871
     36          6           0       15.505546    0.659395   -1.936182
     37          6           0       14.370822   -1.497227   -4.775335
     38          6           0       14.432133    1.804696   -3.605845
     39          8           0       13.879082    2.220261   -4.612094
     40          6           0       14.653130    2.758776   -2.403576
     41          6           0       15.255736    3.948738   -3.046967
     42          8           0       16.437913    4.059943   -3.380606
     43          8           0       14.306958    4.885970   -3.337004
     44          6           0       14.640849    5.996308   -4.234654
     45          1           0       18.646381    2.501080    3.227751
     46          1           0       18.964203   -3.840804    2.343611
     47          1           0       15.812324   -3.481461   -2.932224
     48          1           0       16.419684    4.597469   -0.405852
     49          1           0       16.787001    3.952095    2.379728
     50          1           0       19.245700    4.333961    0.789132
     51          1           0       18.631516    5.269284    2.155698
     52          1           0       17.983478    5.576400    0.478573
     53          1           0       14.630282    4.114003    1.902748
     54          1           0       13.865827    3.455119    0.425925
     55          1           0       13.405860    5.952538    1.265329
     56          1           0       13.227490    5.394770   -0.363931
     57          1           0       20.936649    1.606313    3.967839
     58          1           0       21.028273    0.704642    5.280176
     59          1           0       19.445528    1.528335    5.063034
     60          1           0       20.087386   -1.152402    6.436554
     61          1           0       21.595897   -1.445845    5.383088
     62          1           0       21.046040   -2.499417    6.695095
     63          1           0       17.572432   -5.296121    1.090928
     64          1           0       17.281209   -5.181300   -1.854720
     65          1           0       20.090282   -4.774611   -0.114069
     66          1           0       19.276646   -5.673381   -1.313213
     67          1           0       19.505479   -6.423304    0.246235
     68          1           0       15.655039   -6.323440   -0.424204
     69          1           0       14.731226   -5.228546   -1.461714
     70          1           0       15.168513   -4.008383    1.088880
     71          1           0       14.250985   -5.493482    1.184173
     72          1           0       13.705994   -4.111626    0.202449
     73          1           0       14.913215   -1.276442   -5.693595
     74          1           0       13.325840   -1.206862   -4.885285
     75          1           0       14.543143   -2.552051   -4.559974
     76          1           0       13.728228    2.946835   -1.858024
     77          1           0       13.760793    6.397121   -4.738982
     78          1           0       15.485404    5.759496   -4.879954
     79          1           0       15.075717    6.844582   -3.706366
     80         12           0      -16.507174   -0.942212   -0.109778
     81          6           0      -18.650902    1.828089    0.970620
     82          6           0      -13.899404    1.395456   -0.213588
     83          6           0      -14.619915   -3.260581   -1.410163
     84          6           0      -19.161332   -3.085822    0.239948
     85          7           0      -16.347859    1.352260    0.121782
     86          6           0      -17.313687    2.282196    0.693883
     87          6           0      -16.785818    3.727113    0.823439
     88          6           0      -15.282284    3.513686    0.211610
     89          6           0      -15.124429    1.995798   -0.004403
     90          6           0      -15.011250    4.323275   -1.041553
     91          6           0      -16.898112    4.222740    2.296961
     92          6           0      -16.151974    5.485135    2.608609
     93          1           0      -16.811603    6.561171    3.442100
     94          7           0      -14.507523   -0.959580   -0.767334
     95          6           0      -13.584821    0.091798   -0.724787
     96          6           0      -12.289287   -0.370094   -1.219694
     97          6           0      -12.471117   -1.767710   -1.581002
     98          6           0      -13.911896   -2.090763   -1.266520
     99          6           0      -10.972393    0.489524   -1.237987
    100          6           0      -11.542165   -2.755227   -2.189974
    101          8           0      -11.814259   -3.926324   -2.418544
    102          6           0      -10.142301   -2.383817   -2.456065
    103          7           0      -16.798698   -2.859168   -0.431207
    104          6           0      -15.921398   -3.613956   -1.095239
    105          6           0      -16.414617   -5.065978   -1.296954
    106          6           0      -17.629256   -5.087280   -0.392389
    107          6           0      -17.949318   -3.552409   -0.215305
    108          6           0      -16.745166   -5.393494   -2.748505
    109          6           0      -17.642108   -5.781244    0.945024
    110          6           0      -16.674316   -5.203769    1.955681
    111          7           0      -18.518725   -0.713326    0.379123
    112          6           0      -19.463751   -1.736468    0.575491
    113          6           0      -20.711540   -1.144975    0.991443
    114          6           0      -20.352044    0.210196    1.207857
    115          6           0      -19.020526    0.441697    0.813255
    116          6           0      -22.004776   -1.826537    1.331384
    117          6           0      -20.932355    1.481717    1.740382
    118          8           0      -22.027847    1.711888    2.295774
    119          6           0      -19.845754    2.539131    1.558441
    120          6           0      -20.385927    3.708335    0.732313
    121          8           0      -20.784594    3.745644   -0.469166
    122          8           0      -20.235629    4.831125    1.491335
    123          6           0      -20.623759    6.103152    0.840829
    124          1           0      -13.056969    2.069459   -0.050715
    125          1           0      -14.026571   -4.033870   -1.902428
    126          1           0      -20.055319   -3.703583    0.348783
    127          1           0      -17.481726    4.334553    0.244869
    128          1           0      -14.552420    3.720920    0.994230
    129          1           0      -14.154504    4.971549   -0.855415
    130          1           0      -15.896438    4.936592   -1.206249
    131          1           0      -15.022656    3.795832   -1.995129
    132          1           0      -16.647202    3.358930    2.913549
    133          1           0      -17.949611    4.403019    2.520791
    134          1           0      -15.837279    6.095828    1.762683
    135          1           0      -15.283411    5.244204    3.220837
    136          1           0      -10.290305   -0.038497   -0.570988
    137          1           0      -11.110678    1.503941   -0.864215
    138          1           0      -10.626017    0.489236   -2.271566
    139          1           0      -10.025362   -1.397186   -2.904853
    140          1           0       -9.806699   -3.146588   -3.157789
    141          1           0       -9.709255   -2.282700   -1.461368
    142          1           0      -15.607604   -5.723120   -0.972727
    143          1           0      -18.483943   -5.571459   -0.865647
    144          1           0      -16.391049   -6.401056   -2.963423
    145          1           0      -16.253778   -4.701282   -3.431400
    146          1           0      -17.824809   -5.474167   -2.879881
    147          1           0      -17.501409   -6.848009    0.768754
    148          1           0      -18.589870   -5.620766    1.458659
    149          1           0      -16.107848   -5.980077    2.468724
    150          1           0      -17.176449   -4.668778    2.762061
    151          1           0      -15.928840   -4.531349    1.530974
    152          1           0      -22.339713   -1.503672    2.316816
    153          1           0      -22.075040   -2.914170    1.344008
    154          1           0      -22.736256   -1.499566    0.592084
    155          1           0      -19.618806    2.962240    2.537414
    156          1           0      -19.733225    6.621416    0.485833
    157          1           0      -21.164524    6.554702    1.672573
    158          1           0      -21.375334    5.961380    0.063151
 ---------------------------------------------------------------------

 SCF Done:  E(RwB97XD) =  -4070.61323566     A.U. after   19 cycles

 Excitation energies and oscillator strengths:

 Excited State   1:      Singlet-A      1.6111 eV  769.57 nm  f=0.4028  <S**2>=0.000
     309 -> 316       -0.17047
     311 -> 313        0.68648
     309 <- 316       -0.11382
 This state for optimization and/or second-order correction.
 Total Energy, E(TD-HF/TD-DFT) =  -4070.55402938
 Copying the excited state density for this state as the 1-particle RhoCI density.

 Excited State   2:      Singlet-A      1.7219 eV  720.04 nm  f=0.3718  <S**2>=0.000
     310 -> 315        0.19588
     312 -> 314        0.67976
     310 <- 315        0.11418

 Excited State   3:      Singlet-A      2.1163 eV  585.86 nm  f=0.1327  <S**2>=0.000
     309 -> 313        0.64977
     311 -> 316        0.25753

 Excited State   4:      Singlet-A      2.2244 eV  557.39 nm  f=0.0564  <S**2>=0.000
     310 -> 314        0.61466
     312 -> 315       -0.33874

 Excited State   5:      Singlet-A      3.2648 eV  379.76 nm  f=0.0055  <S**2>=0.000
     304 -> 313       -0.31954
     308 -> 313        0.60901

 The electronic state is 1-A.
 Alpha  occ. eigenvalues --  -46.94356 -46.94104 -19.30980 -19.29178 -19.25036
 Alpha  occ. eigenvalues --  -19.24603 -19.23851 -19.23489 -19.23331 -19.22737
 Alpha  occ. eigenvalues --  -14.47142 -14.46775 -14.46336 -14.45683 -14.44697
 Alpha  occ. eigenvalues --  -14.44611 -14.43427 -14.43380 -10.43820 -10.42150
 Alpha  occ. eigenvalues --  -10.40006 -10.38734 -10.38642 -10.37574 -10.36011
 Alpha  occ. eigenvalues --  -10.35642 -10.35574 -10.35514 -10.35153 -10.34991
 Alpha  occ. eigenvalues --  -10.34800 -10.34743 -10.34675 -10.34594 -10.34505
 Alpha  occ. eigenvalues --  -10.34443 -10.34344 -10.34290 -10.33212 -10.33169
 Alpha  occ. eigenvalues --  -10.33055 -10.33031 -10.32991 -10.32954 -10.32914
 Alpha  occ. eigenvalues --  -10.32878 -10.32717 -10.32621 -10.32596 -10.32592
 Alpha  occ. eigenvalues --  -10.32445 -10.32067 -10.32044 -10.31965 -10.31942
 Alpha  occ. eigenvalues --  -10.31795 -10.31782 -10.31694 -10.31652 -10.31614
 Alpha  occ. eigenvalues --  -10.31589 -10.31562 -10.31440 -10.31418 -10.31411
 Alpha  occ. eigenvalues --  -10.31007 -10.30992 -10.30790 -10.30628 -10.30461
 Alpha  occ. eigenvalues --  -10.30237 -10.30140 -10.29957 -10.29951 -10.29799
 Alpha  occ. eigenvalues --  -10.29791 -10.29790 -10.29730 -10.29669 -10.29556
 Alpha  occ. eigenvalues --  -10.29484 -10.29064 -10.29057 -10.28695 -10.28367
 Alpha  occ. eigenvalues --  -10.28107  -3.20615  -3.20261  -1.94178  -1.93861
 Alpha  occ. eigenvalues --   -1.93760  -1.93625  -1.93398  -1.93238  -1.18178
 Alpha  occ. eigenvalues --   -1.17057  -1.13827  -1.12647  -1.11265  -1.09991
 Alpha  occ. eigenvalues --   -1.08150  -1.07947  -1.07695  -1.07053  -1.06808
 Alpha  occ. eigenvalues --   -1.06160  -1.05064  -1.04805  -1.04355  -1.02612
 Alpha  occ. eigenvalues --   -0.94363  -0.94249  -0.91658  -0.91552  -0.90820
 Alpha  occ. eigenvalues --   -0.90559  -0.90403  -0.89947  -0.89903  -0.89443
 Alpha  occ. eigenvalues --   -0.89263  -0.88994  -0.88536  -0.87793  -0.86676
 Alpha  occ. eigenvalues --   -0.86343  -0.85929  -0.85525  -0.84861  -0.84685
 Alpha  occ. eigenvalues --   -0.84551  -0.84276  -0.83367  -0.83044  -0.82536
 Alpha  occ. eigenvalues --   -0.82042  -0.81061  -0.80525  -0.79428  -0.79187
 Alpha  occ. eigenvalues --   -0.78947  -0.78708  -0.77888  -0.77683  -0.77448
 Alpha  occ. eigenvalues --   -0.77187  -0.74735  -0.74667  -0.73918  -0.73717
 Alpha  occ. eigenvalues --   -0.72212  -0.71609  -0.71406  -0.71063  -0.70178
 Alpha  occ. eigenvalues --   -0.69626  -0.69369  -0.69166  -0.67400  -0.67041
 Alpha  occ. eigenvalues --   -0.66956  -0.66801  -0.66660  -0.66276  -0.65805
 Alpha  occ. eigenvalues --   -0.65799  -0.63914  -0.63750  -0.63210  -0.62247
 Alpha  occ. eigenvalues --   -0.61343  -0.61319  -0.61147  -0.61078  -0.60291
 Alpha  occ. eigenvalues --   -0.59931  -0.59845  -0.59671  -0.59579  -0.59389
 Alpha  occ. eigenvalues --   -0.58377  -0.58300  -0.57869  -0.57459  -0.57287
 Alpha  occ. eigenvalues --   -0.57220  -0.57141  -0.56715  -0.56635  -0.56448
 Alpha  occ. eigenvalues --   -0.56232  -0.55648  -0.55429  -0.55172  -0.55039
 Alpha  occ. eigenvalues --   -0.54702  -0.54646  -0.54611  -0.54399  -0.54393
 Alpha  occ. eigenvalues --   -0.54227  -0.54091  -0.53653  -0.53246  -0.53078
 Alpha  occ. eigenvalues --   -0.52797  -0.52702  -0.52587  -0.52469  -0.52296
 Alpha  occ. eigenvalues --   -0.52187  -0.52100  -0.51696  -0.51543  -0.51523
 Alpha  occ. eigenvalues --   -0.51308  -0.51062  -0.50769  -0.50748  -0.50723
 Alpha  occ. eigenvalues --   -0.50539  -0.50534  -0.50421  -0.50067  -0.50031
 Alpha  occ. eigenvalues --   -0.49989  -0.49768  -0.49663  -0.49540  -0.49147
 Alpha  occ. eigenvalues --   -0.48925  -0.48794  -0.48695  -0.48633  -0.48482
 Alpha  occ. eigenvalues --   -0.48435  -0.48089  -0.47931  -0.47670  -0.47586
 Alpha  occ. eigenvalues --   -0.47450  -0.47382  -0.47196  -0.46826  -0.46820
 Alpha  occ. eigenvalues --   -0.46505  -0.46472  -0.46268  -0.46128  -0.46108
 Alpha  occ. eigenvalues --   -0.45857  -0.45854  -0.45816  -0.45555  -0.45381
 Alpha  occ. eigenvalues --   -0.45154  -0.45121  -0.44892  -0.44851  -0.44598
 Alpha  occ. eigenvalues --   -0.44463  -0.44424  -0.44125  -0.44118  -0.43843
 Alpha  occ. eigenvalues --   -0.43835  -0.43723  -0.43562  -0.43228  -0.43208
 Alpha  occ. eigenvalues --   -0.43033  -0.42824  -0.42745  -0.42505  -0.42399
 Alpha  occ. eigenvalues --   -0.41878  -0.41545  -0.41163  -0.41153  -0.40997
 Alpha  occ. eigenvalues --   -0.40796  -0.40430  -0.40147  -0.39309  -0.39141
 Alpha  occ. eigenvalues --   -0.39085  -0.38791  -0.38476  -0.38473  -0.38358
 Alpha  occ. eigenvalues --   -0.38109  -0.37196  -0.36391  -0.36301  -0.36060
 Alpha  occ. eigenvalues --   -0.35490  -0.35298  -0.35002  -0.34688  -0.33724
 Alpha  occ. eigenvalues --   -0.33456  -0.33255  -0.32982  -0.32586  -0.32291
 Alpha  occ. eigenvalues --   -0.32117  -0.31914  -0.31291  -0.26179  -0.25814
 Alpha  occ. eigenvalues --   -0.23281  -0.22482
 Alpha virt. eigenvalues --   -0.07649  -0.06217   0.00103   0.00258   0.02247
 Alpha virt. eigenvalues --    0.02374   0.04300   0.04530   0.05820   0.06255
 Alpha virt. eigenvalues --    0.06686   0.07512   0.07695   0.08434   0.08609

 Mulliken charges:
               1
     1  Mg   0.993093
     2  C    0.010929
     3  C   -0.117736
     4  C   -0.080815
     5  C   -0.117047
     6  N   -0.330660
     7  C   -0.016864
     8  C   -0.037229
     9  C   -0.153964
    10  C    0.076212
    11  C    0.047332
    12  C    0.007223
    13  C   -0.125999
    14  H    0.026474
    15  N   -0.509660
    16  C    0.179981
    17  C   -0.131556
    18  C   -0.119494
    19  C    0.182739
    20  C    0.046504
    21  C    0.071569
    22  O   -0.201824
    23  C   -0.025060
    24  N   -0.321215
    25  C    0.020930
    26  C   -0.086046
    27  C   -0.050209
    28  C   -0.008272
    29  C    0.024198
    30  C   -0.010726
    31  C   -0.046769
    32  N   -0.398866
    33  C    0.160014
    34  C   -0.186977
    35  C    0.034810
    36  C    0.091325
    37  C    0.104721
    38  C    0.050695
    39  O   -0.214338
    40  C   -0.074785
    41  C    0.264559
    42  O   -0.268138
    43  O   -0.355885
    44  C    0.151818
    45  H   -0.008442
    46  H    0.016512
    47  H   -0.010493
    48  H    0.043179
    49  H    0.031846
    50  H    0.045793
    51  H    0.038599
    52  H    0.045917
    53  H    0.033198
    54  H    0.041095
    55  H    0.049014
    56  H    0.062453
    57  H    0.060524
    58  H    0.029707
    59  H    0.066482
    60  H    0.061437
    61  H    0.069411
    62  H    0.048079
    63  H    0.035061
    64  H    0.029259
    65  H    0.038325
    66  H    0.025967
    67  H    0.050290
    68  H    0.032328
    69  H    0.032272
    70  H    0.028518
    71  H    0.041169
    72  H    0.043746
    73  H    0.059494
    74  H    0.063864
    75  H    0.019709
    76  H    0.072553
    77  H    0.061487
    78  H    0.057226
    79  H    0.029426
    80  Mg   0.975179
    81  C   -0.025731
    82  C   -0.091757
    83  C   -0.091586
    84  C   -0.077717
    85  N   -0.366224
    86  C   -0.005904
    87  C   -0.064692
    88  C   -0.111877
    89  C    0.088952
    90  C    0.051892
    91  C   -0.005976
    92  C   -0.128086
    93  H    0.029091
    94  N   -0.467410
    95  C    0.163323
    96  C   -0.170344
    97  C   -0.057425
    98  C    0.152414
    99  C    0.067206
   100  C    0.022028
   101  O   -0.243495
   102  C    0.001945
   103  N   -0.422464
   104  C    0.104090
   105  C   -0.088151
   106  C   -0.066210
   107  C    0.109702
   108  C    0.042975
   109  C    0.010385
   110  C   -0.067852
   111  N   -0.449847
   112  C    0.078850
   113  C   -0.151489
   114  C   -0.101712
   115  C    0.167216
   116  C    0.064811
   117  C    0.158558
   118  O   -0.236446
   119  C   -0.063458
   120  C    0.278969
   121  O   -0.286750
   122  O   -0.366305
   123  C    0.125336
   124  H   -0.007272
   125  H    0.021608
   126  H    0.001310
   127  H    0.052042
   128  H    0.035064
   129  H    0.045598
   130  H    0.021902
   131  H    0.048154
   132  H    0.034797
   133  H    0.058172
   134  H    0.052542
   135  H    0.055192
   136  H    0.061404
   137  H    0.044213
   138  H    0.067116
   139  H    0.027250
   140  H    0.066628
   141  H    0.059685
   142  H    0.041412
   143  H    0.013876
   144  H    0.035662
   145  H    0.048321
   146  H    0.036553
   147  H    0.035154
   148  H    0.029048
   149  H    0.029042
   150  H    0.034925
   151  H    0.040815
   152  H    0.061446
   153  H    0.026444
   154  H    0.055495
   155  H    0.079534
   156  H    0.065878
   157  H    0.060809
   158  H    0.076171
 Sum of Mulliken charges =  -0.00000

 Dipole moment (field-independent basis, Debye):
    X=              6.1194    Y=              1.3481    Z=              5.9473  Tot=              8.6392
 Quadrupole moment (field-independent basis, Debye-Ang):
   XX=           -672.4182   YY=           -465.1692   ZZ=           -522.5320
   XY=             16.1774   XZ=             92.8575   YZ=             23.4595

 Normal termination of Gaussian 16 at Sat Sep 18 05:00:12 2021.
