 Gaussian 16, Revision A.03,
 Gaussian 16:  ES64L-G16RevA.03 25-Dec-2016

 --------------------------------
 #p wB97XD/Def2SVP td=(nstates=5)
 --------------------------------

 --------------------------------
 TDDFT excited states in gaussian
 --------------------------------
 Symbolic Z-matrix:
 Charge =  0 Multiplicity = 1

                         Standard orientation:
 ---------------------------------------------------------------------
 Center     Atomic      Atomic             Coordinates (Angstroms)
 Number     Number       Type             X           Y           Z
 ---------------------------------------------------------------------
      1         12           0      -26.468462   -0.529603    0.429320
      2          6           0      -25.046815    2.285919   -1.161792
      3          6           0      -26.545414   -2.146949   -2.443434
      4          6           0      -28.615701   -2.750164    1.889216
      5          6           0      -27.258725    1.756416    3.226603
      6          7           0      -25.898501    0.077975   -1.582242
      7          6           0      -25.141556    1.133905   -1.944640
      8          6           0      -24.597279    0.900347   -3.367590
      9          6           0      -25.039226   -0.476069   -3.749038
     10          6           0      -25.929649   -0.898792   -2.541516
     11          6           0      -25.654831   -0.545240   -5.206271
     12          6           0      -23.078758    1.166275   -3.639136
     13          6           0      -22.227796    0.289217   -4.654341
     14          1           0      -21.287053    1.008041   -5.632458
     15          7           0      -27.233790   -2.342359   -0.144477
     16          6           0      -27.142295   -2.849879   -1.420843
     17          6           0      -27.753585   -4.148497   -1.417797
     18          6           0      -28.429495   -4.376538   -0.156201
     19          6           0      -28.153909   -3.116183    0.568145
     20          6           0      -27.742636   -4.923425   -2.672832
     21          6           0      -29.186840   -5.617917    0.376568
     22          8           0      -29.713939   -5.585388    1.439399
     23          6           0      -29.054400   -6.936880   -0.312599
     24          7           0      -27.795180   -0.443218    2.286483
     25          6           0      -28.436970   -1.577259    2.646859
     26          6           0      -29.157261   -1.431307    4.025394
     27          6           0      -28.704932   -0.013203    4.490032
     28          6           0      -27.881538    0.505283    3.285043
     29          6           0      -30.656146   -1.570175    3.995476
     30          6           0      -27.881917    0.102127    5.820572
     31          6           0      -26.433314   -0.252257    5.813926
     32          7           0      -26.249006    1.559925    1.039863
     33          6           0      -26.560962    2.260314    2.169739
     34          6           0      -25.997746    3.585420    2.080621
     35          6           0      -25.387810    3.681340    0.802155
     36          6           0      -25.612656    2.430602    0.191975
     37          6           0      -26.175102    4.717254    3.030185
     38          6           0      -24.690507    4.533197   -0.118449
     39          8           0      -24.267283    5.681320   -0.048000
     40          6           0      -24.392145    3.655602   -1.415819
     41          6           0      -24.789148    4.350990   -2.707075
     42          8           0      -25.924350    4.623740   -3.001122
     43          8           0      -23.656606    4.564123   -3.476742
     44          6           0      -23.934020    5.264491   -4.731287
     45          1           0      -26.430165   -2.828207   -3.289505
     46          1           0      -29.251774   -3.531834    2.309123
     47          1           0      -27.398013    2.402848    4.095505
     48          1           0      -25.136614    1.702006   -3.872150
     49          1           0      -24.145752   -1.096683   -3.822530
     50          1           0      -25.508613    0.412125   -5.706176
     51          1           0      -26.677231   -0.911588   -5.114004
     52          1           0      -25.081035   -1.215690   -5.846349
     53          1           0      -22.573093    1.080451   -2.677034
     54          1           0      -22.895032    2.197514   -3.941756
     55          1           0      -22.974950   -0.279846   -5.207901
     56          1           0      -21.635244   -0.430308   -4.089177
     57          1           0      -28.699273   -5.444600   -2.701415
     58          1           0      -26.959207   -5.674152   -2.576152
     59          1           0      -27.592745   -4.449741   -3.643158
     60          1           0      -29.896377   -6.920464   -1.003395
     61          1           0      -29.022806   -7.728098    0.437074
     62          1           0      -28.182438   -7.035421   -0.959559
     63          1           0      -28.735949   -2.099952    4.776336
     64          1           0      -29.440826    0.785602    4.576564
     65          1           0      -31.002448   -1.950536    3.033608
     66          1           0      -31.161896   -0.613263    4.127145
     67          1           0      -30.899305   -2.271428    4.793350
     68          1           0      -28.346478   -0.511745    6.592298
     69          1           0      -28.058746    1.096659    6.230753
     70          1           0      -26.223008   -0.924673    4.982000
     71          1           0      -25.981680   -0.794029    6.645254
     72          1           0      -25.912163    0.705001    5.779734
     73          1           0      -27.208328    5.024974    3.188368
     74          1           0      -25.833303    5.600204    2.489539
     75          1           0      -25.651976    4.543208    3.970883
     76          1           0      -23.318410    3.467440   -1.401895
     77          1           0      -23.688941    4.363229   -5.292361
     78          1           0      -23.159314    6.030134   -4.765399
     79          1           0      -24.960910    5.622964   -4.805857
     80         12           0       26.808444    0.541300   -0.112294
     81          6           0       25.145262   -2.510886    0.147588
     82          6           0       24.036891    2.116513    1.199871
     83          6           0       28.594014    3.284392   -0.347850
     84          6           0       29.925872   -1.317159   -0.444425
     85          7           0       24.731712   -0.198886    0.547961
     86          6           0       24.280002   -1.487739    0.597351
     87          6           0       22.867495   -1.538980    1.060963
     88          6           0       22.530390   -0.042048    1.440831
     89          6           0       23.847034    0.733108    1.044094
     90          6           0       21.193187    0.487526    0.864388
     91          6           0       22.656867   -2.496947    2.258614
     92          6           0       21.519247   -3.476389    1.975112
     93          1           0       20.378296   -3.578831    3.031872
     94          7           0       26.356565    2.455310    0.335824
     95          6           0       25.148450    2.945860    0.829122
     96          6           0       25.307468    4.393648    0.874479
     97          6           0       26.642038    4.775806    0.385600
     98          6           0       27.272054    3.468738    0.016917
     99          6           0       24.335349    5.267723    1.493203
    100          6           0       27.148225    6.155747    0.473815
    101          8           0       26.500088    7.095916    0.883611
    102          6           0       28.550923    6.546859    0.163440
    103          7           0       28.883772    0.885657   -0.308239
    104          6           0       29.315247    2.137461   -0.667231
    105          6           0       30.812843    2.128438   -0.890272
    106          6           0       31.240990    0.783859   -0.434179
    107          6           0       29.985515    0.072772   -0.317068
    108          6           0       31.279040    2.559574   -2.340996
    109          6           0       31.886122    0.792741    0.994152
    110          6           0       32.889608   -0.230454    1.265975
    111          7           0       27.462852   -1.503686   -0.178180
    112          6           0       28.714222   -2.100414   -0.380391
    113          6           0       28.528676   -3.491841   -0.649421
    114          6           0       27.177310   -3.720588   -0.418736
    115          6           0       26.555631   -2.463930   -0.087859
    116          6           0       29.627198   -4.417630   -1.022192
    117          6           0       26.186719   -4.719777   -0.348406
    118          8           0       26.268253   -5.913102   -0.536438
    119          6           0       24.854925   -3.998061   -0.044336
    120          6           0       23.884849   -4.313382   -1.104989
    121          8           0       23.768505   -3.707140   -2.183384
    122          8           0       23.228307   -5.482329   -0.795170
    123          6           0       22.143778   -5.959964   -1.637446
    124          1           0       23.104191    2.553994    1.560474
    125          1           0       29.315637    4.102694   -0.411137
    126          1           0       30.881018   -1.830840   -0.572202
    127          1           0       22.291563   -1.670434    0.144494
    128          1           0       22.386453    0.114140    2.509495
    129          1           0       20.665902   -0.435181    0.619137
    130          1           0       21.263258    1.208303    0.049660
    131          1           0       20.630206    0.997860    1.645489
    132          1           0       22.319145   -2.002298    3.169123
    133          1           0       23.610960   -2.999690    2.415862
    134          1           0       22.070758   -4.412356    2.062762
    135          1           0       21.184790   -3.295719    0.954611
    136          1           0       23.493830    4.656603    1.820213
    137          1           0       23.871850    6.006662    0.838879
    138          1           0       24.777370    5.730660    2.376178
    139          1           0       28.666024    6.029627   -0.789113
    140          1           0       29.206751    6.124083    0.924983
    141          1           0       28.644924    7.627027    0.049556
    142          1           0       31.161898    2.919748   -0.227900
    143          1           0       31.818513    0.170451   -1.125847
    144          1           0       30.442737    2.975980   -2.902825
    145          1           0       31.847908    1.804603   -2.884805
    146          1           0       31.918169    3.442095   -2.340883
    147          1           0       31.096114    0.737640    1.743219
    148          1           0       32.385493    1.742740    1.183844
    149          1           0       33.861723    0.140520    0.939400
    150          1           0       32.642480   -1.186333    0.802924
    151          1           0       33.069290   -0.290834    2.339851
    152          1           0       30.340397   -3.934226   -1.689714
    153          1           0       29.285872   -5.359553   -1.451884
    154          1           0       30.172798   -4.553386   -0.088339
    155          1           0       24.340472   -4.406366    0.825665
    156          1           0       22.377233   -6.375788   -2.617647
    157          1           0       21.393728   -5.176380   -1.742856
    158          1           0       21.746667   -6.815079   -1.091729
 ---------------------------------------------------------------------

 SCF Done:  E(RwB97XD) =  -4070.56582853     A.U. after   20 cycles

 Excitation energies and oscillator strengths:

 Excited State   1:      Singlet-A      1.6144 eV  767.99 nm  f=0.3603  <S**2>=0.000
     309 -> 315        0.19429
     311 -> 313        0.68132
     309 <- 315        0.12116
 This state for optimization and/or second-order correction.
 Total Energy, E(TD-HF/TD-DFT) =  -4070.50650033
 Copying the excited state density for this state as the 1-particle RhoCI density.

 Excited State   2:      Singlet-A      1.6417 eV  755.21 nm  f=0.3896  <S**2>=0.000
     310 -> 316        0.19305
     312 -> 314        0.68163
     310 <- 316        0.12003

 Excited State   3:      Singlet-A      2.1299 eV  582.12 nm  f=0.1014  <S**2>=0.000
     309 -> 313        0.63352
     311 -> 315       -0.30002

 Excited State   4:      Singlet-A      2.1319 eV  581.55 nm  f=0.1041  <S**2>=0.000
     310 -> 314        0.64022
     312 -> 316       -0.28526

 Excited State   5:      Singlet-A      3.2693 eV  379.24 nm  f=0.0024  <S**2>=0.000
     304 -> 313       -0.24552
     306 -> 313        0.52188
     307 -> 313        0.35572

 The electronic state is 1-A.
 Alpha  occ. eigenvalues --  -46.96331 -46.95296 -19.30111 -19.29978 -19.24951
 Alpha  occ. eigenvalues --  -19.24599 -19.24330 -19.23677 -19.23410 -19.22417
 Alpha  occ. eigenvalues --  -14.46937 -14.46794 -14.46560 -14.46374 -14.44919
 Alpha  occ. eigenvalues --  -14.44108 -14.43774 -14.43386 -10.42960 -10.42955
 Alpha  occ. eigenvalues --  -10.39688 -10.38810 -10.38212 -10.37660 -10.35691
 Alpha  occ. eigenvalues --  -10.35676 -10.35661 -10.35598 -10.35421 -10.35159
 Alpha  occ. eigenvalues --  -10.35141 -10.35095 -10.34989 -10.34966 -10.34742
 Alpha  occ. eigenvalues --  -10.34468 -10.34349 -10.33900 -10.33607 -10.33480
 Alpha  occ. eigenvalues --  -10.33107 -10.33027 -10.32979 -10.32828 -10.32719
 Alpha  occ. eigenvalues --  -10.32714 -10.32553 -10.32440 -10.32387 -10.32317
 Alpha  occ. eigenvalues --  -10.32281 -10.32215 -10.32079 -10.32079 -10.32067
 Alpha  occ. eigenvalues --  -10.31875 -10.31870 -10.31694 -10.31668 -10.31420
 Alpha  occ. eigenvalues --  -10.31399 -10.31353 -10.31332 -10.31314 -10.31215
 Alpha  occ. eigenvalues --  -10.31138 -10.30965 -10.30756 -10.30751 -10.30681
 Alpha  occ. eigenvalues --  -10.30444 -10.30433 -10.30417 -10.30367 -10.30345
 Alpha  occ. eigenvalues --  -10.30255 -10.30104 -10.30047 -10.29371 -10.29262
 Alpha  occ. eigenvalues --  -10.29070 -10.28944 -10.28911 -10.28795 -10.28772
 Alpha  occ. eigenvalues --  -10.28763  -3.22125  -3.21233  -1.95677  -1.95247
 Alpha  occ. eigenvalues --   -1.95074  -1.94825  -1.94365  -1.94190  -1.18452
 Alpha  occ. eigenvalues --   -1.17642  -1.15126  -1.12299  -1.12070  -1.11438
 Alpha  occ. eigenvalues --   -1.10738  -1.08912  -1.06998  -1.06214  -1.05828
 Alpha  occ. eigenvalues --   -1.05132  -1.05019  -1.04513  -1.03870  -1.03639
 Alpha  occ. eigenvalues --   -0.94646  -0.93570  -0.92660  -0.91469  -0.91157
 Alpha  occ. eigenvalues --   -0.91002  -0.90735  -0.90187  -0.89657  -0.89302
 Alpha  occ. eigenvalues --   -0.89199  -0.89112  -0.88282  -0.88031  -0.87177
 Alpha  occ. eigenvalues --   -0.86463  -0.85877  -0.85591  -0.85388  -0.84511
 Alpha  occ. eigenvalues --   -0.84450  -0.83900  -0.83389  -0.82801  -0.82778
 Alpha  occ. eigenvalues --   -0.82362  -0.80600  -0.80262  -0.79926  -0.79078
 Alpha  occ. eigenvalues --   -0.79057  -0.79009  -0.78255  -0.77802  -0.77352
 Alpha  occ. eigenvalues --   -0.76596  -0.75412  -0.74315  -0.74037  -0.73428
 Alpha  occ. eigenvalues --   -0.71724  -0.71329  -0.71187  -0.71039  -0.70206
 Alpha  occ. eigenvalues --   -0.69956  -0.69486  -0.68931  -0.68419  -0.67904
 Alpha  occ. eigenvalues --   -0.67301  -0.66925  -0.66706  -0.66227  -0.66085
 Alpha  occ. eigenvalues --   -0.66001  -0.64032  -0.63683  -0.62728  -0.62041
 Alpha  occ. eigenvalues --   -0.61504  -0.61485  -0.61465  -0.60986  -0.60799
 Alpha  occ. eigenvalues --   -0.60313  -0.59974  -0.59942  -0.59394  -0.59384
 Alpha  occ. eigenvalues --   -0.58410  -0.58044  -0.57843  -0.57834  -0.57426
 Alpha  occ. eigenvalues --   -0.57328  -0.57147  -0.56988  -0.56524  -0.56381
 Alpha  occ. eigenvalues --   -0.56185  -0.55994  -0.55670  -0.55293  -0.55155
 Alpha  occ. eigenvalues --   -0.54757  -0.54707  -0.54505  -0.54289  -0.54244
 Alpha  occ. eigenvalues --   -0.54042  -0.53693  -0.53671  -0.53598  -0.53227
 Alpha  occ. eigenvalues --   -0.53199  -0.53137  -0.52873  -0.52757  -0.52515
 Alpha  occ. eigenvalues --   -0.52370  -0.52231  -0.51975  -0.51950  -0.51628
 Alpha  occ. eigenvalues --   -0.51426  -0.51361  -0.51104  -0.51072  -0.50932
 Alpha  occ. eigenvalues --   -0.50787  -0.50663  -0.50518  -0.50493  -0.50424
 Alpha  occ. eigenvalues --   -0.50290  -0.49643  -0.49524  -0.49173  -0.49090
 Alpha  occ. eigenvalues --   -0.49068  -0.48954  -0.48733  -0.48723  -0.48580
 Alpha  occ. eigenvalues --   -0.48256  -0.48179  -0.47963  -0.47750  -0.47684
 Alpha  occ. eigenvalues --   -0.47459  -0.47367  -0.47253  -0.46897  -0.46553
 Alpha  occ. eigenvalues --   -0.46533  -0.46507  -0.46475  -0.46245  -0.46002
 Alpha  occ. eigenvalues --   -0.45985  -0.45642  -0.45602  -0.45567  -0.45429
 Alpha  occ. eigenvalues --   -0.45217  -0.45177  -0.44995  -0.44976  -0.44903
 Alpha  occ. eigenvalues --   -0.44871  -0.44516  -0.44479  -0.44328  -0.43998
 Alpha  occ. eigenvalues --   -0.43961  -0.43766  -0.43660  -0.43553  -0.43415
 Alpha  occ. eigenvalues --   -0.43379  -0.43097  -0.42804  -0.42600  -0.42479
 Alpha  occ. eigenvalues --   -0.42178  -0.42019  -0.41121  -0.41097  -0.40841
 Alpha  occ. eigenvalues --   -0.40463  -0.40038  -0.39842  -0.39663  -0.39333
 Alpha  occ. eigenvalues --   -0.39312  -0.39082  -0.38996  -0.38385  -0.38313
 Alpha  occ. eigenvalues --   -0.37914  -0.37663  -0.36594  -0.36359  -0.35750
 Alpha  occ. eigenvalues --   -0.35559  -0.35369  -0.35212  -0.33752  -0.33611
 Alpha  occ. eigenvalues --   -0.33029  -0.32675  -0.32627  -0.32054  -0.32013
 Alpha  occ. eigenvalues --   -0.31702  -0.31550  -0.31504  -0.26241  -0.25735
 Alpha  occ. eigenvalues --   -0.23388  -0.22848
 Alpha virt. eigenvalues --   -0.07531  -0.06998  -0.00609   0.00295   0.02302
 Alpha virt. eigenvalues --    0.02472   0.04250   0.04450   0.04639   0.05823
 Alpha virt. eigenvalues --    0.06478   0.07012   0.07440   0.07800   0.07923

 Mulliken charges:
               1
     1  Mg   0.948399
     2  C   -0.025436
     3  C   -0.065323
     4  C   -0.063930
     5  C   -0.102344
     6  N   -0.370807
     7  C   -0.015893
     8  C   -0.028407
     9  C   -0.134490
    10  C    0.098590
    11  C    0.020634
    12  C   -0.030027
    13  C   -0.123658
    14  H    0.053544
    15  N   -0.508297
    16  C    0.144461
    17  C   -0.142101
    18  C   -0.082475
    19  C    0.113036
    20  C    0.033126
    21  C    0.056529
    22  O   -0.199135
    23  C   -0.018011
    24  N   -0.306850
    25  C    0.065537
    26  C   -0.068758
    27  C   -0.048031
    28  C    0.007324
    29  C    0.036420
    30  C   -0.047571
    31  C   -0.031069
    32  N   -0.393394
    33  C    0.166219
    34  C   -0.184921
    35  C   -0.031387
    36  C    0.105857
    37  C    0.061926
    38  C    0.130849
    39  O   -0.210224
    40  C   -0.060714
    41  C    0.252852
    42  O   -0.228664
    43  O   -0.379448
    44  C    0.117899
    45  H   -0.017343
    46  H    0.026215
    47  H   -0.005165
    48  H    0.048790
    49  H    0.042188
    50  H    0.042691
    51  H    0.050110
    52  H    0.032128
    53  H    0.030182
    54  H    0.046389
    55  H    0.034870
    56  H    0.055838
    57  H    0.037140
    58  H    0.055350
    59  H    0.058300
    60  H    0.064558
    61  H    0.073676
    62  H    0.037388
    63  H    0.039928
    64  H    0.035219
    65  H    0.044171
    66  H    0.034852
    67  H    0.041321
    68  H    0.023717
    69  H    0.022418
    70  H    0.035753
    71  H    0.033340
    72  H    0.037198
    73  H    0.045458
    74  H    0.051373
    75  H    0.052635
    76  H    0.070910
    77  H    0.051482
    78  H    0.068793
    79  H    0.086292
    80  Mg   0.953270
    81  C    0.048356
    82  C   -0.057423
    83  C   -0.121874
    84  C   -0.096223
    85  N   -0.342824
    86  C   -0.024038
    87  C   -0.029549
    88  C   -0.145874
    89  C    0.045754
    90  C    0.012170
    91  C    0.023778
    92  C   -0.137385
    93  H    0.039220
    94  N   -0.537402
    95  C    0.202036
    96  C   -0.171457
    97  C   -0.064068
    98  C    0.269806
    99  C    0.097564
   100  C   -0.011467
   101  O   -0.239010
   102  C    0.006773
   103  N   -0.368858
   104  C    0.069672
   105  C   -0.083372
   106  C   -0.081657
   107  C    0.063015
   108  C    0.032036
   109  C    0.003042
   110  C   -0.018642
   111  N   -0.406994
   112  C    0.111791
   113  C   -0.185387
   114  C   -0.015246
   115  C    0.112690
   116  C    0.089647
   117  C    0.108543
   118  O   -0.187642
   119  C   -0.127730
   120  C    0.253643
   121  O   -0.269048
   122  O   -0.361185
   123  C    0.148998
   124  H    0.001507
   125  H   -0.005744
   126  H   -0.002766
   127  H    0.049525
   128  H    0.042580
   129  H    0.038420
   130  H    0.051709
   131  H    0.032387
   132  H    0.051888
   133  H    0.051987
   134  H    0.064232
   135  H    0.053295
   136  H    0.001010
   137  H    0.057470
   138  H    0.064835
   139  H    0.039548
   140  H    0.062498
   141  H    0.058229
   142  H    0.032800
   143  H    0.027072
   144  H    0.034032
   145  H    0.045459
   146  H    0.027831
   147  H    0.039417
   148  H    0.020001
   149  H    0.027130
   150  H    0.029223
   151  H    0.034571
   152  H    0.036183
   153  H    0.067928
   154  H    0.051128
   155  H    0.050917
   156  H    0.058133
   157  H    0.047282
   158  H    0.050832
 Sum of Mulliken charges =  -0.00000

 Dipole moment (field-independent basis, Debye):
    X=              3.1727    Y=             -4.5752    Z=             -0.4032  Tot=              5.5822
 Quadrupole moment (field-independent basis, Debye-Ang):
   XX=           -452.4266   YY=           -572.8302   ZZ=           -477.2449
   XY=            153.3671   XZ=             39.0757   YZ=              4.3403

 Normal termination of Gaussian 16 at Sun Sep 19 02:16:06 2021.
