 Gaussian 16, Revision A.03,
 Gaussian 16:  ES64L-G16RevA.03 25-Dec-2016

 --------------------------------
 #p wB97XD/Def2SVP td=(nstates=5)
 --------------------------------

 --------------------------------
 TDDFT excited states in gaussian
 --------------------------------
 Symbolic Z-matrix:
 Charge =  0 Multiplicity = 1

                         Standard orientation:
 ---------------------------------------------------------------------
 Center     Atomic      Atomic             Coordinates (Angstroms)
 Number     Number       Type             X           Y           Z
 ---------------------------------------------------------------------
      1         12           0       -9.183836   -0.371473   -0.147919
      2          6           0       -7.513483    2.475249    0.936512
      3          6           0      -11.096712    1.748452   -2.116801
      4          6           0      -11.158766   -3.053897   -0.833841
      5          6           0       -7.277917   -2.277833    2.017528
      6          7           0       -9.321504    1.866490   -0.496902
      7          6           0       -8.506579    2.857551    0.028749
      8          6           0       -8.920573    4.319079   -0.403014
      9          6           0      -10.286578    4.007411   -1.128664
     10          6           0      -10.278000    2.437868   -1.235008
     11          6           0      -11.621273    4.459582   -0.528966
     12          6           0       -7.822151    4.969437   -1.263905
     13          6           0       -7.006831    6.062731   -0.625063
     14          1           0       -6.596734    7.239781   -1.527803
     15          7           0      -10.765937   -0.704817   -1.445789
     16          6           0      -11.315543    0.290996   -2.191420
     17          6           0      -12.413234   -0.344070   -2.946509
     18          6           0      -12.528617   -1.681615   -2.536814
     19          6           0      -11.493394   -1.894223   -1.601425
     20          6           0      -13.111263    0.381337   -4.024435
     21          6           0      -13.529191   -2.729930   -2.926461
     22          8           0      -13.450843   -3.936082   -2.562221
     23          6           0      -14.689351   -2.469482   -3.719343
     24          7           0       -9.168598   -2.344830    0.418192
     25          6           0      -10.062382   -3.276751   -0.012177
     26          6           0       -9.842132   -4.619515    0.564995
     27          6           0       -8.556283   -4.409924    1.442770
     28          6           0       -8.369871   -2.943396    1.331591
     29          6           0      -10.935365   -5.400149    1.352386
     30          6           0       -7.296904   -5.331335    1.053664
     31          6           0       -6.284051   -4.957149   -0.068946
     32          7           0       -7.730709   -0.046536    1.238849
     33          6           0       -7.019533   -0.914030    2.016936
     34          6           0       -5.958836   -0.247157    2.636140
     35          6           0       -6.196362    1.136982    2.283269
     36          6           0       -7.266863    1.185927    1.412740
     37          6           0       -4.828552   -0.847678    3.469965
     38          6           0       -5.605584    2.438553    2.407304
     39          8           0       -4.585289    2.868020    2.906204
     40          6           0       -6.611488    3.411662    1.698191
     41          6           0       -7.336731    4.207343    2.708425
     42          8           0       -8.556311    4.135122    2.976123
     43          8           0       -6.562398    5.067493    3.405285
     44          6           0       -7.205817    6.098964    4.288675
     45          1           0      -11.736072    2.426946   -2.684293
     46          1           0      -11.775442   -3.942646   -0.984394
     47          1           0       -6.528488   -2.830956    2.588374
     48          1           0       -9.302075    4.902414    0.435660
     49          1           0      -10.182805    4.422327   -2.131201
     50          1           0      -12.186874    3.596510   -0.177020
     51          1           0      -12.224130    4.808400   -1.366115
     52          1           0      -11.552359    5.203381    0.265583
     53          1           0       -8.354933    5.440882   -2.090560
     54          1           0       -7.208276    4.174358   -1.687114
     55          1           0       -6.091706    5.606949   -0.246112
     56          1           0       -7.445515    6.520120    0.261869
     57          1           0      -12.893924   -0.187843   -4.927338
     58          1           0      -12.878747    1.431170   -4.207619
     59          1           0      -14.186516    0.347214   -3.849216
     60          1           0      -15.110447   -1.549565   -3.314570
     61          1           0      -15.309208   -3.361164   -3.803698
     62          1           0      -14.414729   -2.169882   -4.730772
     63          1           0       -9.612518   -5.163328   -0.350862
     64          1           0       -8.800273   -4.597331    2.487788
     65          1           0      -11.251005   -6.302698    0.828977
     66          1           0      -11.838213   -4.800418    1.472543
     67          1           0      -10.639776   -5.650875    2.371078
     68          1           0       -7.784541   -6.245550    0.714586
     69          1           0       -6.847205   -5.474378    2.036332
     70          1           0       -6.386812   -3.951163   -0.474982
     71          1           0       -6.153150   -5.694553   -0.861417
     72          1           0       -5.318717   -5.025868    0.430841
     73          1           0       -4.776459   -0.404356    4.464927
     74          1           0       -3.889374   -0.590427    2.980473
     75          1           0       -4.837239   -1.936381    3.528663
     76          1           0       -6.019676    4.164714    1.177550
     77          1           0       -6.324701    6.728303    4.414628
     78          1           0       -7.601971    5.719284    5.229911
     79          1           0       -8.016855    6.589714    3.749748
     80         12           0        8.592897   -0.914219   -0.569315
     81          6           0       11.107516    1.564507   -0.681054
     82          6           0        6.265511    1.416720   -0.412960
     83          6           0        6.411306   -3.346992    0.428235
     84          6           0       11.301957   -3.275393    0.303064
     85          7           0        8.730944    1.257361   -0.494685
     86          6           0        9.795951    2.029684   -0.792280
     87          6           0        9.314309    3.465712   -1.077622
     88          6           0        7.821342    3.410864   -1.019444
     89          6           0        7.547865    1.942418   -0.573873
     90          6           0        7.192757    4.590579   -0.170661
     91          6           0        9.863206    4.198941   -2.347049
     92          6           0        8.976947    5.203006   -3.201686
     93          1           0        9.601965    6.532700   -3.648546
     94          7           0        6.560752   -0.970554   -0.308039
     95          6           0        5.753600    0.144440   -0.289182
     96          6           0        4.398825   -0.301552   -0.128656
     97          6           0        4.374497   -1.720026    0.167688
     98          6           0        5.815082   -2.057249    0.157068
     99          6           0        3.329856    0.714824   -0.123039
    100          6           0        3.185623   -2.691102    0.372696
    101          8           0        3.383798   -3.827099    0.653295
    102          6           0        1.802524   -2.285542   -0.020643
    103          7           0        8.865276   -3.005992    0.306469
    104          6           0        7.756086   -3.760769    0.473274
    105          6           0        8.100109   -5.222597    0.903609
    106          6           0        9.657738   -5.234060    0.831734
    107          6           0       10.003910   -3.766527    0.477731
    108          6           0        7.588832   -5.641131    2.256480
    109          6           0       10.345149   -6.227585   -0.168949
    110          6           0       10.376621   -5.892446   -1.621799
    111          7           0       10.755523   -0.986164   -0.245400
    112          6           0       11.645009   -1.984729    0.030577
    113          6           0       12.988056   -1.465894   -0.059399
    114          6           0       12.868762   -0.077747   -0.332374
    115          6           0       11.481938    0.168633   -0.389269
    116          6           0       14.259997   -2.167323    0.263612
    117          6           0       13.572460    1.158216   -0.523710
    118          8           0       14.761587    1.451333   -0.571946
    119          6           0       12.468199    2.272725   -0.808030
    120          6           0       12.649258    3.518442    0.042808
    121          8           0       12.535631    3.535220    1.241285
    122          8           0       12.912458    4.599919   -0.782783
    123          6           0       13.138336    5.845580   -0.048844
    124          1           0        5.424651    2.098555   -0.558849
    125          1           0        5.646760   -4.081914    0.687610
    126          1           0       12.110990   -3.992638    0.455673
    127          1           0        9.780067    3.956859   -0.223242
    128          1           0        7.448749    3.598114   -2.026901
    129          1           0        7.975221    5.300990    0.095610
    130          1           0        6.624146    4.142415    0.644112
    131          1           0        6.534457    5.209326   -0.780775
    132          1           0       10.181173    3.420060   -3.040551
    133          1           0       10.779089    4.750430   -2.133023
    134          1           0        8.107187    5.394138   -2.572808
    135          1           0        8.617648    4.687143   -4.092211
    136          1           0        2.600163    0.365692    0.607199
    137          1           0        2.857230    0.684606   -1.104065
    138          1           0        3.532540    1.765474    0.085363
    139          1           0        1.412785   -1.869160    0.907324
    140          1           0        1.288782   -3.145596   -0.451236
    141          1           0        1.746532   -1.457126   -0.727169
    142          1           0        7.797569   -5.949557    0.149618
    143          1           0       10.238423   -5.352203    1.746046
    144          1           0        6.878848   -4.916065    2.656467
    145          1           0        8.386164   -5.704260    2.997477
    146          1           0        7.103430   -6.603961    2.098909
    147          1           0        9.878051   -7.209199   -0.088508
    148          1           0       11.337965   -6.452228    0.221516
    149          1           0        9.571670   -5.195538   -1.855990
    150          1           0       10.221846   -6.659636   -2.380786
    151          1           0       11.383880   -5.514105   -1.798991
    152          1           0       14.331715   -2.538617    1.285506
    153          1           0       15.010865   -1.379908    0.333616
    154          1           0       14.494562   -2.939823   -0.469251
    155          1           0       12.565871    2.519131   -1.865503
    156          1           0       12.206423    6.250242   -0.442454
    157          1           0       14.031408    6.254182   -0.521081
    158          1           0       13.193035    5.704846    1.030863
 ---------------------------------------------------------------------

 SCF Done:  E(RwB97XD) =  -4070.60005523     A.U. after   20 cycles

 Excitation energies and oscillator strengths:

 Excited State   1:      Singlet-A      1.6323 eV  759.57 nm  f=0.7073  <S**2>=0.000
     309 -> 316       -0.12141
     310 -> 315        0.14076
     311 -> 313        0.46045
     312 -> 314        0.50427
 This state for optimization and/or second-order correction.
 Total Energy, E(TD-HF/TD-DFT) =  -4070.54006961
 Copying the excited state density for this state as the 1-particle RhoCI density.

 Excited State   2:      Singlet-A      1.6536 eV  749.79 nm  f=0.0935  <S**2>=0.000
     309 -> 316       -0.13680
     310 -> 315       -0.13184
     311 -> 313        0.50400
     312 -> 314       -0.45871

 Excited State   3:      Singlet-A      2.1323 eV  581.46 nm  f=0.0818  <S**2>=0.000
     310 -> 314        0.63755
     312 -> 315       -0.28417

 Excited State   4:      Singlet-A      2.1517 eV  576.21 nm  f=0.1529  <S**2>=0.000
     309 -> 313        0.64609
     311 -> 316        0.26327

 Excited State   5:      Singlet-A      3.4160 eV  362.95 nm  f=0.0000  <S**2>=0.000
     312 -> 313        0.70663

 The electronic state is 1-A.
 Alpha  occ. eigenvalues --  -46.96224 -46.94050 -19.29887 -19.29435 -19.24855
 Alpha  occ. eigenvalues --  -19.24494 -19.23576 -19.23474 -19.23364 -19.23142
 Alpha  occ. eigenvalues --  -14.46768 -14.46690 -14.46619 -14.46268 -14.44319
 Alpha  occ. eigenvalues --  -14.43995 -14.43283 -14.43124 -10.42866 -10.42530
 Alpha  occ. eigenvalues --  -10.39579 -10.38710 -10.38612 -10.38385 -10.35910
 Alpha  occ. eigenvalues --  -10.35569 -10.35171 -10.35027 -10.34948 -10.34903
 Alpha  occ. eigenvalues --  -10.34866 -10.34846 -10.34663 -10.34649 -10.34299
 Alpha  occ. eigenvalues --  -10.34255 -10.34241 -10.33509 -10.33372 -10.33085
 Alpha  occ. eigenvalues --  -10.32914 -10.32711 -10.32700 -10.32682 -10.32443
 Alpha  occ. eigenvalues --  -10.32440 -10.32398 -10.32212 -10.32053 -10.32035
 Alpha  occ. eigenvalues --  -10.31961 -10.31950 -10.31900 -10.31777 -10.31583
 Alpha  occ. eigenvalues --  -10.31554 -10.31552 -10.31524 -10.31493 -10.31314
 Alpha  occ. eigenvalues --  -10.31260 -10.31233 -10.31216 -10.31033 -10.30966
 Alpha  occ. eigenvalues --  -10.30956 -10.30939 -10.30759 -10.30656 -10.30634
 Alpha  occ. eigenvalues --  -10.30393 -10.30340 -10.30305 -10.30276 -10.30147
 Alpha  occ. eigenvalues --  -10.30120 -10.30004 -10.29975 -10.29901 -10.29675
 Alpha  occ. eigenvalues --  -10.29644 -10.29169 -10.28870 -10.28832 -10.28801
 Alpha  occ. eigenvalues --  -10.28704  -3.22018  -3.20177  -1.95571  -1.95141
 Alpha  occ. eigenvalues --   -1.94967  -1.93782  -1.93311  -1.93157  -1.18359
 Alpha  occ. eigenvalues --   -1.17458  -1.15021  -1.11965  -1.11339  -1.10644
 Alpha  occ. eigenvalues --   -1.10290  -1.07427  -1.07045  -1.06280  -1.06105
 Alpha  occ. eigenvalues --   -1.05421  -1.05027  -1.04452  -1.04404  -1.03764
 Alpha  occ. eigenvalues --   -0.95247  -0.93465  -0.91066  -0.91044  -0.90643
 Alpha  occ. eigenvalues --   -0.90486  -0.90348  -0.90077  -0.89696  -0.89192
 Alpha  occ. eigenvalues --   -0.89096  -0.88989  -0.88220  -0.87924  -0.86450
 Alpha  occ. eigenvalues --   -0.85786  -0.85726  -0.85485  -0.84880  -0.84493
 Alpha  occ. eigenvalues --   -0.84329  -0.83795  -0.83090  -0.82676  -0.82657
 Alpha  occ. eigenvalues --   -0.82259  -0.80692  -0.80129  -0.79572  -0.78951
 Alpha  occ. eigenvalues --   -0.78945  -0.78913  -0.78293  -0.77693  -0.77388
 Alpha  occ. eigenvalues --   -0.76493  -0.75258  -0.74205  -0.73475  -0.73321
 Alpha  occ. eigenvalues --   -0.72167  -0.71623  -0.71099  -0.70898  -0.70148
 Alpha  occ. eigenvalues --   -0.70100  -0.69264  -0.68819  -0.67289  -0.67182
 Alpha  occ. eigenvalues --   -0.66816  -0.66788  -0.66534  -0.66137  -0.65980
 Alpha  occ. eigenvalues --   -0.65896  -0.63642  -0.63588  -0.62112  -0.61921
 Alpha  occ. eigenvalues --   -0.61782  -0.61396  -0.61317  -0.60756  -0.60684
 Alpha  occ. eigenvalues --   -0.60210  -0.59895  -0.59872  -0.59450  -0.59275
 Alpha  occ. eigenvalues --   -0.58306  -0.57940  -0.57729  -0.57716  -0.57224
 Alpha  occ. eigenvalues --   -0.57033  -0.56897  -0.56496  -0.56419  -0.55944
 Alpha  occ. eigenvalues --   -0.55902  -0.55543  -0.55354  -0.55170  -0.54987
 Alpha  occ. eigenvalues --   -0.54620  -0.54611  -0.54536  -0.54200  -0.54117
 Alpha  occ. eigenvalues --   -0.53970  -0.53566  -0.53185  -0.53031  -0.52969
 Alpha  occ. eigenvalues --   -0.52744  -0.52651  -0.52454  -0.52406  -0.52251
 Alpha  occ. eigenvalues --   -0.52113  -0.51865  -0.51834  -0.51717  -0.51522
 Alpha  occ. eigenvalues --   -0.51316  -0.51084  -0.51013  -0.50872  -0.50829
 Alpha  occ. eigenvalues --   -0.50560  -0.50523  -0.50411  -0.50239  -0.50176
 Alpha  occ. eigenvalues --   -0.50001  -0.49858  -0.49517  -0.49326  -0.49059
 Alpha  occ. eigenvalues --   -0.48970  -0.48867  -0.48630  -0.48616  -0.48324
 Alpha  occ. eigenvalues --   -0.48094  -0.47857  -0.47763  -0.47649  -0.47465
 Alpha  occ. eigenvalues --   -0.47357  -0.47351  -0.47264  -0.47250  -0.46867
 Alpha  occ. eigenvalues --   -0.46456  -0.46393  -0.46345  -0.46140  -0.46059
 Alpha  occ. eigenvalues --   -0.46006  -0.45899  -0.45862  -0.45532  -0.45511
 Alpha  occ. eigenvalues --   -0.45464  -0.45116  -0.45004  -0.44865  -0.44845
 Alpha  occ. eigenvalues --   -0.44796  -0.44543  -0.44413  -0.44226  -0.43868
 Alpha  occ. eigenvalues --   -0.43684  -0.43658  -0.43578  -0.43311  -0.43196
 Alpha  occ. eigenvalues --   -0.42849  -0.42694  -0.42401  -0.42366  -0.42150
 Alpha  occ. eigenvalues --   -0.41934  -0.41740  -0.40995  -0.40994  -0.40761
 Alpha  occ. eigenvalues --   -0.40293  -0.39985  -0.39942  -0.39747  -0.39224
 Alpha  occ. eigenvalues --   -0.39017  -0.38893  -0.38704  -0.38554  -0.37822
 Alpha  occ. eigenvalues --   -0.37776  -0.37562  -0.36496  -0.36472  -0.35616
 Alpha  occ. eigenvalues --   -0.35456  -0.35262  -0.34928  -0.33646  -0.33377
 Alpha  occ. eigenvalues --   -0.32921  -0.32691  -0.32527  -0.32324  -0.32123
 Alpha  occ. eigenvalues --   -0.31895  -0.31668  -0.31398  -0.25722  -0.25629
 Alpha  occ. eigenvalues --   -0.23082  -0.22740
 Alpha virt. eigenvalues --   -0.07214  -0.06887   0.00401   0.00449   0.02578
 Alpha virt. eigenvalues --    0.02582   0.04292   0.04344   0.04746   0.06443
 Alpha virt. eigenvalues --    0.07110   0.07302   0.07896   0.07897   0.08258

 Mulliken charges:
               1
     1  Mg   0.983606
     2  C   -0.026864
     3  C   -0.065167
     4  C   -0.072075
     5  C   -0.099283
     6  N   -0.335844
     7  C   -0.019261
     8  C   -0.046043
     9  C   -0.130735
    10  C    0.025771
    11  C    0.037354
    12  C    0.055335
    13  C   -0.143826
    14  H    0.038184
    15  N   -0.481673
    16  C    0.183520
    17  C   -0.191450
    18  C   -0.022409
    19  C    0.131747
    20  C    0.056858
    21  C    0.038639
    22  O   -0.280825
    23  C    0.024382
    24  N   -0.375160
    25  C    0.076491
    26  C   -0.094378
    27  C   -0.055124
    28  C    0.063402
    29  C    0.027527
    30  C   -0.032315
    31  C   -0.043855
    32  N   -0.452463
    33  C    0.130636
    34  C   -0.170039
    35  C   -0.056615
    36  C    0.215745
    37  C    0.092583
    38  C    0.090860
    39  O   -0.191184
    40  C   -0.123462
    41  C    0.263286
    42  O   -0.290448
    43  O   -0.357221
    44  C    0.146654
    45  H   -0.008810
    46  H    0.021959
    47  H   -0.013268
    48  H    0.038578
    49  H    0.026765
    50  H    0.047804
    51  H    0.032322
    52  H    0.052489
    53  H    0.035952
    54  H    0.046415
    55  H    0.064377
    56  H    0.053029
    57  H    0.057406
    58  H    0.043378
    59  H    0.035998
    60  H    0.042771
    61  H    0.066961
    62  H    0.043836
    63  H    0.047401
    64  H    0.036559
    65  H    0.044927
    66  H    0.039312
    67  H    0.036594
    68  H    0.035604
    69  H    0.040620
    70  H    0.055612
    71  H    0.040656
    72  H    0.029149
    73  H    0.061169
    74  H    0.051642
    75  H    0.025146
    76  H    0.055694
    77  H    0.065894
    78  H    0.067392
    79  H    0.053808
    80  Mg   0.948124
    81  C   -0.025420
    82  C   -0.065009
    83  C   -0.064268
    84  C   -0.102550
    85  N   -0.370739
    86  C   -0.016083
    87  C   -0.028169
    88  C   -0.134816
    89  C    0.098669
    90  C    0.020632
    91  C   -0.029939
    92  C   -0.123578
    93  H    0.053199
    94  N   -0.508261
    95  C    0.144325
    96  C   -0.141620
    97  C   -0.082594
    98  C    0.113294
    99  C    0.032536
   100  C    0.056721
   101  O   -0.199815
   102  C   -0.018378
   103  N   -0.306790
   104  C    0.065844
   105  C   -0.068812
   106  C   -0.047958
   107  C    0.007155
   108  C    0.036468
   109  C   -0.047467
   110  C   -0.030967
   111  N   -0.393500
   112  C    0.166262
   113  C   -0.185255
   114  C   -0.031436
   115  C    0.105764
   116  C    0.061981
   117  C    0.130739
   118  O   -0.210578
   119  C   -0.060712
   120  C    0.252744
   121  O   -0.228607
   122  O   -0.379459
   123  C    0.117904
   124  H   -0.016652
   125  H    0.025902
   126  H   -0.005490
   127  H    0.048800
   128  H    0.042171
   129  H    0.042537
   130  H    0.050836
   131  H    0.032403
   132  H    0.030001
   133  H    0.046232
   134  H    0.035140
   135  H    0.055683
   136  H    0.039075
   137  H    0.055392
   138  H    0.059551
   139  H    0.065790
   140  H    0.072428
   141  H    0.038065
   142  H    0.039622
   143  H    0.035122
   144  H    0.044341
   145  H    0.034812
   146  H    0.040938
   147  H    0.023404
   148  H    0.022304
   149  H    0.035800
   150  H    0.033035
   151  H    0.037188
   152  H    0.045260
   153  H    0.051204
   154  H    0.052351
   155  H    0.070722
   156  H    0.051569
   157  H    0.068582
   158  H    0.086302
 Sum of Mulliken charges =  -0.00000

 Dipole moment (field-independent basis, Debye):
    X=             -6.8321    Y=              1.0378    Z=             -4.9302  Tot=              8.4889
 Quadrupole moment (field-independent basis, Debye-Ang):
   XX=           -582.5817   YY=           -461.4299   ZZ=           -502.9153
   XY=            -47.2743   XZ=              4.3010   YZ=            -18.7105

 Normal termination of Gaussian 16 at Sat Sep 18 19:12:52 2021.
