 Gaussian 16, Revision A.03,
 Gaussian 16:  ES64L-G16RevA.03 25-Dec-2016

 --------------------------------
 #p wB97XD/Def2SVP td=(nstates=5)
 --------------------------------

 --------------------------------
 TDDFT excited states in gaussian
 --------------------------------
 Symbolic Z-matrix:
 Charge =  0 Multiplicity = 1

                         Standard orientation:
 ---------------------------------------------------------------------
 Center     Atomic      Atomic             Coordinates (Angstroms)
 Number     Number       Type             X           Y           Z
 ---------------------------------------------------------------------
      1         12           0       12.707759   -0.691502   -0.340022
      2          6           0       14.980605    1.910403    0.057065
      3          6           0       10.169503    1.465273    0.465238
      4          6           0       10.574671   -3.347817   -0.430324
      5          6           0       15.520868   -2.791298   -0.897343
      6          7           0       12.591200    1.422590    0.230402
      7          6           0       13.649659    2.291746    0.198555
      8          6           0       13.078289    3.681061    0.492375
      9          6           0       11.635297    3.454531    0.906781
     10          6           0       11.441110    2.008213    0.465840
     11          6           0       11.214380    3.710869    2.328964
     12          6           0       13.273499    4.767635   -0.669303
     13          6           0       12.508514    6.116505   -0.476959
     14          1           0       13.230992    7.282219    0.247749
     15          7           0       10.646242   -0.855984   -0.167048
     16          6           0        9.783128    0.125549    0.195127
     17          6           0        8.479744   -0.480871    0.275824
     18          6           0        8.609387   -1.877721    0.020453
     19          6           0        9.970339   -2.098757   -0.182775
     20          6           0        7.276865    0.348655    0.604074
     21          6           0        7.480253   -2.943572    0.128524
     22          8           0        7.727240   -4.131360    0.236813
     23          6           0        6.068323   -2.612127    0.230850
     24          7           0       13.010491   -2.644761   -0.612904
     25          6           0       11.981730   -3.584950   -0.662171
     26          6           0       12.493574   -5.003107   -0.968864
     27          6           0       13.978943   -4.720153   -1.378529
     28          6           0       14.165282   -3.267066   -0.973955
     29          6           0       12.181521   -6.047259    0.021729
     30          6           0       14.463222   -5.042551   -2.898942
     31          6           0       15.601516   -6.033174   -3.161246
     32          7           0       14.896986   -0.521619   -0.361503
     33          6           0       15.856336   -1.468854   -0.585616
     34          6           0       17.162301   -0.903796   -0.527844
     35          6           0       16.871959    0.501753   -0.341850
     36          6           0       15.468214    0.648552   -0.159870
     37          6           0       18.413062   -1.666291   -0.747535
     38          6           0       17.479077    1.812341   -0.304707
     39          8           0       18.610463    2.225147   -0.468005
     40          6           0       16.206781    2.807807   -0.021662
     41          6           0       16.471076    3.717502    1.122193
     42          8           0       16.585260    3.341597    2.268224
     43          8           0       16.555417    5.005910    0.747050
     44          6           0       16.565251    6.047263    1.845068
     45          1           0        9.350961    2.159271    0.668612
     46          1           0        9.870726   -4.182263   -0.446733
     47          1           0       16.238499   -3.585101   -1.115751
     48          1           0       13.700719    3.960926    1.342178
     49          1           0       10.989495    4.126937    0.342611
     50          1           0       11.101105    2.679890    2.662744
     51          1           0       10.316800    4.325665    2.397412
     52          1           0       12.024125    4.116696    2.935742
     53          1           0       12.880353    4.232786   -1.534128
     54          1           0       14.333073    4.986898   -0.795552
     55          1           0       11.599702    5.983663    0.108655
     56          1           0       12.199199    6.466618   -1.461758
     57          1           0        7.402436    1.428068    0.694475
     58          1           0        6.966953    0.030452    1.598914
     59          1           0        6.425645    0.143450   -0.045392
     60          1           0        5.734556   -1.859275    0.944193
     61          1           0        5.395077   -3.460626    0.352173
     62          1           0        5.843660   -2.279933   -0.782479
     63          1           0       11.908397   -5.170407   -1.873532
     64          1           0       14.479044   -5.306841   -0.608114
     65          1           0       11.531309   -6.859789   -0.303618
     66          1           0       11.706637   -5.557900    0.872493
     67          1           0       13.054143   -6.587218    0.389039
     68          1           0       14.773213   -4.098673   -3.346980
     69          1           0       13.709427   -5.401624   -3.600655
     70          1           0       16.557420   -5.576586   -3.419232
     71          1           0       15.347580   -6.856596   -3.828172
     72          1           0       15.847248   -6.501578   -2.208092
     73          1           0       18.354214   -2.595592   -0.181427
     74          1           0       19.305493   -1.088813   -0.507812
     75          1           0       18.374844   -2.062177   -1.762892
     76          1           0       16.133312    3.437908   -0.907453
     77          1           0       16.997449    6.907679    1.334696
     78          1           0       17.184546    5.683158    2.664577
     79          1           0       15.523063    6.241422    2.098964
     80         12           0      -13.006169   -0.610715    0.380467
     81          6           0      -13.573215    2.460883   -1.212803
     82          6           0      -11.670420    1.126809    3.035837
     83          6           0      -12.454223   -3.515639    1.846227
     84          6           0      -14.255819   -2.215863   -2.483895
     85          7           0      -12.767940    1.544878    0.832237
     86          6           0      -13.040271    2.664338    0.045687
     87          6           0      -12.988804    4.021239    0.851807
     88          6           0      -12.254766    3.529845    2.084457
     89          6           0      -12.224715    1.947764    2.001619
     90          6           0      -10.736860    4.026953    2.074225
     91          6           0      -14.515181    4.326128    1.191277
     92          6           0      -14.999574    5.836681    1.058266
     93          1           0      -13.868822    6.765694    1.419376
     94          7           0      -12.066836   -1.101080    2.078449
     95          6           0      -11.586710   -0.295946    3.022029
     96          6           0      -11.055980   -1.017133    4.148480
     97          6           0      -11.424930   -2.359020    3.928487
     98          6           0      -11.971772   -2.391753    2.519856
     99          6           0      -10.358278   -0.424816    5.317702
    100          6           0      -11.408575   -3.549394    4.865188
    101          8           0      -11.996726   -4.607885    4.616035
    102          6           0      -10.550968   -3.511242    6.133118
    103          7           0      -13.280265   -2.607265   -0.283468
    104          6           0      -13.013162   -3.614666    0.613334
    105          6           0      -13.504714   -4.932730    0.018812
    106          6           0      -14.213789   -4.512458   -1.359554
    107          6           0      -13.976113   -3.025468   -1.386198
    108          6           0      -12.319433   -5.959137   -0.053458
    109          6           0      -15.667446   -4.921356   -1.538695
    110          6           0      -15.945505   -5.687289   -2.869937
    111          7           0      -13.736197   -0.010725   -1.473433
    112          6           0      -14.201762   -0.795344   -2.574913
    113          6           0      -14.571797    0.044211   -3.657828
    114          6           0      -14.336382    1.331075   -3.145200
    115          6           0      -13.788607    1.219458   -1.850393
    116          6           0      -15.130849   -0.287640   -5.003850
    117          6           0      -14.419913    2.728555   -3.426340
    118          8           0      -14.760003    3.350472   -4.405269
    119          6           0      -14.027712    3.495742   -2.131977
    120          6           0      -13.055077    4.563063   -2.480922
    121          8           0      -11.884120    4.427321   -2.824239
    122          8           0      -13.679639    5.730194   -2.296200
    123          6           0      -12.896848    6.931810   -2.495483
    124          1           0      -11.352032    1.548867    3.991185
    125          1           0      -12.235146   -4.443488    2.380573
    126          1           0      -14.708051   -2.669060   -3.368590
    127          1           0      -12.592276    4.750456    0.146006
    128          1           0      -12.785619    3.835412    2.985459
    129          1           0      -10.493424    4.601763    1.180457
    130          1           0      -10.090377    3.150763    2.119832
    131          1           0      -10.648242    4.618998    2.985187
    132          1           0      -14.793612    4.050914    2.208114
    133          1           0      -15.103518    3.676301    0.542918
    134          1           0      -15.718541    6.078516    1.841106
    135          1           0      -15.578951    5.992599    0.147892
    136          1           0      -11.021899   -0.556839    6.173350
    137          1           0      -10.197250    0.644250    5.186056
    138          1           0       -9.399191   -0.894877    5.533136
    139          1           0      -10.479596   -4.579849    6.334508
    140          1           0      -10.992406   -2.938960    6.949893
    141          1           0       -9.511523   -3.202150    6.024688
    142          1           0      -14.252700   -5.465595    0.605830
    143          1           0      -13.643942   -4.944858   -2.182095
    144          1           0      -12.720584   -6.897151    0.330512
    145          1           0      -11.423066   -5.639368    0.478025
    146          1           0      -12.128344   -6.270288   -1.081156
    147          1           0      -16.376385   -4.096527   -1.474055
    148          1           0      -15.816062   -5.693900   -0.782924
    149          1           0      -15.013616   -5.901265   -3.393541
    150          1           0      -16.451926   -5.055603   -3.599458
    151          1           0      -16.472677   -6.623646   -2.685949
    152          1           0      -16.157626   -0.549337   -4.746732
    153          1           0      -14.501352   -1.076525   -5.414961
    154          1           0      -15.178494    0.579232   -5.661411
    155          1           0      -14.949464    4.014377   -1.865008
    156          1           0      -12.432814    6.914313   -3.482017
    157          1           0      -12.046091    7.080262   -1.829589
    158          1           0      -13.598449    7.763334   -2.426560
 ---------------------------------------------------------------------

 SCF Done:  E(RwB97XD) =  -4070.63627003     A.U. after   19 cycles

 Excitation energies and oscillator strengths:

 Excited State   1:      Singlet-A      1.6385 eV  756.70 nm  f=0.4109  <S**2>=0.000
     309 -> 315       -0.18441
     312 -> 313        0.68282
     309 <- 315       -0.11758
 This state for optimization and/or second-order correction.
 Total Energy, E(TD-HF/TD-DFT) =  -4070.57605644
 Copying the excited state density for this state as the 1-particle RhoCI density.

 Excited State   2:      Singlet-A      1.6809 eV  737.61 nm  f=0.3712  <S**2>=0.000
     310 -> 316        0.16560
     311 -> 314        0.68484
     310 <- 316        0.10518

 Excited State   3:      Singlet-A      2.1629 eV  573.23 nm  f=0.0896  <S**2>=0.000
     309 -> 313        0.63064
     312 -> 315        0.30292

 Excited State   4:      Singlet-A      2.2343 eV  554.92 nm  f=0.1199  <S**2>=0.000
     310 -> 314        0.63517
     311 -> 316       -0.28436

 Excited State   5:      Singlet-A      3.2555 eV  380.85 nm  f=0.0003  <S**2>=0.000
     305 -> 313       -0.22649
     308 -> 313        0.64173

 The electronic state is 1-A.
 Alpha  occ. eigenvalues --  -46.94227 -46.94188 -19.30521 -19.29639 -19.25082
 Alpha  occ. eigenvalues --  -19.24109 -19.23802 -19.23722 -19.23203 -19.22450
 Alpha  occ. eigenvalues --  -14.47337 -14.46925 -14.46616 -14.46298 -14.44928
 Alpha  occ. eigenvalues --  -14.43692 -14.43098 -14.43029 -10.42215 -10.41801
 Alpha  occ. eigenvalues --  -10.40343 -10.39555 -10.38678 -10.37168 -10.36075
 Alpha  occ. eigenvalues --  -10.35865 -10.35665 -10.35218 -10.35163 -10.35140
 Alpha  occ. eigenvalues --  -10.35124 -10.34816 -10.34815 -10.34532 -10.34450
 Alpha  occ. eigenvalues --  -10.34125 -10.33865 -10.33748 -10.33597 -10.33363
 Alpha  occ. eigenvalues --  -10.33034 -10.32990 -10.32937 -10.32580 -10.32472
 Alpha  occ. eigenvalues --  -10.32458 -10.32239 -10.32208 -10.32178 -10.32111
 Alpha  occ. eigenvalues --  -10.31899 -10.31705 -10.31672 -10.31634 -10.31580
 Alpha  occ. eigenvalues --  -10.31499 -10.31487 -10.31320 -10.31235 -10.31198
 Alpha  occ. eigenvalues --  -10.31196 -10.31172 -10.31162 -10.31136 -10.31003
 Alpha  occ. eigenvalues --  -10.30972 -10.30955 -10.30917 -10.30899 -10.30758
 Alpha  occ. eigenvalues --  -10.30667 -10.30620 -10.30233 -10.30196 -10.30130
 Alpha  occ. eigenvalues --  -10.30024 -10.30019 -10.29995 -10.29683 -10.29653
 Alpha  occ. eigenvalues --  -10.29602 -10.29398 -10.29332 -10.29311 -10.29293
 Alpha  occ. eigenvalues --  -10.27614  -3.20306  -3.20304  -1.93915  -1.93913
 Alpha  occ. eigenvalues --   -1.93430  -1.93416  -1.93311  -1.93282  -1.19340
 Alpha  occ. eigenvalues --   -1.18018  -1.13201  -1.12697  -1.11740  -1.11605
 Alpha  occ. eigenvalues --   -1.09323  -1.08927  -1.07238  -1.07153  -1.06133
 Alpha  occ. eigenvalues --   -1.05971  -1.05341  -1.04987  -1.04427  -1.04418
 Alpha  occ. eigenvalues --   -0.94666  -0.94402  -0.91685  -0.91075  -0.90580
 Alpha  occ. eigenvalues --   -0.90483  -0.90363  -0.90281  -0.89961  -0.89500
 Alpha  occ. eigenvalues --   -0.89010  -0.88921  -0.88655  -0.88653  -0.86538
 Alpha  occ. eigenvalues --   -0.85949  -0.85605  -0.85491  -0.84566  -0.84378
 Alpha  occ. eigenvalues --   -0.84326  -0.83841  -0.83347  -0.83283  -0.82714
 Alpha  occ. eigenvalues --   -0.82385  -0.80986  -0.80768  -0.79720  -0.79402
 Alpha  occ. eigenvalues --   -0.79202  -0.78744  -0.77840  -0.77577  -0.77102
 Alpha  occ. eigenvalues --   -0.76982  -0.75155  -0.74775  -0.73802  -0.73460
 Alpha  occ. eigenvalues --   -0.71306  -0.71242  -0.70853  -0.70839  -0.70234
 Alpha  occ. eigenvalues --   -0.69679  -0.69400  -0.68938  -0.67545  -0.67443
 Alpha  occ. eigenvalues --   -0.67373  -0.67233  -0.67065  -0.66619  -0.66557
 Alpha  occ. eigenvalues --   -0.66210  -0.64501  -0.63428  -0.62899  -0.62536
 Alpha  occ. eigenvalues --   -0.61708  -0.61609  -0.61221  -0.60967  -0.60821
 Alpha  occ. eigenvalues --   -0.60674  -0.59971  -0.59778  -0.59349  -0.59236
 Alpha  occ. eigenvalues --   -0.58735  -0.58338  -0.57756  -0.57646  -0.57373
 Alpha  occ. eigenvalues --   -0.57296  -0.56721  -0.56493  -0.56431  -0.55817
 Alpha  occ. eigenvalues --   -0.55769  -0.55568  -0.55222  -0.55108  -0.54910
 Alpha  occ. eigenvalues --   -0.54624  -0.54549  -0.54546  -0.54231  -0.54119
 Alpha  occ. eigenvalues --   -0.54035  -0.53746  -0.53287  -0.53254  -0.53094
 Alpha  occ. eigenvalues --   -0.52920  -0.52772  -0.52761  -0.52458  -0.52407
 Alpha  occ. eigenvalues --   -0.52286  -0.52268  -0.52019  -0.51845  -0.51619
 Alpha  occ. eigenvalues --   -0.51387  -0.51273  -0.51260  -0.51053  -0.50913
 Alpha  occ. eigenvalues --   -0.50684  -0.50562  -0.50555  -0.50514  -0.50182
 Alpha  occ. eigenvalues --   -0.49882  -0.49650  -0.49630  -0.49526  -0.49379
 Alpha  occ. eigenvalues --   -0.49168  -0.49052  -0.48782  -0.48717  -0.48529
 Alpha  occ. eigenvalues --   -0.48512  -0.48507  -0.48382  -0.48180  -0.48075
 Alpha  occ. eigenvalues --   -0.48024  -0.47282  -0.47079  -0.47031  -0.47004
 Alpha  occ. eigenvalues --   -0.46742  -0.46691  -0.46550  -0.46455  -0.46331
 Alpha  occ. eigenvalues --   -0.46303  -0.46191  -0.45927  -0.45731  -0.45660
 Alpha  occ. eigenvalues --   -0.45654  -0.45286  -0.45057  -0.44967  -0.44797
 Alpha  occ. eigenvalues --   -0.44654  -0.44612  -0.44344  -0.43984  -0.43930
 Alpha  occ. eigenvalues --   -0.43731  -0.43617  -0.43471  -0.43223  -0.43081
 Alpha  occ. eigenvalues --   -0.42828  -0.42768  -0.42365  -0.42294  -0.42105
 Alpha  occ. eigenvalues --   -0.42044  -0.41690  -0.41446  -0.41191  -0.40794
 Alpha  occ. eigenvalues --   -0.40704  -0.40255  -0.39758  -0.39682  -0.39438
 Alpha  occ. eigenvalues --   -0.39215  -0.38958  -0.38897  -0.38523  -0.38395
 Alpha  occ. eigenvalues --   -0.38288  -0.38073  -0.36294  -0.36224  -0.36046
 Alpha  occ. eigenvalues --   -0.35949  -0.35036  -0.34977  -0.34379  -0.33646
 Alpha  occ. eigenvalues --   -0.33263  -0.33189  -0.33183  -0.32229  -0.31908
 Alpha  occ. eigenvalues --   -0.31746  -0.31375  -0.31221  -0.26129  -0.26122
 Alpha  occ. eigenvalues --   -0.22946  -0.22933
 Alpha virt. eigenvalues --   -0.07163  -0.06996   0.00033   0.00163   0.02466
 Alpha virt. eigenvalues --    0.02674   0.04826   0.04895   0.06389   0.06479
 Alpha virt. eigenvalues --    0.07337   0.07924   0.08042   0.08363   0.08437

 Mulliken charges:
               1
     1  Mg   0.970101
     2  C    0.027128
     3  C   -0.088561
     4  C   -0.071898
     5  C   -0.105503
     6  N   -0.331524
     7  C   -0.006808
     8  C   -0.044290
     9  C   -0.151653
    10  C    0.059733
    11  C    0.050745
    12  C    0.000383
    13  C   -0.115569
    14  H    0.029102
    15  N   -0.488265
    16  C    0.172454
    17  C   -0.166692
    18  C   -0.057396
    19  C    0.125973
    20  C    0.053248
    21  C    0.071546
    22  O   -0.233779
    23  C   -0.004464
    24  N   -0.422860
    25  C    0.060805
    26  C   -0.086722
    27  C   -0.053574
    28  C    0.048553
    29  C    0.042991
    30  C   -0.002792
    31  C   -0.069038
    32  N   -0.374028
    33  C    0.159988
    34  C   -0.166766
    35  C   -0.076230
    36  C    0.113043
    37  C    0.102519
    38  C    0.145462
    39  O   -0.193117
    40  C   -0.138734
    41  C    0.241337
    42  O   -0.254420
    43  O   -0.372465
    44  C    0.133508
    45  H   -0.016253
    46  H    0.028732
    47  H    0.001734
    48  H    0.035296
    49  H    0.021918
    50  H    0.039104
    51  H    0.043536
    52  H    0.038529
    53  H    0.034575
    54  H    0.060903
    55  H    0.043644
    56  H    0.059218
    57  H    0.039676
    58  H    0.049660
    59  H    0.047361
    60  H    0.056399
    61  H    0.050080
    62  H    0.049988
    63  H    0.038479
    64  H    0.031762
    65  H    0.040584
    66  H    0.046653
    67  H    0.027913
    68  H    0.036150
    69  H    0.035601
    70  H    0.039404
    71  H    0.045808
    72  H    0.018487
    73  H    0.034812
    74  H    0.072739
    75  H    0.044414
    76  H    0.067477
    77  H    0.062695
    78  H    0.081990
    79  H    0.059459
    80  Mg   0.983713
    81  C    0.006587
    82  C   -0.113628
    83  C   -0.075848
    84  C   -0.074235
    85  N   -0.350907
    86  C   -0.049205
    87  C   -0.050295
    88  C   -0.097843
    89  C    0.098249
    90  C    0.023327
    91  C    0.001770
    92  C   -0.114941
    93  H    0.031835
    94  N   -0.466388
    95  C    0.154068
    96  C   -0.174410
    97  C   -0.070113
    98  C    0.137754
    99  C    0.077839
   100  C    0.062708
   101  O   -0.243419
   102  C   -0.045499
   103  N   -0.390021
   104  C    0.116203
   105  C   -0.106947
   106  C   -0.048722
   107  C    0.073263
   108  C    0.009909
   109  C    0.001400
   110  C   -0.071400
   111  N   -0.414193
   112  C    0.082155
   113  C   -0.193434
   114  C   -0.037881
   115  C    0.139168
   116  C    0.088199
   117  C    0.083188
   118  O   -0.205317
   119  C   -0.074239
   120  C    0.226295
   121  O   -0.257016
   122  O   -0.333885
   123  C    0.142527
   124  H   -0.000143
   125  H    0.028482
   126  H   -0.007962
   127  H    0.049638
   128  H    0.040117
   129  H    0.051850
   130  H    0.043380
   131  H    0.040165
   132  H    0.031043
   133  H    0.043388
   134  H    0.042878
   135  H    0.062699
   136  H    0.053320
   137  H    0.040931
   138  H    0.058322
   139  H    0.058696
   140  H    0.065548
   141  H    0.052749
   142  H    0.043336
   143  H    0.032361
   144  H    0.027773
   145  H    0.060772
   146  H    0.025943
   147  H    0.049386
   148  H    0.028244
   149  H    0.020841
   150  H    0.037439
   151  H    0.045869
   152  H    0.054337
   153  H    0.052853
   154  H    0.061495
   155  H    0.067138
   156  H    0.054616
   157  H    0.045030
   158  H    0.057096
 Sum of Mulliken charges =  -0.00000

 Dipole moment (field-independent basis, Debye):
    X=             -4.9466    Y=             -0.3085    Z=              3.9276  Tot=              6.3237
 Quadrupole moment (field-independent basis, Debye-Ang):
   XX=           -653.9554   YY=           -468.8358   ZZ=           -512.1014
   XY=            -14.4706   XZ=            -89.7807   YZ=             44.9189

 Normal termination of Gaussian 16 at Mon Sep 20 04:06:38 2021.
