 Gaussian 16, Revision A.03,
 Gaussian 16:  ES64L-G16RevA.03 25-Dec-2016

 --------------------------------
 #p wB97XD/Def2SVP td=(nstates=5)
 --------------------------------

 --------------------------------
 TDDFT excited states in gaussian
 --------------------------------
 Symbolic Z-matrix:
 Charge =  0 Multiplicity = 1

                         Standard orientation:
 ---------------------------------------------------------------------
 Center     Atomic      Atomic             Coordinates (Angstroms)
 Number     Number       Type             X           Y           Z
 ---------------------------------------------------------------------
      1         12           0      -28.177208   -0.194650   -0.408608
      2          6           0      -25.061175    0.937990    0.574763
      3          6           0      -27.592686   -3.163599    1.445171
      4          6           0      -31.442122   -1.138084   -0.847284
      5          6           0      -28.920782    2.877188   -1.801417
      6          7           0      -26.449191   -1.026554    0.739529
      7          6           0      -25.316442   -0.320645    1.086427
      8          6           0      -24.417027   -1.043085    2.158236
      9          6           0      -25.035885   -2.519441    2.118872
     10          6           0      -26.455250   -2.298894    1.351117
     11          6           0      -24.197547   -3.690013    1.477504
     12          6           0      -24.454111   -0.450048    3.522729
     13          6           0      -23.195251    0.101749    4.163803
     14          1           0      -23.142513    0.051458    5.699201
     15          7           0      -29.336073   -1.974283    0.140060
     16          6           0      -28.839069   -3.077103    0.859890
     17          6           0      -29.843621   -4.089409    0.939599
     18          6           0      -31.065721   -3.441011    0.395750
     19          6           0      -30.671168   -2.100657   -0.138063
     20          6           0      -29.679961   -5.404333    1.708960
     21          6           0      -32.427281   -4.157406    0.416038
     22          8           0      -32.676449   -5.267642    0.876923
     23          6           0      -33.631124   -3.326345    0.145100
     24          7           0      -30.065992    0.838339   -1.083335
     25          6           0      -31.185778    0.141560   -1.320444
     26          6           0      -32.273130    1.164848   -1.644933
     27          6           0      -31.495019    2.499182   -2.061478
     28          6           0      -30.018038    2.062571   -1.651848
     29          6           0      -33.112453    0.669716   -2.875684
     30          6           0      -31.905518    3.885396   -1.414611
     31          6           0      -32.502737    4.991870   -2.271151
     32          7           0      -27.160305    1.581986   -0.667796
     33          6           0      -27.573424    2.761931   -1.294325
     34          6           0      -26.548518    3.754915   -1.188154
     35          6           0      -25.509496    3.108244   -0.450036
     36          6           0      -25.960792    1.751043   -0.215521
     37          6           0      -26.555919    5.161290   -1.698824
     38          6           0      -24.210882    3.211610    0.075434
     39          8           0      -23.463608    4.168640    0.039681
     40          6           0      -23.891677    1.861030    0.826133
     41          6           0      -22.532112    1.432384    0.462117
     42          8           0      -21.568916    1.540291    1.212607
     43          8           0      -22.518966    0.931323   -0.831043
     44          6           0      -21.169155    0.521323   -1.279292
     45          1           0      -27.512187   -4.131145    1.944134
     46          1           0      -32.437599   -1.553360   -1.020002
     47          1           0      -29.190075    3.853771   -2.208814
     48          1           0      -23.386780   -1.071822    1.805166
     49          1           0      -25.311089   -2.764660    3.145283
     50          1           0      -23.178349   -3.323087    1.356668
     51          1           0      -24.581020   -4.054297    0.524340
     52          1           0      -24.257171   -4.533929    2.163769
     53          1           0      -24.757563   -1.252658    4.196604
     54          1           0      -25.151583    0.386598    3.545197
     55          1           0      -23.144627    1.164716    3.929730
     56          1           0      -22.289466   -0.420409    3.856417
     57          1           0      -28.782447   -5.613765    2.290516
     58          1           0      -29.865745   -6.143820    0.930412
     59          1           0      -30.607418   -5.473982    2.276457
     60          1           0      -33.991246   -3.215504   -0.876804
     61          1           0      -33.574998   -2.349957    0.626602
     62          1           0      -34.463898   -3.845844    0.620593
     63          1           0      -32.940814    1.354650   -0.804224
     64          1           0      -31.451379    2.584661   -3.146681
     65          1           0      -34.161704    0.750146   -2.591634
     66          1           0      -32.895398   -0.343641   -3.215814
     67          1           0      -32.949149    1.264477   -3.774696
     68          1           0      -30.984591    4.238053   -0.950777
     69          1           0      -32.687037    3.638979   -0.694519
     70          1           0      -32.288260    5.913642   -1.729789
     71          1           0      -33.585812    4.870353   -2.298842
     72          1           0      -32.139193    5.153482   -3.285401
     73          1           0      -25.590581    5.584224   -1.419475
     74          1           0      -27.413028    5.662294   -1.249892
     75          1           0      -26.637958    5.262441   -2.781166
     76          1           0      -23.869345    2.153542    1.876456
     77          1           0      -20.662034    1.360145   -1.755941
     78          1           0      -21.318673   -0.358842   -1.904597
     79          1           0      -20.559169    0.160806   -0.451501
     80         12           0       27.952867    0.451898   -0.385830
     81          6           0       25.898548   -2.240775   -0.074230
     82          6           0       25.259692    2.519469    0.604344
     83          6           0       30.174511    2.837855    0.339219
     84          6           0       30.759511   -1.772305   -0.853052
     85          7           0       25.869927    0.131677    0.153048
     86          6           0       25.212787   -0.977128    0.239301
     87          6           0       23.664829   -0.770980    0.401964
     88          6           0       23.460863    0.789901    0.323100
     89          6           0       24.962204    1.240716    0.324388
     90          6           0       22.518717    1.298369   -0.768988
     91          6           0       23.080970   -1.498157    1.753715
     92          6           0       24.037410   -1.782046    2.900620
     93          1           0       23.506125   -2.035120    4.311491
     94          7           0       27.731394    2.405504    0.377507
     95          6           0       26.574210    3.093641    0.652791
     96          6           0       26.887950    4.366593    1.139155
     97          6           0       28.329854    4.500941    1.121442
     98          6           0       28.831401    3.190673    0.629612
     99          6           0       25.798452    5.389596    1.403482
    100          6           0       29.085709    5.768176    1.560323
    101          8           0       28.408164    6.741756    1.959663
    102          6           0       30.510131    5.936853    1.556211
    103          7           0       30.230799    0.485477   -0.115068
    104          6           0       30.800847    1.652375   -0.011897
    105          6           0       32.343262    1.595030   -0.202794
    106          6           0       32.536326    0.126178   -0.638891
    107          6           0       31.085442   -0.501122   -0.570515
    108          6           0       32.875618    2.540177   -1.218669
    109          6           0       33.616241   -0.650100    0.252533
    110          6           0       34.969590   -1.039410   -0.472718
    111          7           0       28.326717   -1.566505   -0.575654
    112          6           0       29.469229   -2.346379   -0.794422
    113          6           0       29.054501   -3.779782   -0.902750
    114          6           0       27.689711   -3.747567   -0.583043
    115          6           0       27.288175   -2.397385   -0.357951
    116          6           0       29.862243   -4.949319   -1.192321
    117          6           0       26.618417   -4.609152   -0.372655
    118          8           0       26.476074   -5.837907   -0.455940
    119          6           0       25.392582   -3.684038   -0.127746
    120          6           0       24.315219   -4.023196   -1.185167
    121          8           0       23.149624   -4.321767   -0.988215
    122          8           0       24.807310   -3.952802   -2.470543
    123          6           0       23.893273   -4.290643   -3.568108
    124          1           0       24.383562    3.064718    0.961049
    125          1           0       30.934929    3.618649    0.403801
    126          1           0       31.587548   -2.412600   -1.163877
    127          1           0       23.212796   -1.137127   -0.520216
    128          1           0       23.084754    1.203023    1.259550
    129          1           0       23.082575    1.881865   -1.496531
    130          1           0       21.743039    1.954221   -0.371969
    131          1           0       21.939506    0.534366   -1.287637
    132          1           0       22.619442   -2.389931    1.328993
    133          1           0       22.323371   -0.931980    2.295981
    134          1           0       24.675803   -0.898971    2.907901
    135          1           0       24.655722   -2.610859    2.555393
    136          1           0       25.828199    6.356599    0.900692
    137          1           0       25.704784    5.525593    2.481156
    138          1           0       24.837567    4.962674    1.116834
    139          1           0       31.028225    5.868775    0.599796
    140          1           0       30.990246    5.114232    2.085244
    141          1           0       30.848085    6.818917    2.099239
    142          1           0       32.984011    1.816558    0.650609
    143          1           0       32.782306    0.019601   -1.695480
    144          1           0       33.386020    3.413799   -0.813537
    145          1           0       32.060290    3.037933   -1.744845
    146          1           0       33.547033    2.019500   -1.901260
    147          1           0       33.187941   -1.612897    0.534537
    148          1           0       33.979905   -0.087318    1.111193
    149          1           0       35.813352   -0.782306    0.166413
    150          1           0       35.081947   -0.388845   -1.340133
    151          1           0       34.928787   -2.124084   -0.574009
    152          1           0       30.651796   -4.575496   -1.844632
    153          1           0       29.276141   -5.699526   -1.724356
    154          1           0       30.148559   -5.367151   -0.227612
    155          1           0       24.798539   -3.978222    0.737204
    156          1           0       24.489246   -4.608628   -4.423773
    157          1           0       23.264276   -3.499684   -3.976253
    158          1           0       23.143432   -5.036547   -3.302909
 ---------------------------------------------------------------------

 SCF Done:  E(RwB97XD) =  -4070.56113502     A.U. after   20 cycles

 Excitation energies and oscillator strengths:

 Excited State   1:      Singlet-A      1.6548 eV  749.26 nm  f=0.4206  <S**2>=0.000
     309 -> 316       -0.16629
     312 -> 314        0.68655
     309 <- 316       -0.11150
 This state for optimization and/or second-order correction.
 Total Energy, E(TD-HF/TD-DFT) =  -4070.50032404
 Copying the excited state density for this state as the 1-particle RhoCI density.

 Excited State   2:      Singlet-A      1.6654 eV  744.49 nm  f=0.3912  <S**2>=0.000
     310 -> 315        0.17865
     311 -> 313        0.68421
     310 <- 315        0.11348

 Excited State   3:      Singlet-A      2.1184 eV  585.28 nm  f=0.1561  <S**2>=0.000
     310 -> 313        0.64907
     311 -> 315       -0.25656

 Excited State   4:      Singlet-A      2.1980 eV  564.07 nm  f=0.1158  <S**2>=0.000
     309 -> 314        0.64043
     312 -> 316        0.27522

 Excited State   5:      Singlet-A      3.0630 eV  404.78 nm  f=0.0077  <S**2>=0.000
     307 -> 313        0.68067

 The electronic state is 1-A.
 Alpha  occ. eigenvalues --  -46.96828 -46.96671 -19.30343 -19.30171 -19.25097
 Alpha  occ. eigenvalues --  -19.24774 -19.24203 -19.24122 -19.23298 -19.22389
 Alpha  occ. eigenvalues --  -14.48162 -14.47809 -14.46562 -14.46500 -14.45181
 Alpha  occ. eigenvalues --  -14.44711 -14.44426 -14.44376 -10.43634 -10.42977
 Alpha  occ. eigenvalues --  -10.39311 -10.38803 -10.38160 -10.38153 -10.37282
 Alpha  occ. eigenvalues --  -10.37076 -10.36234 -10.35917 -10.35762 -10.35691
 Alpha  occ. eigenvalues --  -10.35332 -10.35281 -10.35237 -10.34793 -10.34748
 Alpha  occ. eigenvalues --  -10.34697 -10.34615 -10.34560 -10.34481 -10.34106
 Alpha  occ. eigenvalues --  -10.34092 -10.33867 -10.33534 -10.33523 -10.33364
 Alpha  occ. eigenvalues --  -10.33033 -10.32947 -10.32923 -10.32780 -10.32753
 Alpha  occ. eigenvalues --  -10.32739 -10.32582 -10.32555 -10.32394 -10.32347
 Alpha  occ. eigenvalues --  -10.32341 -10.32332 -10.32312 -10.32224 -10.31922
 Alpha  occ. eigenvalues --  -10.31735 -10.31597 -10.31546 -10.31332 -10.31146
 Alpha  occ. eigenvalues --  -10.31126 -10.31072 -10.31059 -10.30966 -10.30873
 Alpha  occ. eigenvalues --  -10.30849 -10.30844 -10.30795 -10.30740 -10.30255
 Alpha  occ. eigenvalues --  -10.30170 -10.30073 -10.29996 -10.29888 -10.29858
 Alpha  occ. eigenvalues --  -10.29735 -10.29713 -10.29462 -10.29341 -10.28902
 Alpha  occ. eigenvalues --  -10.28769  -3.22544  -3.22524  -1.96134  -1.96105
 Alpha  occ. eigenvalues --   -1.95695  -1.95614  -1.95485  -1.95474  -1.18354
 Alpha  occ. eigenvalues --   -1.17694  -1.12341  -1.11959  -1.11368  -1.09760
 Alpha  occ. eigenvalues --   -1.09682  -1.09607  -1.07060  -1.06806  -1.06516
 Alpha  occ. eigenvalues --   -1.06067  -1.05724  -1.04646  -1.04233  -1.03818
 Alpha  occ. eigenvalues --   -0.95054  -0.94547  -0.91614  -0.91479  -0.91289
 Alpha  occ. eigenvalues --   -0.91261  -0.90912  -0.90332  -0.90053  -0.89687
 Alpha  occ. eigenvalues --   -0.89659  -0.89089  -0.87846  -0.87193  -0.86562
 Alpha  occ. eigenvalues --   -0.86451  -0.86067  -0.85732  -0.84831  -0.84828
 Alpha  occ. eigenvalues --   -0.84409  -0.84187  -0.83448  -0.82837  -0.82735
 Alpha  occ. eigenvalues --   -0.82268  -0.80447  -0.79793  -0.79342  -0.79147
 Alpha  occ. eigenvalues --   -0.78947  -0.78872  -0.78299  -0.78154  -0.77468
 Alpha  occ. eigenvalues --   -0.77219  -0.75505  -0.75409  -0.74295  -0.73945
 Alpha  occ. eigenvalues --   -0.71619  -0.71348  -0.70979  -0.70844  -0.70345
 Alpha  occ. eigenvalues --   -0.69998  -0.69105  -0.68824  -0.67948  -0.67634
 Alpha  occ. eigenvalues --   -0.67549  -0.67462  -0.67293  -0.66829  -0.66789
 Alpha  occ. eigenvalues --   -0.66544  -0.65357  -0.64988  -0.62892  -0.62311
 Alpha  occ. eigenvalues --   -0.61990  -0.61737  -0.61462  -0.61078  -0.60924
 Alpha  occ. eigenvalues --   -0.60527  -0.60012  -0.59804  -0.59231  -0.58911
 Alpha  occ. eigenvalues --   -0.58561  -0.58293  -0.57937  -0.57607  -0.57596
 Alpha  occ. eigenvalues --   -0.57413  -0.56742  -0.56699  -0.56486  -0.55844
 Alpha  occ. eigenvalues --   -0.55777  -0.55501  -0.55433  -0.55203  -0.55182
 Alpha  occ. eigenvalues --   -0.54809  -0.54788  -0.54701  -0.54596  -0.54404
 Alpha  occ. eigenvalues --   -0.54164  -0.54050  -0.53850  -0.53411  -0.53270
 Alpha  occ. eigenvalues --   -0.53255  -0.52844  -0.52840  -0.52605  -0.52358
 Alpha  occ. eigenvalues --   -0.52254  -0.52161  -0.51897  -0.51717  -0.51475
 Alpha  occ. eigenvalues --   -0.51453  -0.51184  -0.51162  -0.50922  -0.50848
 Alpha  occ. eigenvalues --   -0.50749  -0.50562  -0.50473  -0.50250  -0.50227
 Alpha  occ. eigenvalues --   -0.49839  -0.49794  -0.49561  -0.49339  -0.49150
 Alpha  occ. eigenvalues --   -0.49122  -0.48969  -0.48803  -0.48737  -0.48617
 Alpha  occ. eigenvalues --   -0.48522  -0.48103  -0.48093  -0.47930  -0.47851
 Alpha  occ. eigenvalues --   -0.47801  -0.47658  -0.47656  -0.47214  -0.47184
 Alpha  occ. eigenvalues --   -0.47101  -0.46966  -0.46828  -0.46657  -0.46536
 Alpha  occ. eigenvalues --   -0.46503  -0.46386  -0.46075  -0.45743  -0.45665
 Alpha  occ. eigenvalues --   -0.45573  -0.45571  -0.44979  -0.44750  -0.44702
 Alpha  occ. eigenvalues --   -0.44546  -0.44345  -0.44173  -0.44161  -0.44062
 Alpha  occ. eigenvalues --   -0.43889  -0.43595  -0.43436  -0.43415  -0.43246
 Alpha  occ. eigenvalues --   -0.42869  -0.42752  -0.42610  -0.42342  -0.41972
 Alpha  occ. eigenvalues --   -0.41894  -0.41758  -0.41632  -0.41378  -0.40975
 Alpha  occ. eigenvalues --   -0.40668  -0.40266  -0.40103  -0.39945  -0.39797
 Alpha  occ. eigenvalues --   -0.39415  -0.39205  -0.38811  -0.38794  -0.38507
 Alpha  occ. eigenvalues --   -0.38400  -0.37842  -0.36810  -0.36525  -0.36334
 Alpha  occ. eigenvalues --   -0.36315  -0.36242  -0.35479  -0.34006  -0.33791
 Alpha  occ. eigenvalues --   -0.33215  -0.33192  -0.33136  -0.32479  -0.32303
 Alpha  occ. eigenvalues --   -0.32015  -0.31848  -0.31129  -0.26865  -0.26550
 Alpha  occ. eigenvalues --   -0.23981  -0.23472
 Alpha virt. eigenvalues --   -0.08097  -0.07879  -0.00425   0.00034   0.01999
 Alpha virt. eigenvalues --    0.02056   0.03814   0.04321   0.04362   0.05466
 Alpha virt. eigenvalues --    0.07052   0.07197   0.07423   0.07613   0.08032

 Mulliken charges:
               1
     1  Mg   0.930443
     2  C    0.060652
     3  C   -0.053522
     4  C   -0.067702
     5  C   -0.064556
     6  N   -0.367893
     7  C   -0.017551
     8  C   -0.066903
     9  C   -0.122626
    10  C    0.087829
    11  C    0.030135
    12  C    0.037121
    13  C   -0.149351
    14  H    0.025285
    15  N   -0.454678
    16  C    0.135162
    17  C   -0.149549
    18  C   -0.136804
    19  C    0.177501
    20  C    0.084224
    21  C    0.092248
    22  O   -0.239809
    23  C   -0.062569
    24  N   -0.335432
    25  C    0.120369
    26  C   -0.138860
    27  C   -0.048776
    28  C    0.022525
    29  C    0.006351
    30  C   -0.011645
    31  C   -0.052423
    32  N   -0.425481
    33  C    0.118293
    34  C   -0.169482
    35  C   -0.018244
    36  C    0.076982
    37  C    0.078421
    38  C    0.069285
    39  O   -0.202366
    40  C   -0.060267
    41  C    0.246466
    42  O   -0.245733
    43  O   -0.384153
    44  C    0.134989
    45  H   -0.012749
    46  H   -0.019747
    47  H   -0.002595
    48  H    0.034899
    49  H    0.040603
    50  H    0.043295
    51  H    0.048383
    52  H    0.043018
    53  H    0.039675
    54  H    0.043311
    55  H    0.068907
    56  H    0.058997
    57  H    0.056925
    58  H    0.057830
    59  H    0.063775
    60  H    0.068464
    61  H    0.055835
    62  H    0.048628
    63  H    0.055225
    64  H    0.030152
    65  H    0.036213
    66  H    0.039794
    67  H    0.031083
    68  H    0.041429
    69  H    0.028828
    70  H    0.036993
    71  H    0.037555
    72  H    0.038383
    73  H    0.063002
    74  H    0.045529
    75  H    0.046935
    76  H    0.066587
    77  H    0.069709
    78  H    0.052478
    79  H    0.054745
    80  Mg   0.957332
    81  C    0.004216
    82  C   -0.071937
    83  C   -0.044135
    84  C   -0.099257
    85  N   -0.349525
    86  C    0.010970
    87  C   -0.050841
    88  C   -0.100548
    89  C    0.039583
    90  C    0.023927
    91  C   -0.030669
    92  C   -0.101583
    93  H    0.062366
    94  N   -0.458880
    95  C    0.154284
    96  C   -0.150870
    97  C   -0.094562
    98  C    0.205605
    99  C    0.091888
   100  C    0.063131
   101  O   -0.267819
   102  C    0.000050
   103  N   -0.297997
   104  C    0.010997
   105  C   -0.080680
   106  C   -0.046024
   107  C    0.048437
   108  C    0.002548
   109  C   -0.042794
   110  C   -0.065008
   111  N   -0.464721
   112  C    0.133577
   113  C   -0.171285
   114  C   -0.013263
   115  C    0.155673
   116  C    0.081401
   117  C    0.117904
   118  O   -0.220279
   119  C   -0.108090
   120  C    0.242650
   121  O   -0.244041
   122  O   -0.368871
   123  C    0.139763
   124  H    0.011759
   125  H   -0.042760
   126  H    0.000687
   127  H    0.052492
   128  H    0.038599
   129  H    0.039471
   130  H    0.034778
   131  H    0.041351
   132  H    0.057377
   133  H    0.041183
   134  H    0.052195
   135  H    0.036555
   136  H    0.060607
   137  H    0.046868
   138  H    0.000153
   139  H    0.063443
   140  H    0.040886
   141  H    0.054670
   142  H    0.045301
   143  H    0.032491
   144  H    0.028514
   145  H    0.031386
   146  H    0.039479
   147  H    0.036140
   148  H    0.041009
   149  H    0.033296
   150  H    0.036185
   151  H    0.047797
   152  H    0.043716
   153  H    0.066866
   154  H    0.074596
   155  H    0.058562
   156  H    0.052699
   157  H    0.037452
   158  H    0.061573
 Sum of Mulliken charges =  -0.00000

 Dipole moment (field-independent basis, Debye):
    X=              0.4667    Y=             -0.8611    Z=             -6.0235  Tot=              6.1026
 Quadrupole moment (field-independent basis, Debye-Ang):
   XX=           -104.7110   YY=           -585.7314   ZZ=           -499.7245
   XY=              0.6948   XZ=            -32.8069   YZ=            -14.1033

 Normal termination of Gaussian 16 at Mon Sep 20 05:35:42 2021.
