 Gaussian 16, Revision A.03,
 Gaussian 16:  ES64L-G16RevA.03 25-Dec-2016

 --------------------------------
 #p wB97XD/Def2SVP td=(nstates=5)
 --------------------------------

 --------------------------------
 TDDFT excited states in gaussian
 --------------------------------
 Symbolic Z-matrix:
 Charge =  0 Multiplicity = 1

                         Standard orientation:
 ---------------------------------------------------------------------
 Center     Atomic      Atomic             Coordinates (Angstroms)
 Number     Number       Type             X           Y           Z
 ---------------------------------------------------------------------
      1         12           0       -5.036688   -0.150784    1.036078
      2          6           0       -4.486935    3.147524   -0.256944
      3          6           0       -2.931292    0.652385    3.646395
      4          6           0       -5.060967   -3.319700    1.831432
      5          6           0       -6.935617   -0.767264   -1.796670
      6          7           0       -3.587541    1.660157    1.489680
      7          6           0       -3.686176    2.870549    0.858539
      8          6           0       -2.962437    3.954377    1.701700
      9          6           0       -2.399206    3.144319    2.943427
     10          6           0       -2.967448    1.695933    2.717052
     11          6           0       -0.826050    3.090347    3.142077
     12          6           0       -3.852338    5.142914    2.153656
     13          6           0       -3.297244    6.516065    2.018069
     14          1           0       -1.758366    6.821444    1.863836
     15          7           0       -4.101493   -1.253641    2.560747
     16          6           0       -3.373557   -0.746293    3.636714
     17          6           0       -2.927123   -1.870716    4.481383
     18          6           0       -3.656603   -3.026117    4.002922
     19          6           0       -4.306890   -2.572194    2.751701
     20          6           0       -1.982166   -1.782004    5.641298
     21          6           0       -3.764276   -4.463356    4.564698
     22          8           0       -4.648834   -5.288969    4.254517
     23          6           0       -2.858947   -4.830514    5.670885
     24          7           0       -5.811611   -1.746961    0.120177
     25          6           0       -5.612083   -3.001295    0.653646
     26          6           0       -6.496279   -4.061457   -0.059577
     27          6           0       -7.380651   -3.127524   -0.999018
     28          6           0       -6.686865   -1.781134   -0.885773
     29          6           0       -5.774925   -5.238120   -0.835066
     30          6           0       -8.858820   -3.009644   -0.662916
     31          6           0       -9.830282   -3.590158   -1.711885
     32          7           0       -5.773957    0.981008   -0.590064
     33          6           0       -6.511244    0.577920   -1.678212
     34          6           0       -6.670610    1.695156   -2.618244
     35          6           0       -5.935404    2.719374   -2.048311
     36          6           0       -5.408082    2.247542   -0.825526
     37          6           0       -7.380668    1.728182   -3.931270
     38          6           0       -5.583575    4.077355   -2.259985
     39          8           0       -5.944319    4.921470   -3.128810
     40          6           0       -4.663020    4.407239   -1.162477
     41          6           0       -3.385918    4.983129   -1.711806
     42          8           0       -2.559605    4.377203   -2.304001
     43          8           0       -3.284863    6.268195   -1.372895
     44          6           0       -2.328608    7.092160   -2.031046
     45          1           0       -2.268742    0.817859    4.498700
     46          1           0       -5.196032   -4.391391    1.997115
     47          1           0       -7.468747   -0.994515   -2.721308
     48          1           0       -2.158163    4.333168    1.069929
     49          1           0       -2.830041    3.532910    3.865693
     50          1           0       -0.250490    3.746776    2.490042
     51          1           0       -0.511380    2.082063    2.869002
     52          1           0       -0.568076    3.261818    4.187576
     53          1           0       -4.126944    5.089555    3.207796
     54          1           0       -4.788586    5.202907    1.599478
     55          1           0       -3.520224    7.092469    2.916432
     56          1           0       -3.800207    6.984410    1.172483
     57          1           0       -1.162797   -2.485363    5.494511
     58          1           0       -2.550446   -2.084303    6.520948
     59          1           0       -1.713221   -0.748464    5.861827
     60          1           0       -1.838947   -4.777868    5.290061
     61          1           0       -3.068375   -5.879890    5.876955
     62          1           0       -3.083326   -4.280573    6.584439
     63          1           0       -7.139540   -4.471244    0.719788
     64          1           0       -7.300740   -3.533588   -2.007347
     65          1           0       -4.693790   -5.138556   -0.745320
     66          1           0       -6.117875   -5.346364   -1.864745
     67          1           0       -6.099066   -6.170857   -0.373232
     68          1           0       -9.210470   -2.029031   -0.341917
     69          1           0       -9.024477   -3.617778    0.225748
     70          1           0      -10.709273   -2.993615   -1.955217
     71          1           0      -10.325088   -4.438881   -1.238958
     72          1           0       -9.384144   -3.851302   -2.670552
     73          1           0       -8.082498    0.902113   -4.049450
     74          1           0       -6.677351    1.532634   -4.740589
     75          1           0       -7.761737    2.742465   -4.049441
     76          1           0       -5.176758    5.155897   -0.559986
     77          1           0       -2.724800    7.277227   -3.030482
     78          1           0       -1.398064    6.550416   -2.201114
     79          1           0       -2.230141    8.056952   -1.532762
     80         12           0        4.168580   -1.085487   -1.091260
     81          6           0        6.803789    1.080252   -0.137712
     82          6           0        2.083126    1.700777   -0.765356
     83          6           0        1.628827   -2.922850   -2.067624
     84          6           0        6.254050   -3.815790   -0.556297
     85          7           0        4.465970    1.114261   -0.549327
     86          6           0        5.626786    1.797211   -0.346310
     87          6           0        5.482260    3.302405   -0.063638
     88          6           0        3.876162    3.392523   -0.168975
     89          6           0        3.482567    1.982400   -0.495816
     90          6           0        3.161295    3.852577    1.162745
     91          6           0        6.212992    4.195921   -1.118288
     92          6           0        7.437151    5.054247   -0.824184
     93          1           0        7.638905    6.402522   -1.503115
     94          7           0        2.134397   -0.680159   -1.461201
     95          6           0        1.444240    0.512374   -1.200209
     96          6           0        0.042095    0.262551   -1.449489
     97          6           0       -0.099193   -1.016762   -1.981486
     98          6           0        1.262192   -1.581904   -1.906757
     99          6           0       -0.912812    1.401821   -1.339111
    100          6           0       -1.334536   -1.793677   -2.435377
    101          8           0       -1.317869   -2.952251   -2.862102
    102          6           0       -2.610366   -1.049952   -2.495325
    103          7           0        3.901424   -3.094385   -1.197405
    104          6           0        2.829469   -3.653372   -1.836307
    105          6           0        3.127308   -5.135674   -2.245553
    106          6           0        4.516608   -5.376709   -1.669526
    107          6           0        4.914920   -4.020942   -1.022867
    108          6           0        2.016858   -6.142657   -1.800494
    109          6           0        5.468300   -5.828013   -2.787896
    110          6           0        6.392536   -6.958688   -2.515893
    111          7           0        6.093124   -1.386845   -0.380775
    112          6           0        6.824410   -2.539418   -0.242567
    113          6           0        8.155155   -2.263051    0.209574
    114          6           0        8.292196   -0.789096    0.191544
    115          6           0        6.971958   -0.326991   -0.192137
    116          6           0        9.220580   -3.312966    0.568585
    117          6           0        9.173553    0.384812    0.413740
    118          8           0       10.397467    0.440957    0.621701
    119          6           0        8.220628    1.631560    0.196739
    120          6           0        8.351736    2.292017    1.533515
    121          8           0        7.712692    2.077347    2.556408
    122          8           0        9.198732    3.283254    1.479542
    123          6           0        9.604432    3.973226    2.728118
    124          1           0        1.587059    2.673209   -0.774995
    125          1           0        0.868961   -3.653425   -2.351641
    126          1           0        6.913645   -4.680624   -0.462910
    127          1           0        5.805777    3.477485    0.963179
    128          1           0        3.443817    3.994541   -0.968795
    129          1           0        3.747276    3.812603    2.080559
    130          1           0        2.288232    3.227850    1.348086
    131          1           0        2.817858    4.878586    1.029365
    132          1           0        5.469276    4.903125   -1.485865
    133          1           0        6.557972    3.587165   -1.953087
    134          1           0        8.219137    4.432579   -1.260464
    135          1           0        7.408991    5.109047    0.264121
    136          1           0       -1.395138    1.621984   -2.290473
    137          1           0       -0.405801    2.308858   -1.009014
    138          1           0       -1.724003    1.217449   -0.635436
    139          1           0       -2.460814   -0.115210   -3.035839
    140          1           0       -2.922632   -0.678723   -1.519115
    141          1           0       -3.411609   -1.571509   -3.017887
    142          1           0        3.116767   -5.065767   -3.333135
    143          1           0        4.511438   -6.207060   -0.963612
    144          1           0        1.113818   -5.671179   -1.413049
    145          1           0        2.336034   -6.832966   -1.020540
    146          1           0        1.810786   -6.843348   -2.609475
    147          1           0        6.046476   -4.924898   -2.979131
    148          1           0        4.973792   -6.156768   -3.701611
    149          1           0        7.382274   -6.561072   -2.739206
    150          1           0        6.086648   -7.839965   -3.079621
    151          1           0        6.471550   -7.245561   -1.467071
    152          1           0        9.142944   -3.547326    1.629618
    153          1           0       10.198567   -2.907961    0.309006
    154          1           0        9.063546   -4.255404    0.043484
    155          1           0        8.676585    2.239591   -0.584395
    156          1           0        8.780573    4.446623    3.261084
    157          1           0       10.389003    4.717233    2.591670
    158          1           0       10.085306    3.363540    3.492453
 ---------------------------------------------------------------------

 SCF Done:  E(RwB97XD) =  -4070.61504833     A.U. after   20 cycles

 Excitation energies and oscillator strengths:

 Excited State   1:      Singlet-A      1.6492 eV  751.77 nm  f=0.3328  <S**2>=0.000
     309 -> 315        0.17780
     311 -> 313        0.68025
     309 <- 315        0.11352
 This state for optimization and/or second-order correction.
 Total Energy, E(TD-HF/TD-DFT) =  -4070.55444046
 Copying the excited state density for this state as the 1-particle RhoCI density.

 Excited State   2:      Singlet-A      1.7485 eV  709.08 nm  f=0.4591  <S**2>=0.000
     310 -> 316       -0.18205
     312 -> 314        0.67720
     310 <- 316       -0.10902

 Excited State   3:      Singlet-A      2.1514 eV  576.31 nm  f=0.0524  <S**2>=0.000
     309 -> 313        0.62108
     310 -> 314        0.18497
     311 -> 315       -0.25517

 Excited State   4:      Singlet-A      2.1854 eV  567.33 nm  f=0.1365  <S**2>=0.000
     309 -> 313       -0.18227
     310 -> 314        0.60376
     312 -> 316        0.28767

 Excited State   5:      Singlet-A      2.6141 eV  474.30 nm  f=0.0000  <S**2>=0.000
     312 -> 313        0.70456

 The electronic state is 1-A.
 Alpha  occ. eigenvalues --  -46.95895 -46.94470 -19.31180 -19.30277 -19.25775
 Alpha  occ. eigenvalues --  -19.24793 -19.24080 -19.23902 -19.23527 -19.22895
 Alpha  occ. eigenvalues --  -14.47373 -14.46810 -14.46805 -14.46067 -14.44998
 Alpha  occ. eigenvalues --  -14.44683 -14.43993 -14.43163 -10.43943 -10.42233
 Alpha  occ. eigenvalues --  -10.39424 -10.39381 -10.39244 -10.39094 -10.36421
 Alpha  occ. eigenvalues --  -10.36079 -10.35615 -10.35557 -10.35548 -10.35427
 Alpha  occ. eigenvalues --  -10.35210 -10.35153 -10.34832 -10.34758 -10.34486
 Alpha  occ. eigenvalues --  -10.34457 -10.34191 -10.34099 -10.34063 -10.34011
 Alpha  occ. eigenvalues --  -10.33544 -10.33361 -10.33207 -10.33039 -10.32993
 Alpha  occ. eigenvalues --  -10.32965 -10.32942 -10.32868 -10.32857 -10.32585
 Alpha  occ. eigenvalues --  -10.32351 -10.32329 -10.32289 -10.32190 -10.32182
 Alpha  occ. eigenvalues --  -10.31861 -10.31778 -10.31713 -10.31611 -10.31588
 Alpha  occ. eigenvalues --  -10.31580 -10.31565 -10.31383 -10.31324 -10.31290
 Alpha  occ. eigenvalues --  -10.31190 -10.30919 -10.30691 -10.30646 -10.30451
 Alpha  occ. eigenvalues --  -10.30361 -10.30336 -10.30192 -10.29897 -10.29889
 Alpha  occ. eigenvalues --  -10.29799 -10.29679 -10.29644 -10.29525 -10.29523
 Alpha  occ. eigenvalues --  -10.29480 -10.29456 -10.29289 -10.29128 -10.28839
 Alpha  occ. eigenvalues --  -10.28415  -3.21923  -3.20499  -1.95500  -1.95057
 Alpha  occ. eigenvalues --   -1.94890  -1.94092  -1.93625  -1.93474  -1.21825
 Alpha  occ. eigenvalues --   -1.19754  -1.12980  -1.11762  -1.11008  -1.10825
 Alpha  occ. eigenvalues --   -1.10238  -1.08429  -1.07520  -1.07140  -1.06351
 Alpha  occ. eigenvalues --   -1.05653  -1.05182  -1.04390  -1.04386  -1.02923
 Alpha  occ. eigenvalues --   -0.96315  -0.93420  -0.91518  -0.91051  -0.91050
 Alpha  occ. eigenvalues --   -0.90619  -0.90572  -0.90326  -0.90232  -0.89266
 Alpha  occ. eigenvalues --   -0.89229  -0.88773  -0.88303  -0.87186  -0.86625
 Alpha  occ. eigenvalues --   -0.85935  -0.85862  -0.85064  -0.84978  -0.84502
 Alpha  occ. eigenvalues --   -0.84497  -0.84100  -0.83930  -0.83013  -0.82417
 Alpha  occ. eigenvalues --   -0.82038  -0.80768  -0.80257  -0.79889  -0.79608
 Alpha  occ. eigenvalues --   -0.79083  -0.78742  -0.78538  -0.77790  -0.77585
 Alpha  occ. eigenvalues --   -0.76708  -0.75760  -0.74028  -0.73758  -0.73469
 Alpha  occ. eigenvalues --   -0.71915  -0.71322  -0.70786  -0.70040  -0.69812
 Alpha  occ. eigenvalues --   -0.69250  -0.68711  -0.68491  -0.68287  -0.67537
 Alpha  occ. eigenvalues --   -0.67505  -0.67417  -0.67082  -0.66897  -0.66489
 Alpha  occ. eigenvalues --   -0.65821  -0.65755  -0.64063  -0.62972  -0.62465
 Alpha  occ. eigenvalues --   -0.62282  -0.61877  -0.61808  -0.61097  -0.60719
 Alpha  occ. eigenvalues --   -0.60580  -0.60306  -0.60128  -0.59465  -0.59241
 Alpha  occ. eigenvalues --   -0.59184  -0.58635  -0.58135  -0.58011  -0.57401
 Alpha  occ. eigenvalues --   -0.57241  -0.56567  -0.56240  -0.55939  -0.55926
 Alpha  occ. eigenvalues --   -0.55892  -0.55852  -0.55459  -0.55442  -0.55041
 Alpha  occ. eigenvalues --   -0.54995  -0.54898  -0.54406  -0.54294  -0.54270
 Alpha  occ. eigenvalues --   -0.54065  -0.53955  -0.53763  -0.53748  -0.53503
 Alpha  occ. eigenvalues --   -0.52993  -0.52716  -0.52306  -0.52144  -0.52112
 Alpha  occ. eigenvalues --   -0.51891  -0.51842  -0.51605  -0.51551  -0.51321
 Alpha  occ. eigenvalues --   -0.51285  -0.51257  -0.51018  -0.50796  -0.50702
 Alpha  occ. eigenvalues --   -0.50584  -0.50433  -0.50254  -0.50020  -0.50019
 Alpha  occ. eigenvalues --   -0.49796  -0.49696  -0.49465  -0.49424  -0.49158
 Alpha  occ. eigenvalues --   -0.49102  -0.48951  -0.48680  -0.48673  -0.48544
 Alpha  occ. eigenvalues --   -0.48411  -0.48290  -0.47790  -0.47673  -0.47657
 Alpha  occ. eigenvalues --   -0.47398  -0.47337  -0.47153  -0.47032  -0.47000
 Alpha  occ. eigenvalues --   -0.46929  -0.46784  -0.46553  -0.46226  -0.46154
 Alpha  occ. eigenvalues --   -0.45976  -0.45638  -0.45633  -0.45412  -0.45390
 Alpha  occ. eigenvalues --   -0.45205  -0.44932  -0.44832  -0.44811  -0.44623
 Alpha  occ. eigenvalues --   -0.44584  -0.44365  -0.43999  -0.43882  -0.43862
 Alpha  occ. eigenvalues --   -0.43596  -0.43474  -0.43340  -0.43147  -0.43010
 Alpha  occ. eigenvalues --   -0.42890  -0.42677  -0.42380  -0.42333  -0.42026
 Alpha  occ. eigenvalues --   -0.41958  -0.41745  -0.41642  -0.41421  -0.41141
 Alpha  occ. eigenvalues --   -0.40527  -0.40382  -0.40064  -0.39761  -0.39461
 Alpha  occ. eigenvalues --   -0.39394  -0.38936  -0.38886  -0.38356  -0.38256
 Alpha  occ. eigenvalues --   -0.38162  -0.37688  -0.37515  -0.36769  -0.36049
 Alpha  occ. eigenvalues --   -0.35777  -0.35161  -0.34856  -0.34314  -0.34177
 Alpha  occ. eigenvalues --   -0.33485  -0.33465  -0.33198  -0.32983  -0.32231
 Alpha  occ. eigenvalues --   -0.32119  -0.32104  -0.30436  -0.26673  -0.25480
 Alpha  occ. eigenvalues --   -0.23660  -0.22626
 Alpha virt. eigenvalues --   -0.07899  -0.06343  -0.00175   0.00449   0.01276
 Alpha virt. eigenvalues --    0.02323   0.03617   0.04595   0.04906   0.06148
 Alpha virt. eigenvalues --    0.07081   0.07404   0.07774   0.07942   0.08585

 Mulliken charges:
               1
     1  Mg   0.950010
     2  C   -0.020698
     3  C   -0.034522
     4  C   -0.065242
     5  C   -0.099281
     6  N   -0.324549
     7  C   -0.022533
     8  C   -0.019947
     9  C   -0.107571
    10  C    0.038152
    11  C    0.004918
    12  C    0.006935
    13  C   -0.132107
    14  H    0.012859
    15  N   -0.444763
    16  C    0.111199
    17  C   -0.185857
    18  C   -0.080092
    19  C    0.151744
    20  C    0.090518
    21  C    0.058379
    22  O   -0.258149
    23  C   -0.011159
    24  N   -0.429115
    25  C    0.099171
    26  C   -0.124952
    27  C   -0.081729
    28  C    0.105547
    29  C    0.027231
    30  C    0.011238
    31  C   -0.065198
    32  N   -0.408986
    33  C    0.108809
    34  C   -0.171543
    35  C   -0.052617
    36  C    0.138155
    37  C    0.089205
    38  C    0.113253
    39  O   -0.250138
    40  C   -0.027246
    41  C    0.229592
    42  O   -0.209811
    43  O   -0.330359
    44  C    0.138303
    45  H   -0.011156
    46  H    0.022569
    47  H    0.000034
    48  H    0.039193
    49  H    0.043758
    50  H    0.040020
    51  H    0.044441
    52  H    0.043563
    53  H    0.035113
    54  H    0.032251
    55  H    0.047933
    56  H    0.057706
    57  H    0.062251
    58  H    0.042715
    59  H    0.036597
    60  H    0.056434
    61  H    0.048475
    62  H    0.066840
    63  H    0.046790
    64  H    0.025111
    65  H    0.058963
    66  H    0.036819
    67  H    0.037850
    68  H    0.041111
    69  H    0.023278
    70  H    0.029866
    71  H    0.033182
    72  H    0.037946
    73  H    0.032639
    74  H    0.057428
    75  H    0.073350
    76  H    0.070979
    77  H    0.050227
    78  H    0.053197
    79  H    0.063836
    80  Mg   0.970744
    81  C    0.039341
    82  C   -0.096598
    83  C   -0.086175
    84  C   -0.090628
    85  N   -0.279715
    86  C   -0.034905
    87  C   -0.039345
    88  C   -0.125397
    89  C    0.008900
    90  C   -0.000818
    91  C   -0.005829
    92  C   -0.125065
    93  H    0.044437
    94  N   -0.446379
    95  C    0.190298
    96  C   -0.132989
    97  C   -0.079011
    98  C    0.175446
    99  C    0.056136
   100  C    0.085183
   101  O   -0.236260
   102  C   -0.015412
   103  N   -0.425432
   104  C    0.031940
   105  C   -0.065666
   106  C   -0.064393
   107  C    0.113049
   108  C    0.012860
   109  C   -0.040242
   110  C   -0.047540
   111  N   -0.454396
   112  C    0.144770
   113  C   -0.200805
   114  C   -0.046102
   115  C    0.122020
   116  C    0.077796
   117  C    0.111576
   118  O   -0.228710
   119  C   -0.112637
   120  C    0.233163
   121  O   -0.269952
   122  O   -0.310077
   123  C    0.148848
   124  H    0.004814
   125  H    0.014970
   126  H   -0.007839
   127  H    0.059029
   128  H    0.046708
   129  H    0.050986
   130  H    0.039259
   131  H    0.036110
   132  H    0.037788
   133  H    0.033161
   134  H    0.062226
   135  H    0.051058
   136  H    0.069148
   137  H    0.028535
   138  H    0.050208
   139  H    0.045833
   140  H    0.065356
   141  H    0.057548
   142  H    0.053727
   143  H    0.030397
   144  H    0.057604
   145  H    0.024268
   146  H    0.034277
   147  H    0.036778
   148  H    0.030423
   149  H    0.037059
   150  H    0.042794
   151  H    0.024939
   152  H    0.054545
   153  H    0.060373
   154  H    0.024439
   155  H    0.074803
   156  H    0.049804
   157  H    0.051937
   158  H    0.052548
 Sum of Mulliken charges =  -0.00000

 Dipole moment (field-independent basis, Debye):
    X=             -5.9038    Y=              2.5994    Z=              1.3115  Tot=              6.5826
 Quadrupole moment (field-independent basis, Debye-Ang):
   XX=           -552.1465   YY=           -478.7091   ZZ=           -500.6485
   XY=              7.0081   XZ=             -9.9518   YZ=             27.9766

 Normal termination of Gaussian 16 at Mon Sep 20 11:17:08 2021.
