 Gaussian 16, Revision A.03,
 Gaussian 16:  ES64L-G16RevA.03 25-Dec-2016

 --------------------------------
 #p wB97XD/Def2SVP td=(nstates=5)
 --------------------------------

 --------------------------------
 TDDFT excited states in gaussian
 --------------------------------
 Symbolic Z-matrix:
 Charge =  0 Multiplicity = 1

                         Standard orientation:
 ---------------------------------------------------------------------
 Center     Atomic      Atomic             Coordinates (Angstroms)
 Number     Number       Type             X           Y           Z
 ---------------------------------------------------------------------
      1         12           0       19.464134   -0.835156   -0.126561
      2          6           0       21.300559    2.192573   -0.192961
      3          6           0       17.323932    0.792503    2.107015
      4          6           0       17.582722   -3.524216   -0.032884
      5          6           0       22.125498   -2.452681   -1.672742
      6          7           0       19.350943    1.256512    0.786205
      7          6           0       20.106297    2.355023    0.507200
      8          6           0       19.723351    3.643597    1.255084
      9          6           0       18.474657    3.052600    2.085899
     10          6           0       18.414042    1.625174    1.628770
     11          6           0       18.653454    3.104858    3.654805
     12          6           0       19.319407    4.810554    0.296091
     13          6           0       20.124180    6.090291    0.105298
     14          1           0       19.436824    7.428153   -0.133793
     15          7           0       17.646626   -1.308881    0.828057
     16          6           0       16.952201   -0.532562    1.767030
     17          6           0       15.863182   -1.338534    2.272016
     18          6           0       15.816266   -2.531421    1.554767
     19          6           0       17.013557   -2.472321    0.693755
     20          6           0       14.900253   -0.715037    3.223848
     21          6           0       14.878926   -3.734637    1.651457
     22          8           0       14.974909   -4.756524    0.965017
     23          6           0       13.698371   -3.596645    2.529927
     24          7           0       19.813697   -2.761788   -0.659668
     25          6           0       18.812300   -3.690045   -0.732421
     26          6           0       19.219507   -4.887253   -1.656696
     27          6           0       20.652109   -4.546528   -2.046073
     28          6           0       20.932478   -3.181389   -1.358532
     29          6           0       19.003566   -6.288429   -0.996946
     30          6           0       20.774413   -4.501003   -3.576796
     31          6           0       21.951683   -5.147666   -4.211215
     32          7           0       21.384144   -0.329581   -0.724415
     33          6           0       22.345588   -1.071168   -1.363148
     34          6           0       23.501999   -0.280837   -1.662783
     35          6           0       23.143139    1.112397   -1.313829
     36          6           0       21.813532    0.991912   -0.746901
     37          6           0       24.810791   -0.798911   -2.283271
     38          6           0       23.560791    2.536643   -1.277619
     39          8           0       24.554377    3.094009   -1.774104
     40          6           0       22.362122    3.273708   -0.549978
     41          6           0       23.092084    3.864066    0.615782
     42          8           0       23.336649    3.351935    1.701452
     43          8           0       23.367689    5.121425    0.401411
     44          6           0       24.231152    5.858501    1.355742
     45          1           0       16.666621    1.464161    2.662550
     46          1           0       17.079636   -4.492889   -0.052364
     47          1           0       22.920242   -2.961871   -2.221224
     48          1           0       20.544939    3.890244    1.928752
     49          1           0       17.481415    3.452966    1.880380
     50          1           0       19.660848    3.272645    4.034749
     51          1           0       18.330257    2.162167    4.094976
     52          1           0       18.012394    3.895242    4.045664
     53          1           0       18.340471    5.154446    0.630438
     54          1           0       19.230100    4.444213   -0.725820
     55          1           0       20.602300    5.877847   -0.851040
     56          1           0       20.767583    6.076776    0.985101
     57          1           0       13.891921   -0.674365    2.814198
     58          1           0       15.196797    0.304571    3.471240
     59          1           0       14.812259   -1.257324    4.164786
     60          1           0       13.185158   -2.661751    2.304428
     61          1           0       13.971508   -3.438228    3.573290
     62          1           0       12.953136   -4.382286    2.409609
     63          1           0       18.510959   -4.777186   -2.477475
     64          1           0       21.340988   -5.333783   -1.740292
     65          1           0       18.453289   -6.260741   -0.056567
     66          1           0       19.929694   -6.815542   -0.770744
     67          1           0       18.561750   -6.971696   -1.722088
     68          1           0       20.797485   -3.430374   -3.776032
     69          1           0       19.947015   -4.964254   -4.113734
     70          1           0       22.403842   -4.359599   -4.812923
     71          1           0       21.646015   -6.048100   -4.743934
     72          1           0       22.750948   -5.423470   -3.522975
     73          1           0       25.489083   -1.093829   -1.483468
     74          1           0       25.229589   -0.007404   -2.904555
     75          1           0       24.654879   -1.693746   -2.886215
     76          1           0       22.017864    4.053380   -1.229220
     77          1           0       23.828224    5.914476    2.366394
     78          1           0       24.485133    6.869558    1.037980
     79          1           0       25.239452    5.473336    1.504558
     80         12           0      -20.143040   -0.542280    0.110742
     81          6           0      -19.814519    2.524207   -1.595407
     82          6           0      -19.661283    1.232071    3.037210
     83          6           0      -20.319786   -3.451802    1.887828
     84          6           0      -20.256725   -2.179188   -2.817889
     85          7           0      -19.809829    1.664958    0.663849
     86          6           0      -19.846078    2.771431   -0.176154
     87          6           0      -19.913166    4.049735    0.635144
     88          6           0      -19.496547    3.591581    2.080022
     89          6           0      -19.682398    2.099780    1.916542
     90          6           0      -18.065887    4.055838    2.560573
     91          6           0      -21.317356    4.671119    0.671040
     92          6           0      -21.359587    6.202852    0.651562
     93          1           0      -20.859192    6.974084    1.904509
     94          7           0      -20.100962   -1.039403    2.165186
     95          6           0      -19.851503   -0.140946    3.145511
     96          6           0      -19.750973   -0.838325    4.386259
     97          6           0      -20.077449   -2.221084    4.166205
     98          6           0      -20.123410   -2.287145    2.716170
     99          6           0      -19.413141   -0.137537    5.672864
    100          6           0      -20.188981   -3.408033    5.123249
    101          8           0      -20.651659   -4.509761    4.753557
    102          6           0      -19.676017   -3.356796    6.557930
    103          7           0      -20.358977   -2.496072   -0.388340
    104          6           0      -20.340113   -3.569587    0.496991
    105          6           0      -20.390125   -4.843592   -0.282260
    106          6           0      -20.442963   -4.514253   -1.817514
    107          6           0      -20.396336   -2.981159   -1.714377
    108          6           0      -19.329517   -5.905588    0.137006
    109          6           0      -21.700850   -5.010661   -2.562800
    110          6           0      -21.497289   -6.357521   -3.283207
    111          7           0      -20.015900   -0.023281   -1.793313
    112          6           0      -20.140282   -0.776445   -2.959928
    113          6           0      -20.113527    0.074299   -4.207045
    114          6           0      -19.951329    1.354371   -3.652749
    115          6           0      -19.952523    1.261645   -2.223819
    116          6           0      -20.232191   -0.407260   -5.641553
    117          6           0      -19.814878    2.748943   -4.045074
    118          8           0      -19.755783    3.273179   -5.158058
    119          6           0      -19.845398    3.560632   -2.681023
    120          6           0      -18.610154    4.481232   -2.730544
    121          8           0      -17.509244    4.189537   -3.150177
    122          8           0      -19.002052    5.768625   -2.368509
    123          6           0      -17.898246    6.728640   -2.389195
    124          1           0      -19.586296    1.832427    3.946068
    125          1           0      -20.396002   -4.436530    2.353127
    126          1           0      -20.176166   -2.792818   -3.717183
    127          1           0      -19.214142    4.824335    0.320729
    128          1           0      -20.141226    3.960281    2.877908
    129          1           0      -17.544044    4.740200    1.891053
    130          1           0      -17.323494    3.272243    2.710109
    131          1           0      -18.136324    4.619401    3.490931
    132          1           0      -21.874097    4.342254    1.548227
    133          1           0      -21.888333    4.384400   -0.212294
    134          1           0      -22.348566    6.579196    0.390420
    135          1           0      -20.775019    6.603485   -0.176353
    136          1           0      -18.536643    0.442842    5.384355
    137          1           0      -19.106077   -0.751162    6.519663
    138          1           0      -20.175421    0.553904    6.031216
    139          1           0      -18.655172   -2.975886    6.591968
    140          1           0      -19.750121   -4.401424    6.859839
    141          1           0      -20.284588   -2.690437    7.169235
    142          1           0      -21.273572   -5.382124    0.062022
    143          1           0      -19.562257   -4.814533   -2.386683
    144          1           0      -18.698524   -5.457443    0.904851
    145          1           0      -18.708096   -6.140639   -0.726690
    146          1           0      -19.925449   -6.730439    0.529061
    147          1           0      -22.048125   -4.191032   -3.191463
    148          1           0      -22.494096   -5.263303   -1.858874
    149          1           0      -20.684362   -6.909210   -2.810687
    150          1           0      -21.176923   -6.311298   -4.324204
    151          1           0      -22.405380   -6.947044   -3.153539
    152          1           0      -21.270042   -0.702877   -5.796107
    153          1           0      -19.625385   -1.275060   -5.899272
    154          1           0      -19.976572    0.452094   -6.261245
    155          1           0      -20.733092    4.170501   -2.514271
    156          1           0      -17.352266    6.818645   -1.449613
    157          1           0      -18.377605    7.666025   -2.671030
    158          1           0      -17.073847    6.576341   -3.085790
 ---------------------------------------------------------------------

 SCF Done:  E(RwB97XD) =  -4070.63295558     A.U. after   20 cycles

 Excitation energies and oscillator strengths:

 Excited State   1:      Singlet-A      1.6476 eV  752.51 nm  f=0.3718  <S**2>=0.000
     309 -> 316       -0.19180
     312 -> 313        0.68144
     309 <- 316       -0.11859
 This state for optimization and/or second-order correction.
 Total Energy, E(TD-HF/TD-DFT) =  -4070.57240689
 Copying the excited state density for this state as the 1-particle RhoCI density.

 Excited State   2:      Singlet-A      1.7236 eV  719.32 nm  f=0.3824  <S**2>=0.000
     310 -> 315       -0.18637
     311 -> 314        0.68176
     310 <- 315       -0.11197

 Excited State   3:      Singlet-A      2.1685 eV  571.76 nm  f=0.1006  <S**2>=0.000
     310 -> 314        0.63393
     311 -> 315        0.29497

 Excited State   4:      Singlet-A      2.1798 eV  568.79 nm  f=0.0990  <S**2>=0.000
     309 -> 313        0.63412
     312 -> 316        0.30021

 Excited State   5:      Singlet-A      3.4477 eV  359.62 nm  f=0.0925  <S**2>=0.000
     299 -> 314       -0.10537
     305 -> 314        0.24531
     306 -> 314       -0.18504
     308 -> 314        0.57313
     311 -> 315        0.18439

 The electronic state is 1-A.
 Alpha  occ. eigenvalues --  -46.94876 -46.94021 -19.31014 -19.30466 -19.25369
 Alpha  occ. eigenvalues --  -19.24686 -19.24299 -19.24165 -19.23881 -19.23109
 Alpha  occ. eigenvalues --  -14.47318 -14.47177 -14.46491 -14.45908 -14.44523
 Alpha  occ. eigenvalues --  -14.44466 -14.44133 -14.43551 -10.43569 -10.42454
 Alpha  occ. eigenvalues --  -10.40013 -10.39891 -10.39438 -10.39126 -10.35755
 Alpha  occ. eigenvalues --  -10.35680 -10.35484 -10.35473 -10.35287 -10.35257
 Alpha  occ. eigenvalues --  -10.34935 -10.34898 -10.34873 -10.34863 -10.34825
 Alpha  occ. eigenvalues --  -10.34498 -10.34346 -10.34313 -10.33687 -10.33668
 Alpha  occ. eigenvalues --  -10.33225 -10.33119 -10.33111 -10.32951 -10.32917
 Alpha  occ. eigenvalues --  -10.32868 -10.32820 -10.32780 -10.32730 -10.32716
 Alpha  occ. eigenvalues --  -10.32654 -10.32619 -10.32468 -10.32368 -10.32222
 Alpha  occ. eigenvalues --  -10.32148 -10.32027 -10.32011 -10.31927 -10.31755
 Alpha  occ. eigenvalues --  -10.31719 -10.31534 -10.31334 -10.31255 -10.31196
 Alpha  occ. eigenvalues --  -10.31066 -10.31053 -10.31000 -10.30513 -10.30432
 Alpha  occ. eigenvalues --  -10.30429 -10.30349 -10.30324 -10.30285 -10.30277
 Alpha  occ. eigenvalues --  -10.30065 -10.30005 -10.29904 -10.29750 -10.29733
 Alpha  occ. eigenvalues --  -10.29705 -10.29556 -10.29451 -10.29398 -10.29119
 Alpha  occ. eigenvalues --  -10.28646  -3.20904  -3.20215  -1.94496  -1.94029
 Alpha  occ. eigenvalues --   -1.93882  -1.93810  -1.93320  -1.93233  -1.19952
 Alpha  occ. eigenvalues --   -1.18493  -1.12367  -1.11478  -1.11196  -1.10576
 Alpha  occ. eigenvalues --   -1.10409  -1.08637  -1.07495  -1.06757  -1.06118
 Alpha  occ. eigenvalues --   -1.05776  -1.05107  -1.04781  -1.03477  -1.03334
 Alpha  occ. eigenvalues --   -0.94571  -0.93774  -0.91487  -0.91327  -0.90961
 Alpha  occ. eigenvalues --   -0.90947  -0.90694  -0.90242  -0.89708  -0.89431
 Alpha  occ. eigenvalues --   -0.89021  -0.88682  -0.88116  -0.87045  -0.86357
 Alpha  occ. eigenvalues --   -0.86210  -0.85466  -0.85358  -0.84773  -0.84671
 Alpha  occ. eigenvalues --   -0.84247  -0.83700  -0.82949  -0.82763  -0.82498
 Alpha  occ. eigenvalues --   -0.82077  -0.80795  -0.80464  -0.79415  -0.79410
 Alpha  occ. eigenvalues --   -0.79229  -0.78775  -0.78120  -0.78087  -0.77127
 Alpha  occ. eigenvalues --   -0.77034  -0.74705  -0.74193  -0.73805  -0.73665
 Alpha  occ. eigenvalues --   -0.71382  -0.71228  -0.70766  -0.70193  -0.70113
 Alpha  occ. eigenvalues --   -0.69594  -0.69358  -0.68970  -0.67772  -0.67754
 Alpha  occ. eigenvalues --   -0.67475  -0.67194  -0.66875  -0.66519  -0.66194
 Alpha  occ. eigenvalues --   -0.66194  -0.64586  -0.64366  -0.63017  -0.62395
 Alpha  occ. eigenvalues --   -0.62183  -0.61486  -0.60971  -0.60940  -0.60507
 Alpha  occ. eigenvalues --   -0.60463  -0.59776  -0.59735  -0.59643  -0.59528
 Alpha  occ. eigenvalues --   -0.58747  -0.58067  -0.57543  -0.57492  -0.57116
 Alpha  occ. eigenvalues --   -0.56931  -0.56571  -0.56214  -0.56123  -0.55787
 Alpha  occ. eigenvalues --   -0.55766  -0.55552  -0.55459  -0.55118  -0.54907
 Alpha  occ. eigenvalues --   -0.54853  -0.54587  -0.54542  -0.54491  -0.54150
 Alpha  occ. eigenvalues --   -0.54052  -0.53810  -0.53729  -0.53352  -0.53198
 Alpha  occ. eigenvalues --   -0.52555  -0.52425  -0.52412  -0.52228  -0.52030
 Alpha  occ. eigenvalues --   -0.51974  -0.51863  -0.51756  -0.51670  -0.51391
 Alpha  occ. eigenvalues --   -0.51299  -0.51046  -0.51044  -0.50880  -0.50597
 Alpha  occ. eigenvalues --   -0.50459  -0.50434  -0.50222  -0.50123  -0.50039
 Alpha  occ. eigenvalues --   -0.50014  -0.49731  -0.49613  -0.49358  -0.49332
 Alpha  occ. eigenvalues --   -0.48808  -0.48625  -0.48566  -0.48486  -0.48263
 Alpha  occ. eigenvalues --   -0.48246  -0.48008  -0.47865  -0.47767  -0.47528
 Alpha  occ. eigenvalues --   -0.47484  -0.47395  -0.47064  -0.46970  -0.46869
 Alpha  occ. eigenvalues --   -0.46620  -0.46553  -0.46493  -0.46327  -0.46302
 Alpha  occ. eigenvalues --   -0.46293  -0.46203  -0.45932  -0.45551  -0.45401
 Alpha  occ. eigenvalues --   -0.45173  -0.45172  -0.45005  -0.44992  -0.44749
 Alpha  occ. eigenvalues --   -0.44668  -0.44334  -0.44281  -0.43973  -0.43889
 Alpha  occ. eigenvalues --   -0.43764  -0.43628  -0.43557  -0.43301  -0.43150
 Alpha  occ. eigenvalues --   -0.43145  -0.43006  -0.42699  -0.42430  -0.42320
 Alpha  occ. eigenvalues --   -0.42195  -0.41973  -0.41729  -0.41631  -0.41408
 Alpha  occ. eigenvalues --   -0.40633  -0.40351  -0.40272  -0.39893  -0.39873
 Alpha  occ. eigenvalues --   -0.39329  -0.39278  -0.38883  -0.38751  -0.38704
 Alpha  occ. eigenvalues --   -0.38367  -0.37775  -0.37184  -0.36990  -0.36417
 Alpha  occ. eigenvalues --   -0.35524  -0.35147  -0.35129  -0.34131  -0.33824
 Alpha  occ. eigenvalues --   -0.33538  -0.33189  -0.32972  -0.32715  -0.32608
 Alpha  occ. eigenvalues --   -0.32489  -0.32239  -0.30826  -0.25906  -0.25864
 Alpha  occ. eigenvalues --   -0.23012  -0.22921
 Alpha virt. eigenvalues --   -0.06950  -0.06863   0.00056   0.00104   0.01852
 Alpha virt. eigenvalues --    0.02011   0.03816   0.04166   0.05778   0.06747
 Alpha virt. eigenvalues --    0.07078   0.07387   0.07698   0.08295   0.08336

 Mulliken charges:
               1
     1  Mg   0.972754
     2  C    0.039511
     3  C   -0.094922
     4  C   -0.084686
     5  C   -0.089031
     6  N   -0.280043
     7  C   -0.033664
     8  C   -0.039548
     9  C   -0.125348
    10  C    0.009709
    11  C    0.001843
    12  C   -0.006462
    13  C   -0.125576
    14  H    0.045855
    15  N   -0.445324
    16  C    0.189155
    17  C   -0.135289
    18  C   -0.078225
    19  C    0.173954
    20  C    0.050708
    21  C    0.084376
    22  O   -0.232476
    23  C   -0.007042
    24  N   -0.424804
    25  C    0.030708
    26  C   -0.065404
    27  C   -0.064795
    28  C    0.113704
    29  C    0.012641
    30  C   -0.040729
    31  C   -0.047839
    32  N   -0.454706
    33  C    0.145721
    34  C   -0.198928
    35  C   -0.045497
    36  C    0.123194
    37  C    0.077690
    38  C    0.112820
    39  O   -0.226535
    40  C   -0.112962
    41  C    0.233125
    42  O   -0.268683
    43  O   -0.310173
    44  C    0.148256
    45  H    0.001855
    46  H    0.016043
    47  H   -0.006145
    48  H    0.060646
    49  H    0.045624
    50  H    0.052684
    51  H    0.037775
    52  H    0.037476
    53  H    0.038502
    54  H    0.032756
    55  H    0.062074
    56  H    0.051812
    57  H    0.054623
    58  H    0.035451
    59  H    0.048311
    60  H    0.039685
    61  H    0.049863
    62  H    0.061304
    63  H    0.053996
    64  H    0.031672
    65  H    0.057281
    66  H    0.025263
    67  H    0.035182
    68  H    0.036546
    69  H    0.031267
    70  H    0.037270
    71  H    0.043621
    72  H    0.025466
    73  H    0.056349
    74  H    0.061412
    75  H    0.025352
    76  H    0.075640
    77  H    0.050748
    78  H    0.052462
    79  H    0.053098
    80  Mg   1.001733
    81  C   -0.065004
    82  C   -0.110831
    83  C   -0.083560
    84  C   -0.100696
    85  N   -0.307830
    86  C    0.022531
    87  C   -0.031731
    88  C   -0.097695
    89  C    0.019028
    90  C    0.007956
    91  C    0.023171
    92  C   -0.123413
    93  H    0.016981
    94  N   -0.428196
    95  C    0.224115
    96  C   -0.180433
    97  C   -0.042857
    98  C    0.127664
    99  C    0.061877
   100  C    0.049294
   101  O   -0.257553
   102  C   -0.023935
   103  N   -0.456755
   104  C    0.109015
   105  C   -0.100375
   106  C   -0.055439
   107  C    0.059336
   108  C    0.015936
   109  C    0.000240
   110  C   -0.055616
   111  N   -0.483475
   112  C    0.140329
   113  C   -0.167147
   114  C   -0.071812
   115  C    0.182815
   116  C    0.080931
   117  C    0.161348
   118  O   -0.208541
   119  C   -0.105871
   120  C    0.266268
   121  O   -0.223796
   122  O   -0.369637
   123  C    0.126386
   124  H   -0.009057
   125  H    0.016390
   126  H   -0.010428
   127  H    0.030614
   128  H    0.039929
   129  H    0.034269
   130  H    0.041817
   131  H    0.034264
   132  H    0.040693
   133  H    0.036934
   134  H    0.048572
   135  H    0.050355
   136  H    0.046092
   137  H    0.026845
   138  H    0.058713
   139  H    0.061390
   140  H    0.063769
   141  H    0.063695
   142  H    0.042796
   143  H    0.042918
   144  H    0.043645
   145  H    0.034105
   146  H    0.043605
   147  H    0.037038
   148  H    0.028046
   149  H    0.024559
   150  H    0.041189
   151  H    0.040944
   152  H    0.050579
   153  H    0.047759
   154  H    0.066163
   155  H    0.072934
   156  H    0.043172
   157  H    0.055719
   158  H    0.065219
 Sum of Mulliken charges =  -0.00000

 Dipole moment (field-independent basis, Debye):
    X=             -5.2354    Y=              0.9724    Z=              5.9189  Tot=              7.9617
 Quadrupole moment (field-independent basis, Debye-Ang):
   XX=           -699.3509   YY=           -482.2377   ZZ=           -505.2920
   XY=            -21.9904   XZ=            -44.4211   YZ=             55.4134

 Normal termination of Gaussian 16 at Mon Sep 20 14:42:07 2021.
