 Gaussian 16, Revision A.03,
 Gaussian 16:  ES64L-G16RevA.03 25-Dec-2016

 --------------------------------
 #p wB97XD/Def2SVP td=(nstates=5)
 --------------------------------

 --------------------------------
 TDDFT excited states in gaussian
 --------------------------------
 Symbolic Z-matrix:
 Charge =  0 Multiplicity = 1

                         Standard orientation:
 ---------------------------------------------------------------------
 Center     Atomic      Atomic             Coordinates (Angstroms)
 Number     Number       Type             X           Y           Z
 ---------------------------------------------------------------------
      1         12           0      -24.543726    0.410600    0.206389
      2          6           0      -23.219884   -2.221827   -1.668915
      3          6           0      -22.771761    2.572752   -1.910133
      4          6           0      -25.264754    2.990496    2.212189
      5          6           0      -25.311722   -1.833368    2.700000
      6          7           0      -23.199086    0.221794   -1.702987
      7          6           0      -22.804006   -0.992033   -2.170923
      8          6           0      -21.826198   -0.820562   -3.400271
      9          6           0      -21.496802    0.753304   -3.292748
     10          6           0      -22.493753    1.230266   -2.223254
     11          6           0      -20.050067    0.887592   -2.697832
     12          6           0      -22.650228   -1.137509   -4.702025
     13          6           0      -21.945301   -0.911133   -6.067179
     14          1           0      -22.481021   -0.262890   -7.309008
     15          7           0      -24.245589    2.473467    0.030026
     16          6           0      -23.527320    3.214225   -0.923419
     17          6           0      -23.607249    4.567656   -0.564594
     18          6           0      -24.473837    4.728669    0.508228
     19          6           0      -24.706523    3.366982    0.960598
     20          6           0      -22.975283    5.611232   -1.426314
     21          6           0      -24.967872    6.019201    1.241467
     22          8           0      -25.755658    6.033393    2.181218
     23          6           0      -24.671321    7.422410    0.705370
     24          7           0      -25.080005    0.530511    2.206629
     25          6           0      -25.459606    1.709848    2.747282
     26          6           0      -26.168842    1.566197    4.108061
     27          6           0      -26.057877    0.032091    4.329358
     28          6           0      -25.571541   -0.495326    2.991409
     29          6           0      -25.640175    2.529718    5.221953
     30          6           0      -27.316727   -0.701251    4.868149
     31          6           0      -28.409024   -0.920550    3.909411
     32          7           0      -24.422694   -1.620195    0.475095
     33          6           0      -24.757948   -2.379040    1.492618
     34          6           0      -24.599690   -3.805081    1.189312
     35          6           0      -23.981120   -3.745435   -0.100300
     36          6           0      -23.860054   -2.420694   -0.471844
     37          6           0      -25.271434   -4.952170    1.785987
     38          6           0      -23.471767   -4.588587   -1.167668
     39          8           0      -23.493748   -5.791000   -1.302503
     40          6           0      -22.896164   -3.594865   -2.183945
     41          6           0      -21.413949   -3.863552   -2.464591
     42          8           0      -20.514558   -3.535915   -1.735006
     43          8           0      -21.295677   -4.592095   -3.624022
     44          6           0      -19.885274   -4.885054   -3.968292
     45          1           0      -22.324271    3.238374   -2.650027
     46          1           0      -25.706329    3.800517    2.796870
     47          1           0      -25.763316   -2.322526    3.564812
     48          1           0      -20.903599   -1.389684   -3.283390
     49          1           0      -21.570068    1.298459   -4.234604
     50          1           0      -19.978468    1.203662   -1.657617
     51          1           0      -19.525808    1.748092   -3.114242
     52          1           0      -19.444972   -0.013205   -2.798407
     53          1           0      -23.567658   -0.551642   -4.652515
     54          1           0      -22.991904   -2.169345   -4.615969
     55          1           0      -21.541123   -1.893246   -6.314274
     56          1           0      -21.149649   -0.231450   -5.764619
     57          1           0      -22.412356    5.239656   -2.282971
     58          1           0      -22.440155    6.302456   -0.773761
     59          1           0      -23.828217    6.145121   -1.846223
     60          1           0      -23.618010    7.698533    0.755488
     61          1           0      -25.299317    8.210468    1.121235
     62          1           0      -24.993163    7.423331   -0.336200
     63          1           0      -27.159221    1.880006    3.779435
     64          1           0      -25.226357   -0.072798    5.026266
     65          1           0      -25.258486    3.454015    4.789525
     66          1           0      -24.825653    2.043367    5.759361
     67          1           0      -26.418512    2.832377    5.922752
     68          1           0      -27.637170   -0.021165    5.656764
     69          1           0      -27.018402   -1.621335    5.371063
     70          1           0      -28.204972   -1.818605    3.326563
     71          1           0      -28.566069   -0.041081    3.285239
     72          1           0      -29.350474   -1.147969    4.410347
     73          1           0      -26.193769   -4.546123    2.202023
     74          1           0      -24.827460   -5.454515    2.645572
     75          1           0      -25.424588   -5.672004    0.982642
     76          1           0      -23.472957   -3.692645   -3.104236
     77          1           0      -19.843711   -5.869380   -4.434254
     78          1           0      -19.210374   -5.051026   -3.128344
     79          1           0      -19.504831   -4.170358   -4.697345
     80         12           0       24.041918    0.571454   -0.299869
     81          6           0       23.389335   -2.598603    0.924225
     82          6           0       20.683479    1.346278   -0.009537
     83          6           0       24.852003    3.816001   -0.759771
     84          6           0       27.454134   -0.313326   -0.192220
     85          7           0       22.280114   -0.428481    0.656405
     86          6           0       22.265390   -1.745205    0.881883
     87          6           0       20.861345   -2.182526    1.402551
     88          6           0       19.945275   -0.996146    0.838848
     89          6           0       21.030301    0.052572    0.382167
     90          6           0       18.930280   -1.472851   -0.227945
     91          6           0       20.837911   -2.189884    2.914110
     92          6           0       20.090240   -3.350206    3.552272
     93          1           0       19.223475   -3.191805    4.857936
     94          7           0       22.839938    2.319329   -0.542626
     95          6           0       21.522737    2.472087   -0.322607
     96          6           0       21.192699    3.829018   -0.615823
     97          6           0       22.364848    4.540952   -1.013442
     98          6           0       23.442823    3.562704   -0.822531
     99          6           0       19.783690    4.289991   -0.683005
    100          6           0       22.397724    5.999263   -1.304415
    101          8           0       21.363838    6.646521   -1.311976
    102          6           0       23.694862    6.712231   -1.667311
    103          7           0       25.981645    1.612692   -0.544369
    104          6           0       25.977781    2.971254   -0.647102
    105          6           0       27.361567    3.515283   -0.499543
    106          6           0       28.193347    2.159944   -0.308330
    107          6           0       27.198801    1.030359   -0.411756
    108          6           0       27.824303    4.425604   -1.652492
    109          6           0       29.088682    2.070517    1.005945
    110          6           0       30.586593    1.696110    0.912678
    111          7           0       25.196573   -1.067803    0.210372
    112          6           0       26.534037   -1.299270    0.133793
    113          6           0       26.789281   -2.668463    0.221499
    114          6           0       25.577775   -3.278508    0.515641
    115          6           0       24.658890   -2.260703    0.571325
    116          6           0       28.206117   -3.309092    0.144322
    117          6           0       24.928103   -4.479106    0.764544
    118          8           0       25.425165   -5.588926    0.920688
    119          6           0       23.395465   -4.154522    1.110612
    120          6           0       22.506769   -4.705528    0.152217
    121          8           0       22.228475   -4.343429   -0.993441
    122          8           0       21.926589   -5.813972    0.761318
    123          6           0       20.953607   -6.627957    0.053090
    124          1           0       19.612348    1.548835   -0.069894
    125          1           0       25.264457    4.815795   -0.913634
    126          1           0       28.526712   -0.499285   -0.279777
    127          1           0       20.655411   -3.177662    1.009324
    128          1           0       19.420833   -0.434701    1.611369
    129          1           0       19.083056   -2.518840   -0.493050
    130          1           0       19.017655   -0.848353   -1.117600
    131          1           0       17.931241   -1.300341    0.171721
    132          1           0       20.490408   -1.288093    3.418618
    133          1           0       21.889338   -2.156024    3.199460
    134          1           0       20.818269   -4.151065    3.680376
    135          1           0       19.435263   -3.650488    2.734404
    136          1           0       19.572158    4.253287   -1.751489
    137          1           0       19.670432    5.293393   -0.272123
    138          1           0       19.094252    3.645225   -0.137872
    139          1           0       24.205620    6.891258   -0.721052
    140          1           0       23.397722    7.703424   -2.008995
    141          1           0       24.276288    6.121541   -2.375099
    142          1           0       27.245827    4.070048    0.430993
    143          1           0       28.965316    2.052917   -1.070395
    144          1           0       27.807534    5.440653   -1.254260
    145          1           0       27.204451    4.330322   -2.544610
    146          1           0       28.861605    4.198138   -1.896978
    147          1           0       28.645301    1.327906    1.669146
    148          1           0       29.145270    3.016459    1.544996
    149          1           0       30.505580    0.613081    1.004436
    150          1           0       31.127870    2.081139    1.775925
    151          1           0       31.117627    1.790817   -0.034401
    152          1           0       28.729319   -3.099628    1.076446
    153          1           0       28.874133   -2.906874   -0.617552
    154          1           0       28.138187   -4.390496    0.022590
    155          1           0       23.241300   -4.513236    2.128402
    156          1           0       21.060831   -7.646163    0.425798
    157          1           0       20.982505   -6.546515   -1.033805
    158          1           0       19.964104   -6.327802    0.398187
 ---------------------------------------------------------------------

 SCF Done:  E(RwB97XD) =  -4070.60258519     A.U. after   19 cycles

 Excitation energies and oscillator strengths:

 Excited State   1:      Singlet-A      1.6375 eV  757.14 nm  f=0.3964  <S**2>=0.000
     309 -> 315       -0.19101
     311 -> 313        0.68255
     309 <- 315       -0.11968
 This state for optimization and/or second-order correction.
 Total Energy, E(TD-HF/TD-DFT) =  -4070.54240700
 Copying the excited state density for this state as the 1-particle RhoCI density.

 Excited State   2:      Singlet-A      1.6940 eV  731.92 nm  f=0.3922  <S**2>=0.000
     310 -> 316       -0.19055
     312 -> 314        0.68141
     310 <- 316       -0.11527

 Excited State   3:      Singlet-A      2.1723 eV  570.76 nm  f=0.0975  <S**2>=0.000
     309 -> 313        0.63454
     311 -> 315        0.29671

 Excited State   4:      Singlet-A      2.2138 eV  560.06 nm  f=0.1127  <S**2>=0.000
     310 -> 314        0.64263
     312 -> 316        0.27815

 Excited State   5:      Singlet-A      3.2600 eV  380.32 nm  f=0.0048  <S**2>=0.000
     307 -> 313        0.67169
     311 -> 315       -0.12898

 The electronic state is 1-A.
 Alpha  occ. eigenvalues --  -46.96042 -46.95046 -19.31016 -19.29893 -19.25337
 Alpha  occ. eigenvalues --  -19.25145 -19.24494 -19.24334 -19.23848 -19.23383
 Alpha  occ. eigenvalues --  -14.46939 -14.46853 -14.46627 -14.45616 -14.44434
 Alpha  occ. eigenvalues --  -14.43828 -14.43782 -14.43689 -10.43632 -10.43464
 Alpha  occ. eigenvalues --  -10.40195 -10.39266 -10.38590 -10.38485 -10.35580
 Alpha  occ. eigenvalues --  -10.35558 -10.35454 -10.35402 -10.35323 -10.35165
 Alpha  occ. eigenvalues --  -10.35125 -10.34903 -10.34681 -10.34564 -10.34458
 Alpha  occ. eigenvalues --  -10.33938 -10.33819 -10.33737 -10.33568 -10.33447
 Alpha  occ. eigenvalues --  -10.32814 -10.32772 -10.32752 -10.32670 -10.32644
 Alpha  occ. eigenvalues --  -10.32570 -10.32503 -10.32489 -10.32405 -10.32362
 Alpha  occ. eigenvalues --  -10.32256 -10.32242 -10.31998 -10.31930 -10.31924
 Alpha  occ. eigenvalues --  -10.31903 -10.31725 -10.31686 -10.31648 -10.31565
 Alpha  occ. eigenvalues --  -10.31523 -10.31447 -10.31371 -10.31149 -10.31088
 Alpha  occ. eigenvalues --  -10.31006 -10.30905 -10.30751 -10.30743 -10.30719
 Alpha  occ. eigenvalues --  -10.30455 -10.30250 -10.30095 -10.29998 -10.29974
 Alpha  occ. eigenvalues --  -10.29922 -10.29871 -10.29737 -10.29712 -10.29706
 Alpha  occ. eigenvalues --  -10.29322 -10.29103 -10.28929 -10.28881 -10.28841
 Alpha  occ. eigenvalues --  -10.28302  -3.21832  -3.21053  -1.95429  -1.94944
 Alpha  occ. eigenvalues --   -1.94790  -1.94627  -1.94190  -1.94008  -1.18991
 Alpha  occ. eigenvalues --   -1.17920  -1.12649  -1.12506  -1.12297  -1.12208
 Alpha  occ. eigenvalues --   -1.10965  -1.09725  -1.07576  -1.06960  -1.06101
 Alpha  occ. eigenvalues --   -1.05885  -1.05799  -1.05356  -1.04681  -1.04502
 Alpha  occ. eigenvalues --   -0.95916  -0.95795  -0.91422  -0.91281  -0.91019
 Alpha  occ. eigenvalues --   -0.90512  -0.90278  -0.90092  -0.89848  -0.89458
 Alpha  occ. eigenvalues --   -0.89134  -0.88863  -0.88187  -0.88110  -0.87384
 Alpha  occ. eigenvalues --   -0.86546  -0.85979  -0.85513  -0.84963  -0.84300
 Alpha  occ. eigenvalues --   -0.84176  -0.83468  -0.83465  -0.82856  -0.82761
 Alpha  occ. eigenvalues --   -0.82367  -0.80501  -0.80148  -0.79569  -0.79517
 Alpha  occ. eigenvalues --   -0.78518  -0.78511  -0.78439  -0.78047  -0.77141
 Alpha  occ. eigenvalues --   -0.76805  -0.75516  -0.74450  -0.74399  -0.73758
 Alpha  occ. eigenvalues --   -0.71953  -0.71852  -0.71215  -0.71129  -0.70314
 Alpha  occ. eigenvalues --   -0.70109  -0.69369  -0.69025  -0.68110  -0.67860
 Alpha  occ. eigenvalues --   -0.67505  -0.67336  -0.66880  -0.66778  -0.66409
 Alpha  occ. eigenvalues --   -0.65970  -0.64722  -0.64479  -0.62500  -0.62100
 Alpha  occ. eigenvalues --   -0.61938  -0.61448  -0.61329  -0.61113  -0.61077
 Alpha  occ. eigenvalues --   -0.60560  -0.60241  -0.60183  -0.60020  -0.59342
 Alpha  occ. eigenvalues --   -0.58474  -0.58351  -0.58119  -0.57598  -0.57478
 Alpha  occ. eigenvalues --   -0.57465  -0.57225  -0.56803  -0.56556  -0.56330
 Alpha  occ. eigenvalues --   -0.55933  -0.55527  -0.55347  -0.55223  -0.55067
 Alpha  occ. eigenvalues --   -0.54604  -0.54593  -0.54505  -0.54270  -0.54064
 Alpha  occ. eigenvalues --   -0.54027  -0.54019  -0.53823  -0.53459  -0.53231
 Alpha  occ. eigenvalues --   -0.53061  -0.52914  -0.52501  -0.52313  -0.52269
 Alpha  occ. eigenvalues --   -0.52097  -0.51942  -0.51864  -0.51605  -0.51535
 Alpha  occ. eigenvalues --   -0.51435  -0.51367  -0.51162  -0.50991  -0.50937
 Alpha  occ. eigenvalues --   -0.50898  -0.50737  -0.50454  -0.50346  -0.50216
 Alpha  occ. eigenvalues --   -0.49842  -0.49451  -0.49431  -0.49048  -0.48850
 Alpha  occ. eigenvalues --   -0.48721  -0.48663  -0.48609  -0.48547  -0.48093
 Alpha  occ. eigenvalues --   -0.48064  -0.47909  -0.47899  -0.47771  -0.47636
 Alpha  occ. eigenvalues --   -0.47435  -0.47273  -0.47271  -0.47104  -0.46987
 Alpha  occ. eigenvalues --   -0.46906  -0.46676  -0.46634  -0.46502  -0.46346
 Alpha  occ. eigenvalues --   -0.46119  -0.45982  -0.45850  -0.45760  -0.45614
 Alpha  occ. eigenvalues --   -0.45570  -0.45390  -0.45261  -0.45174  -0.45097
 Alpha  occ. eigenvalues --   -0.44843  -0.44829  -0.44518  -0.44421  -0.44307
 Alpha  occ. eigenvalues --   -0.44157  -0.44021  -0.43870  -0.43815  -0.43805
 Alpha  occ. eigenvalues --   -0.43618  -0.43343  -0.42933  -0.42625  -0.42216
 Alpha  occ. eigenvalues --   -0.42151  -0.41643  -0.41502  -0.40726  -0.40392
 Alpha  occ. eigenvalues --   -0.40310  -0.40159  -0.39920  -0.39815  -0.39670
 Alpha  occ. eigenvalues --   -0.39421  -0.39317  -0.39255  -0.38813  -0.38293
 Alpha  occ. eigenvalues --   -0.38268  -0.37599  -0.36900  -0.36845  -0.36511
 Alpha  occ. eigenvalues --   -0.36252  -0.35778  -0.35403  -0.34049  -0.33616
 Alpha  occ. eigenvalues --   -0.33284  -0.33099  -0.32771  -0.32690  -0.32638
 Alpha  occ. eigenvalues --   -0.32256  -0.31660  -0.31327  -0.26496  -0.25726
 Alpha  occ. eigenvalues --   -0.23363  -0.22887
 Alpha virt. eigenvalues --   -0.07565  -0.06722  -0.00390   0.00600   0.01880
 Alpha virt. eigenvalues --    0.02490   0.04355   0.04432   0.05395   0.05663
 Alpha virt. eigenvalues --    0.06212   0.07173   0.07356   0.08072   0.08116

 Mulliken charges:
               1
     1  Mg   0.973271
     2  C   -0.006794
     3  C   -0.074235
     4  C   -0.111435
     5  C   -0.060592
     6  N   -0.281989
     7  C   -0.051445
     8  C   -0.081039
     9  C   -0.121245
    10  C    0.038010
    11  C    0.009288
    12  C   -0.013341
    13  C   -0.096440
    14  H    0.058578
    15  N   -0.474775
    16  C    0.176509
    17  C   -0.164446
    18  C   -0.081411
    19  C    0.151330
    20  C    0.071133
    21  C    0.085481
    22  O   -0.233801
    23  C   -0.021497
    24  N   -0.406371
    25  C    0.075737
    26  C   -0.112092
    27  C   -0.035744
    28  C   -0.010014
    29  C    0.035581
    30  C   -0.020882
    31  C   -0.015404
    32  N   -0.411346
    33  C    0.152369
    34  C   -0.157221
    35  C   -0.070566
    36  C    0.151353
    37  C    0.070544
    38  C    0.116315
    39  O   -0.187669
    40  C   -0.074685
    41  C    0.263783
    42  O   -0.227645
    43  O   -0.360614
    44  C    0.124761
    45  H   -0.012617
    46  H    0.022415
    47  H   -0.019475
    48  H    0.047441
    49  H    0.048699
    50  H    0.042536
    51  H    0.025862
    52  H    0.050549
    53  H    0.035470
    54  H    0.032152
    55  H    0.051129
    56  H    0.036223
    57  H    0.044494
    58  H    0.048713
    59  H    0.050233
    60  H    0.058358
    61  H    0.054775
    62  H    0.041265
    63  H    0.041037
    64  H    0.042844
    65  H    0.049056
    66  H    0.031775
    67  H    0.040090
    68  H    0.022779
    69  H    0.034921
    70  H    0.032052
    71  H    0.032807
    72  H    0.035423
    73  H    0.029554
    74  H    0.041843
    75  H    0.063979
    76  H    0.079174
    77  H    0.049956
    78  H    0.069113
    79  H    0.056069
    80  Mg   0.938952
    81  C   -0.063454
    82  C   -0.088060
    83  C   -0.039782
    84  C   -0.124291
    85  N   -0.332137
    86  C    0.013113
    87  C   -0.124813
    88  C   -0.102944
    89  C    0.083688
    90  C    0.035817
    91  C    0.029689
    92  C   -0.116614
    93  H    0.044745
    94  N   -0.455874
    95  C    0.158235
    96  C   -0.182202
    97  C   -0.057311
    98  C    0.198456
    99  C    0.076286
   100  C    0.004712
   101  O   -0.236066
   102  C    0.002967
   103  N   -0.353946
   104  C   -0.009610
   105  C   -0.086524
   106  C   -0.051335
   107  C    0.062307
   108  C    0.022936
   109  C   -0.053219
   110  C   -0.067805
   111  N   -0.433914
   112  C    0.194489
   113  C   -0.187379
   114  C    0.053580
   115  C    0.162173
   116  C    0.075207
   117  C    0.056223
   118  O   -0.206985
   119  C   -0.077533
   120  C    0.295597
   121  O   -0.257370
   122  O   -0.388891
   123  C    0.139768
   124  H   -0.000121
   125  H   -0.030096
   126  H   -0.003595
   127  H    0.037069
   128  H    0.045714
   129  H    0.048971
   130  H    0.034000
   131  H    0.036034
   132  H    0.037200
   133  H    0.027165
   134  H    0.055814
   135  H    0.044481
   136  H    0.060669
   137  H    0.065545
   138  H    0.024410
   139  H    0.059343
   140  H    0.051977
   141  H    0.063612
   142  H    0.053045
   143  H    0.024101
   144  H    0.042375
   145  H    0.053154
   146  H    0.040437
   147  H    0.043624
   148  H    0.030912
   149  H    0.022326
   150  H    0.048008
   151  H    0.040149
   152  H    0.047488
   153  H    0.037843
   154  H    0.062253
   155  H    0.083032
   156  H    0.056881
   157  H    0.068865
   158  H    0.036433
 Sum of Mulliken charges =  -0.00000

 Dipole moment (field-independent basis, Debye):
    X=              2.2409    Y=              5.1169    Z=             -1.2976  Tot=              5.7348
 Quadrupole moment (field-independent basis, Debye-Ang):
   XX=           -394.1876   YY=           -551.1212   ZZ=           -492.3457
   XY=            -12.8718   XZ=             27.8798   YZ=            -10.5121

 Normal termination of Gaussian 16 at Sat Sep 18 17:14:33 2021.
