 Gaussian 16, Revision A.03,
 Gaussian 16:  ES64L-G16RevA.03 25-Dec-2016

 --------------------------------
 #p wB97XD/Def2SVP td=(nstates=5)
 --------------------------------

 --------------------------------
 TDDFT excited states in gaussian
 --------------------------------
 Symbolic Z-matrix:
 Charge =  0 Multiplicity = 1

                         Standard orientation:
 ---------------------------------------------------------------------
 Center     Atomic      Atomic             Coordinates (Angstroms)
 Number     Number       Type             X           Y           Z
 ---------------------------------------------------------------------
      1         12           0       -9.544018   -0.847660    0.606034
      2          6           0      -10.010085    2.545322   -0.220616
      3          6           0       -7.481927    0.097590    3.132886
      4          6           0       -9.039761   -4.123188    1.281748
      5          6           0      -11.297353   -1.719984   -2.261615
      6          7           0       -8.758883    1.056770    1.299598
      7          6           0       -9.174684    2.325804    0.887493
      8          6           0       -8.604049    3.360059    1.810676
      9          6           0       -7.461620    2.587159    2.511571
     10          6           0       -7.935179    1.125771    2.301630
     11          6           0       -6.018576    2.758094    1.940438
     12          6           0       -9.618526    4.012144    2.823878
     13          6           0       -9.545475    5.504053    2.899241
     14          1           0       -9.559754    6.123161    4.309378
     15          7           0       -8.522090   -1.822874    2.048731
     16          6           0       -7.777792   -1.254568    3.095915
     17          6           0       -7.277248   -2.267193    3.937343
     18          6           0       -7.729914   -3.570692    3.419357
     19          6           0       -8.460977   -3.216393    2.236325
     20          6           0       -6.321537   -2.068284    5.077245
     21          6           0       -7.455549   -5.067119    3.882305
     22          8           0       -7.961559   -5.998516    3.302518
     23          6           0       -6.633102   -5.363686    5.128177
     24          7           0      -10.003488   -2.662836   -0.423280
     25          6           0       -9.659210   -3.878887    0.073902
     26          6           0      -10.134846   -5.039100   -0.925116
     27          6           0      -11.125328   -4.275681   -1.909113
     28          6           0      -10.797830   -2.770727   -1.522510
     29          6           0       -9.012646   -5.785245   -1.698454
     30          6           0      -12.640302   -4.635928   -1.707304
     31          6           0      -13.267235   -5.046931   -2.972897
     32          7           0      -10.429173    0.172459   -0.961908
     33          6           0      -11.206564   -0.318713   -2.009663
     34          6           0      -11.729271    0.774124   -2.783705
     35          6           0      -11.264563    1.901866   -2.138247
     36          6           0      -10.529949    1.521051   -1.059873
     37          6           0      -12.677660    0.561836   -3.992443
     38          6           0      -11.235068    3.352508   -2.174203
     39          8           0      -11.658686    4.085884   -3.040218
     40          6           0      -10.374499    3.841356   -0.905776
     41          6           0       -9.220410    4.624356   -1.384164
     42          8           0       -8.343947    4.190846   -2.177247
     43          8           0       -9.302895    5.878756   -0.854546
     44          6           0       -8.443817    6.886735   -1.530551
     45          1           0       -6.798413    0.473835    3.896841
     46          1           0       -8.913768   -5.199238    1.417253
     47          1           0      -11.783630   -2.009735   -3.194902
     48          1           0       -8.082845    4.171073    1.300609
     49          1           0       -7.359492    2.826852    3.570114
     50          1           0       -5.817501    3.751203    1.536562
     51          1           0       -5.888304    1.990875    1.176780
     52          1           0       -5.206421    2.506997    2.622204
     53          1           0       -9.406646    3.533734    3.779895
     54          1           0      -10.645323    3.712469    2.612136
     55          1           0      -10.417210    5.783823    2.307503
     56          1           0       -8.597781    5.844621    2.482324
     57          1           0       -6.747069   -2.176491    6.075142
     58          1           0       -5.972681   -1.036411    5.073528
     59          1           0       -5.418180   -2.676891    5.107666
     60          1           0       -6.726059   -6.436811    5.290540
     61          1           0       -6.917473   -4.719492    5.960706
     62          1           0       -5.619450   -4.983385    4.998411
     63          1           0      -10.596714   -5.848541   -0.359563
     64          1           0      -10.812570   -4.479540   -2.934269
     65          1           0       -7.997122   -5.412404   -1.561041
     66          1           0       -9.164315   -5.784905   -2.778138
     67          1           0       -9.043415   -6.823262   -1.366215
     68          1           0      -13.168245   -3.739928   -1.378749
     69          1           0      -12.823753   -5.455097   -1.012332
     70          1           0      -13.312733   -6.135990   -2.998871
     71          1           0      -12.866315   -4.666985   -3.911914
     72          1           0      -14.272393   -4.628939   -3.029119
     73          1           0      -13.083842   -0.449001   -3.948925
     74          1           0      -12.200104    0.846679   -4.931061
     75          1           0      -13.510249    1.236258   -3.795809
     76          1           0      -10.973161    4.443651   -0.221971
     77          1           0       -8.659594    7.884328   -1.148357
     78          1           0       -8.795588    6.906643   -2.562266
     79          1           0       -7.414644    6.542273   -1.425517
     80         12           0        9.735036   -0.473709   -0.142890
     81          6           0        7.904328    2.502095   -0.656039
     82          6           0       12.302502    1.345968    1.189421
     83          6           0       11.603749   -3.183368   -0.331971
     84          6           0        7.225302   -2.182108   -1.978225
     85          7           0        9.986879    1.685152    0.318428
     86          6           0        9.130669    2.646848    0.035203
     87          6           0        9.534071    3.886946    0.812262
     88          6           0       11.085468    3.692506    1.019952
     89          6           0       11.167635    2.132246    0.827556
     90          6           0       11.915752    4.593475    0.028674
     91          6           0        8.841681    3.972062    2.196754
     92          6           0        8.786665    5.421196    2.853175
     93          1           0        9.411541    6.642617    2.173603
     94          7           0       11.574799   -0.907977    0.534876
     95          6           0       12.517404   -0.043457    1.148257
     96          6           0       13.694092   -0.850291    1.547678
     97          6           0       13.513854   -2.177902    1.016840
     98          6           0       12.189647   -2.184481    0.358034
     99          6           0       14.827931   -0.319912    2.352178
    100          6           0       14.401170   -3.482239    1.064783
    101          8           0       14.042047   -4.582968    0.624953
    102          6           0       15.818148   -3.360530    1.545511
    103          7           0        9.500884   -2.406810   -1.141370
    104          6           0       10.385388   -3.360944   -1.021228
    105          6           0       10.008984   -4.669001   -1.658740
    106          6           0        8.574439   -4.360835   -2.214998
    107          6           0        8.355263   -2.911884   -1.674948
    108          6           0       11.086953   -5.160577   -2.629226
    109          6           0        7.483442   -5.303169   -1.722173
    110          6           0        6.400818   -5.739605   -2.773200
    111          7           0        7.840352   -0.026007   -1.101220
    112          6           0        6.917487   -0.852840   -1.771311
    113          6           0        5.740918   -0.099391   -2.038808
    114          6           0        6.113931    1.260660   -1.794020
    115          6           0        7.347125    1.245082   -1.193133
    116          6           0        4.410119   -0.666204   -2.442711
    117          6           0        5.721180    2.688839   -1.726993
    118          8           0        4.695365    3.233152   -2.078967
    119          6           0        6.993778    3.522690   -1.224027
    120          6           0        6.564339    4.733501   -0.462047
    121          8           0        5.930003    4.752411    0.551328
    122          8           0        6.915765    5.915843   -1.139851
    123          6           0        6.023191    7.078505   -0.947555
    124          1           0       13.227565    1.870209    1.439900
    125          1           0       12.077679   -4.166494   -0.322240
    126          1           0        6.438433   -2.755140   -2.473277
    127          1           0        9.138341    4.695798    0.198141
    128          1           0       11.389135    3.946943    2.035964
    129          1           0       11.245865    5.160739   -0.616651
    130          1           0       12.382249    3.868996   -0.638902
    131          1           0       12.572690    5.317567    0.510732
    132          1           0        9.443121    3.323704    2.835249
    133          1           0        7.843751    3.549328    2.080977
    134          1           0        9.235829    5.288698    3.838627
    135          1           0        7.725999    5.603670    3.027483
    136          1           0       14.734952    0.659169    2.820749
    137          1           0       15.736149   -0.204341    1.761330
    138          1           0       14.935126   -1.048869    3.155829
    139          1           0       15.931248   -3.458330    2.625103
    140          1           0       16.047296   -2.366563    1.159330
    141          1           0       16.384598   -4.113064    0.997629
    142          1           0        9.951703   -5.328147   -0.792611
    143          1           0        8.512464   -4.359332   -3.302539
    144          1           0       11.703182   -4.363319   -3.045987
    145          1           0       10.539385   -5.601360   -3.461345
    146          1           0       11.756687   -5.893416   -2.178680
    147          1           0        6.932843   -4.865285   -0.889759
    148          1           0        8.034232   -6.103323   -1.227947
    149          1           0        6.502993   -5.184566   -3.705564
    150          1           0        5.452097   -5.469869   -2.309695
    151          1           0        6.325906   -6.792984   -3.045161
    152          1           0        4.636255   -1.350366   -3.260707
    153          1           0        3.691620    0.071684   -2.800087
    154          1           0        3.999472   -1.264908   -1.629054
    155          1           0        7.464966    3.987287   -2.089596
    156          1           0        6.594177    7.855168   -0.438545
    157          1           0        5.122775    6.821985   -0.388305
    158          1           0        5.755287    7.400384   -1.953864
 ---------------------------------------------------------------------

 SCF Done:  E(RwB97XD) =  -4070.61802964     A.U. after   19 cycles

 Excitation energies and oscillator strengths:

 Excited State   1:      Singlet-A      1.6892 eV  733.98 nm  f=0.4047  <S**2>=0.000
     309 -> 316        0.18326
     312 -> 313        0.68244
     309 <- 316        0.11546
 This state for optimization and/or second-order correction.
 Total Energy, E(TD-HF/TD-DFT) =  -4070.55595275
 Copying the excited state density for this state as the 1-particle RhoCI density.

 Excited State   2:      Singlet-A      1.7660 eV  702.07 nm  f=0.3665  <S**2>=0.000
     310 -> 315        0.19124
     311 -> 314        0.67822
     310 <- 315        0.11019

 Excited State   3:      Singlet-A      2.1198 eV  584.88 nm  f=0.0813  <S**2>=0.000
     310 -> 314        0.63883
     311 -> 315       -0.27462

 Excited State   4:      Singlet-A      2.1429 eV  578.57 nm  f=0.1631  <S**2>=0.000
     309 -> 313        0.65057
     312 -> 316       -0.25181

 Excited State   5:      Singlet-A      3.2005 eV  387.39 nm  f=0.0019  <S**2>=0.000
     306 -> 313        0.30051
     307 -> 313        0.62116

 The electronic state is 1-A.
 Alpha  occ. eigenvalues --  -46.94896 -46.93372 -19.30659 -19.28510 -19.25451
 Alpha  occ. eigenvalues --  -19.24792 -19.24496 -19.24260 -19.23893 -19.23348
 Alpha  occ. eigenvalues --  -14.46553 -14.46496 -14.46345 -14.45919 -14.44469
 Alpha  occ. eigenvalues --  -14.43798 -14.42977 -14.42591 -10.43067 -10.42408
 Alpha  occ. eigenvalues --  -10.40886 -10.40215 -10.38860 -10.38785 -10.36369
 Alpha  occ. eigenvalues --  -10.35755 -10.35683 -10.34982 -10.34928 -10.34886
 Alpha  occ. eigenvalues --  -10.34674 -10.34626 -10.34570 -10.34528 -10.34463
 Alpha  occ. eigenvalues --  -10.34257 -10.34093 -10.33833 -10.33688 -10.33461
 Alpha  occ. eigenvalues --  -10.32988 -10.32909 -10.32423 -10.32293 -10.32235
 Alpha  occ. eigenvalues --  -10.32011 -10.32010 -10.32003 -10.31981 -10.31966
 Alpha  occ. eigenvalues --  -10.31872 -10.31838 -10.31757 -10.31687 -10.31671
 Alpha  occ. eigenvalues --  -10.31671 -10.31646 -10.31620 -10.31595 -10.31557
 Alpha  occ. eigenvalues --  -10.31530 -10.31415 -10.31306 -10.31025 -10.30850
 Alpha  occ. eigenvalues --  -10.30847 -10.30786 -10.30496 -10.30230 -10.30182
 Alpha  occ. eigenvalues --  -10.30156 -10.30150 -10.29971 -10.29971 -10.29819
 Alpha  occ. eigenvalues --  -10.29749 -10.29700 -10.29685 -10.29674 -10.29566
 Alpha  occ. eigenvalues --  -10.29479 -10.29411 -10.29052 -10.28397 -10.28324
 Alpha  occ. eigenvalues --  -10.28166  -3.20808  -3.19506  -1.94410  -1.93930
 Alpha  occ. eigenvalues --   -1.93769  -1.93107  -1.92624  -1.92507  -1.17718
 Alpha  occ. eigenvalues --   -1.17352  -1.13816  -1.12807  -1.12369  -1.11725
 Alpha  occ. eigenvalues --   -1.09212  -1.08300  -1.07130  -1.06765  -1.06543
 Alpha  occ. eigenvalues --   -1.05176  -1.04403  -1.03683  -1.03340  -1.03106
 Alpha  occ. eigenvalues --   -0.94361  -0.93761  -0.91178  -0.90874  -0.90871
 Alpha  occ. eigenvalues --   -0.90397  -0.89781  -0.89701  -0.89574  -0.89208
 Alpha  occ. eigenvalues --   -0.88786  -0.88217  -0.87598  -0.87336  -0.86015
 Alpha  occ. eigenvalues --   -0.85935  -0.85604  -0.85548  -0.84869  -0.84631
 Alpha  occ. eigenvalues --   -0.83903  -0.83631  -0.82971  -0.82605  -0.82455
 Alpha  occ. eigenvalues --   -0.81835  -0.80646  -0.80064  -0.79099  -0.79047
 Alpha  occ. eigenvalues --   -0.78511  -0.78314  -0.77462  -0.77323  -0.77119
 Alpha  occ. eigenvalues --   -0.76657  -0.74693  -0.74479  -0.73713  -0.72736
 Alpha  occ. eigenvalues --   -0.71763  -0.70635  -0.70418  -0.69884  -0.69338
 Alpha  occ. eigenvalues --   -0.69261  -0.68671  -0.68359  -0.67968  -0.67274
 Alpha  occ. eigenvalues --   -0.67146  -0.66948  -0.66579  -0.66406  -0.65872
 Alpha  occ. eigenvalues --   -0.65469  -0.63741  -0.63051  -0.62293  -0.62169
 Alpha  occ. eigenvalues --   -0.61916  -0.61114  -0.61078  -0.60603  -0.60042
 Alpha  occ. eigenvalues --   -0.59976  -0.59563  -0.59514  -0.59416  -0.58799
 Alpha  occ. eigenvalues --   -0.58495  -0.58030  -0.57462  -0.57432  -0.57225
 Alpha  occ. eigenvalues --   -0.57041  -0.56687  -0.56178  -0.55702  -0.55582
 Alpha  occ. eigenvalues --   -0.55372  -0.55178  -0.55162  -0.55087  -0.54787
 Alpha  occ. eigenvalues --   -0.54392  -0.54308  -0.54167  -0.53957  -0.53692
 Alpha  occ. eigenvalues --   -0.53674  -0.53578  -0.53358  -0.53306  -0.53192
 Alpha  occ. eigenvalues --   -0.52883  -0.52798  -0.52635  -0.52471  -0.52297
 Alpha  occ. eigenvalues --   -0.52096  -0.51958  -0.51864  -0.51568  -0.51204
 Alpha  occ. eigenvalues --   -0.51199  -0.51177  -0.50944  -0.50859  -0.50666
 Alpha  occ. eigenvalues --   -0.50465  -0.50263  -0.49968  -0.49786  -0.49708
 Alpha  occ. eigenvalues --   -0.49499  -0.49422  -0.49254  -0.48991  -0.48964
 Alpha  occ. eigenvalues --   -0.48591  -0.48577  -0.48457  -0.48403  -0.48208
 Alpha  occ. eigenvalues --   -0.48111  -0.47891  -0.47611  -0.47511  -0.47461
 Alpha  occ. eigenvalues --   -0.47367  -0.47153  -0.46980  -0.46814  -0.46780
 Alpha  occ. eigenvalues --   -0.46518  -0.46413  -0.46243  -0.46183  -0.46112
 Alpha  occ. eigenvalues --   -0.45912  -0.45665  -0.45355  -0.45184  -0.45118
 Alpha  occ. eigenvalues --   -0.45037  -0.44738  -0.44691  -0.44594  -0.44559
 Alpha  occ. eigenvalues --   -0.44403  -0.44235  -0.44154  -0.43964  -0.43684
 Alpha  occ. eigenvalues --   -0.43648  -0.43614  -0.43483  -0.43292  -0.43093
 Alpha  occ. eigenvalues --   -0.42974  -0.42925  -0.42707  -0.42211  -0.42043
 Alpha  occ. eigenvalues --   -0.41911  -0.41737  -0.40995  -0.40883  -0.40739
 Alpha  occ. eigenvalues --   -0.40555  -0.40112  -0.39747  -0.39722  -0.39623
 Alpha  occ. eigenvalues --   -0.39595  -0.38570  -0.38414  -0.38220  -0.37748
 Alpha  occ. eigenvalues --   -0.37701  -0.37387  -0.36251  -0.36068  -0.35899
 Alpha  occ. eigenvalues --   -0.35808  -0.35242  -0.35199  -0.33946  -0.33602
 Alpha  occ. eigenvalues --   -0.33436  -0.33311  -0.32657  -0.32535  -0.32053
 Alpha  occ. eigenvalues --   -0.31995  -0.31583  -0.30412  -0.25713  -0.25692
 Alpha  occ. eigenvalues --   -0.23178  -0.23170
 Alpha virt. eigenvalues --   -0.07202  -0.06841  -0.00120   0.00811   0.01862
 Alpha virt. eigenvalues --    0.02946   0.04861   0.05035   0.05995   0.06643
 Alpha virt. eigenvalues --    0.06890   0.06948   0.08081   0.08230   0.08841

 Mulliken charges:
               1
     1  Mg   0.978763
     2  C   -0.032793
     3  C   -0.099245
     4  C   -0.063906
     5  C   -0.089771
     6  N   -0.322203
     7  C    0.015541
     8  C   -0.082530
     9  C   -0.128592
    10  C    0.030515
    11  C    0.020445
    12  C    0.044954
    13  C   -0.121058
    14  H    0.030481
    15  N   -0.523029
    16  C    0.241761
    17  C   -0.148973
    18  C   -0.081598
    19  C    0.154670
    20  C    0.041648
    21  C    0.076157
    22  O   -0.214082
    23  C   -0.007700
    24  N   -0.359149
    25  C    0.071859
    26  C   -0.108478
    27  C   -0.079615
    28  C    0.063600
    29  C    0.008435
    30  C    0.027560
    31  C   -0.073963
    32  N   -0.443838
    33  C    0.130309
    34  C   -0.214774
    35  C    0.007948
    36  C    0.121397
    37  C    0.094279
    38  C    0.108321
    39  O   -0.190984
    40  C   -0.041891
    41  C    0.275576
    42  O   -0.281366
    43  O   -0.372243
    44  C    0.141448
    45  H   -0.010669
    46  H    0.021307
    47  H   -0.003887
    48  H    0.027163
    49  H    0.025636
    50  H    0.045924
    51  H    0.043657
    52  H    0.034096
    53  H    0.029941
    54  H    0.029715
    55  H    0.064992
    56  H    0.054583
    57  H    0.050795
    58  H    0.023657
    59  H    0.045480
    60  H    0.070418
    61  H    0.046583
    62  H    0.048793
    63  H    0.037540
    64  H    0.037667
    65  H    0.044297
    66  H    0.029563
    67  H    0.036626
    68  H    0.035348
    69  H    0.037283
    70  H    0.038626
    71  H    0.028206
    72  H    0.026505
    73  H    0.030569
    74  H    0.066445
    75  H    0.049158
    76  H    0.057402
    77  H    0.060173
    78  H    0.063975
    79  H    0.068547
    80  Mg   0.949107
    81  C    0.045542
    82  C   -0.095167
    83  C   -0.065692
    84  C   -0.086011
    85  N   -0.314035
    86  C    0.001173
    87  C   -0.120518
    88  C   -0.103149
    89  C    0.089186
    90  C    0.034997
    91  C   -0.006324
    92  C   -0.094812
    93  H    0.041625
    94  N   -0.554567
    95  C    0.175974
    96  C   -0.150977
    97  C   -0.082866
    98  C    0.208228
    99  C    0.034998
   100  C    0.081962
   101  O   -0.237281
   102  C   -0.013196
   103  N   -0.304501
   104  C   -0.029793
   105  C   -0.047687
   106  C   -0.103653
   107  C    0.058231
   108  C    0.030134
   109  C   -0.003880
   110  C   -0.057141
   111  N   -0.438165
   112  C    0.134144
   113  C   -0.193280
   114  C   -0.035124
   115  C    0.077282
   116  C    0.080492
   117  C    0.135207
   118  O   -0.202380
   119  C   -0.092999
   120  C    0.220771
   121  O   -0.208592
   122  O   -0.410190
   123  C    0.136821
   124  H    0.001464
   125  H    0.012985
   126  H   -0.021802
   127  H    0.032048
   128  H    0.036068
   129  H    0.038471
   130  H    0.033071
   131  H    0.048348
   132  H    0.023322
   133  H    0.054264
   134  H    0.041655
   135  H    0.065081
   136  H    0.042924
   137  H    0.065353
   138  H    0.060701
   139  H    0.079936
   140  H    0.041689
   141  H    0.065230
   142  H    0.042143
   143  H    0.040383
   144  H    0.046725
   145  H    0.033258
   146  H    0.056276
   147  H    0.030561
   148  H    0.022306
   149  H    0.036197
   150  H    0.038540
   151  H    0.045797
   152  H    0.036308
   153  H    0.058928
   154  H    0.050669
   155  H    0.080429
   156  H    0.051856
   157  H    0.068910
   158  H    0.056012
 Sum of Mulliken charges =  -0.00000

 Dipole moment (field-independent basis, Debye):
    X=              7.2036    Y=             -2.1895    Z=              5.5498  Tot=              9.3533
 Quadrupole moment (field-independent basis, Debye-Ang):
   XX=           -424.8254   YY=           -491.0828   ZZ=           -495.9900
   XY=             22.5900   XZ=             -1.4823   YZ=             26.5557

 Normal termination of Gaussian 16 at Sat Sep 18 16:53:10 2021.
