 Gaussian 16, Revision A.03,
 Gaussian 16:  ES64L-G16RevA.03 25-Dec-2016

 --------------------------------
 #p wB97XD/Def2SVP td=(nstates=5)
 --------------------------------

 --------------------------------
 TDDFT excited states in gaussian
 --------------------------------
 Symbolic Z-matrix:
 Charge =  0 Multiplicity = 1

                         Standard orientation:
 ---------------------------------------------------------------------
 Center     Atomic      Atomic             Coordinates (Angstroms)
 Number     Number       Type             X           Y           Z
 ---------------------------------------------------------------------
      1         12           0       -4.162245   -0.507185    1.064737
      2          6           0       -5.552409    2.210634   -0.586105
      3          6           0       -2.356935    1.576199    3.007541
      4          6           0       -2.759518   -3.207826    2.458930
      5          6           0       -5.954719   -2.588299   -1.107354
      6          7           0       -4.050069    1.675515    1.158109
      7          6           0       -4.738393    2.571959    0.492640
      8          6           0       -4.317644    4.010455    1.046868
      9          6           0       -2.912146    3.664691    1.491254
     10          6           0       -3.100328    2.190763    1.972347
     11          6           0       -1.915378    3.882241    0.332445
     12          6           0       -5.403660    4.556665    2.070333
     13          6           0       -5.365668    6.071821    2.292216
     14          1           0       -4.194644    6.863863    1.736736
     15          7           0       -2.906837   -0.779053    2.627935
     16          6           0       -2.315777    0.243190    3.366721
     17          6           0       -1.652487   -0.382905    4.549602
     18          6           0       -1.706369   -1.830097    4.367247
     19          6           0       -2.416502   -1.942787    3.065540
     20          6           0       -1.006135    0.426493    5.648843
     21          6           0       -1.208810   -3.031075    5.296955
     22          8           0       -1.396398   -4.224040    5.035170
     23          6           0       -0.487294   -2.643498    6.570849
     24          7           0       -4.238984   -2.536202    0.665919
     25          6           0       -3.569406   -3.454836    1.356946
     26          6           0       -3.742975   -4.892788    0.777741
     27          6           0       -4.931410   -4.659667   -0.166088
     28          6           0       -5.118072   -3.175035   -0.183688
     29          6           0       -2.476445   -5.472253    0.087949
     30          6           0       -6.247751   -5.533123    0.041642
     31          6           0       -7.416816   -4.871808    0.694472
     32          7           0       -5.326139   -0.296495   -0.658651
     33          6           0       -6.029543   -1.197684   -1.384594
     34          6           0       -6.772932   -0.607499   -2.440052
     35          6           0       -6.622635    0.788508   -2.166783
     36          6           0       -5.759435    0.860819   -1.097401
     37          6           0       -7.565743   -1.154978   -3.598471
     38          6           0       -6.974041    2.127529   -2.535486
     39          8           0       -7.677539    2.567396   -3.419168
     40          6           0       -6.437518    3.117322   -1.452749
     41          6           0       -5.713781    4.212963   -2.104591
     42          8           0       -4.713991    4.026330   -2.781323
     43          8           0       -6.377599    5.464129   -2.029040
     44          6           0       -5.752448    6.572282   -2.767957
     45          1           0       -1.741691    2.280398    3.569506
     46          1           0       -2.252374   -4.064469    2.906025
     47          1           0       -6.458821   -3.267958   -1.797071
     48          1           0       -4.341112    4.738129    0.236789
     49          1           0       -2.574757    4.204139    2.375922
     50          1           0       -1.321682    4.721083    0.697281
     51          1           0       -2.404635    4.140317   -0.607692
     52          1           0       -1.273069    3.001919    0.323211
     53          1           0       -5.268442    4.087720    3.045375
     54          1           0       -6.363211    4.340220    1.600164
     55          1           0       -5.423060    6.228515    3.368928
     56          1           0       -6.289372    6.472627    1.875531
     57          1           0       -1.536593    1.364301    5.817770
     58          1           0        0.050984    0.664366    5.534978
     59          1           0       -1.112434   -0.121468    6.584962
     60          1           0        0.288747   -1.961707    6.223771
     61          1           0        0.024435   -3.465147    7.071136
     62          1           0       -1.195214   -2.214784    7.280374
     63          1           0       -4.004864   -5.606606    1.558601
     64          1           0       -4.535659   -4.814587   -1.169157
     65          1           0       -2.844288   -5.950368   -0.820231
     66          1           0       -1.873729   -6.170027    0.667211
     67          1           0       -1.797428   -4.642552   -0.108788
     68          1           0       -5.967533   -6.463027    0.536606
     69          1           0       -6.656571   -5.790525   -0.935185
     70          1           0       -8.197757   -4.774720   -0.060092
     71          1           0       -7.291038   -3.820507    0.956326
     72          1           0       -7.853568   -5.434929    1.519313
     73          1           0       -7.490400   -2.240017   -3.678208
     74          1           0       -7.287212   -0.614990   -4.503886
     75          1           0       -8.650494   -1.071788   -3.528058
     76          1           0       -7.245180    3.543987   -0.858579
     77          1           0       -6.170166    7.557451   -2.561925
     78          1           0       -5.918192    6.296054   -3.809623
     79          1           0       -4.686263    6.490688   -2.559847
     80         12           0        4.146204   -0.828802   -0.917334
     81          6           0        6.220053    1.960277   -0.322053
     82          6           0        1.420487    1.252723   -0.695678
     83          6           0        2.098041   -3.446417   -1.400698
     84          6           0        6.887415   -2.973780   -0.559539
     85          7           0        3.959513    1.337455   -0.685465
     86          6           0        4.834990    2.314984   -0.469209
     87          6           0        4.259389    3.741000   -0.343784
     88          6           0        2.719821    3.314249   -0.189426
     89          6           0        2.699467    1.838414   -0.504308
     90          6           0        2.142598    3.605591    1.174490
     91          6           0        4.524348    4.687539   -1.641254
     92          6           0        4.546168    6.180633   -1.301194
     93          1           0        5.892927    6.882546   -1.613331
     94          7           0        2.021872   -1.072857   -1.202952
     95          6           0        1.065835   -0.044846   -1.011181
     96          6           0       -0.196963   -0.557015   -1.493627
     97          6           0       -0.030014   -1.918555   -1.730123
     98          6           0        1.411902   -2.223765   -1.470277
     99          6           0       -1.490905    0.234819   -1.481219
    100          6           0       -0.989996   -2.976001   -2.225101
    101          8           0       -0.595213   -4.086089   -2.432890
    102          6           0       -2.419346   -2.666870   -2.541229
    103          7           0        4.391372   -2.913474   -0.779076
    104          6           0        3.404886   -3.801577   -1.095050
    105          6           0        4.062766   -5.209286   -1.077559
    106          6           0        5.534713   -4.990794   -1.378484
    107          6           0        5.674498   -3.539876   -0.860731
    108          6           0        3.916924   -5.818186    0.316290
    109          6           0        5.912111   -5.175941   -2.801614
    110          6           0        5.066819   -4.534802   -3.874231
    111          7           0        6.162915   -0.616735   -0.555898
    112          6           0        7.170130   -1.553902   -0.422786
    113          6           0        8.441051   -0.852722   -0.183577
    114          6           0        8.100963    0.511136   -0.166004
    115          6           0        6.753912    0.596733   -0.389850
    116          6           0        9.751269   -1.474854    0.040533
    117          6           0        8.615867    1.854086   -0.149979
    118          8           0        9.804037    2.284930   -0.075184
    119          6           0        7.364280    2.843893   -0.287310
    120          6           0        7.345808    3.681268    0.965202
    121          8           0        7.451158    3.214028    2.060323
    122          8           0        7.132520    5.072681    0.769234
    123          6           0        6.792169    5.842862    2.004064
    124          1           0        0.540354    1.887276   -0.577351
    125          1           0        1.458070   -4.329992   -1.454671
    126          1           0        7.804937   -3.564132   -0.610774
    127          1           0        4.719982    4.256524    0.499866
    128          1           0        2.208836    3.908803   -0.947731
    129          1           0        1.608940    4.551231    1.080591
    130          1           0        2.891126    3.576446    1.966580
    131          1           0        1.348561    2.866875    1.283105
    132          1           0        3.736410    4.532583   -2.378956
    133          1           0        5.446844    4.398343   -2.145114
    134          1           0        4.282429    6.164135   -0.243510
    135          1           0        3.725048    6.721113   -1.771704
    136          1           0       -1.167304    1.272828   -1.414242
    137          1           0       -1.930192   -0.039532   -0.522549
    138          1           0       -2.081935    0.081873   -2.384439
    139          1           0       -2.276790   -2.085381   -3.452241
    140          1           0       -2.924371   -2.045855   -1.801865
    141          1           0       -2.977267   -3.587821   -2.714004
    142          1           0        3.615738   -5.939929   -1.750781
    143          1           0        6.220751   -5.662652   -0.863741
    144          1           0        4.765883   -5.814861    1.000003
    145          1           0        3.600269   -6.852890    0.185479
    146          1           0        3.091001   -5.312310    0.817626
    147          1           0        6.029998   -6.229187   -3.057422
    148          1           0        6.906984   -4.735583   -2.865382
    149          1           0        5.690366   -3.754431   -4.311422
    150          1           0        4.103131   -4.061782   -3.683079
    151          1           0        4.908219   -5.270526   -4.662525
    152          1           0        9.733793   -1.957486    1.017645
    153          1           0       10.449840   -0.642845   -0.047399
    154          1           0        9.945186   -2.269233   -0.681455
    155          1           0        7.541780    3.377907   -1.220993
    156          1           0        7.690403    6.029909    2.592445
    157          1           0        6.056731    5.341042    2.634529
    158          1           0        6.419784    6.854880    1.847761
 ---------------------------------------------------------------------

 SCF Done:  E(RwB97XD) =  -4070.63436497     A.U. after   18 cycles

 Excitation energies and oscillator strengths:

 Excited State   1:      Singlet-A      1.6472 eV  752.68 nm  f=0.3730  <S**2>=0.000
     310 -> 316       -0.17423
     312 -> 314        0.68428
     310 <- 316       -0.11245
 This state for optimization and/or second-order correction.
 Total Energy, E(TD-HF/TD-DFT) =  -4070.57382987
 Copying the excited state density for this state as the 1-particle RhoCI density.

 Excited State   2:      Singlet-A      1.6886 eV  734.26 nm  f=0.3912  <S**2>=0.000
     309 -> 315       -0.17762
     311 -> 313        0.68339
     309 <- 315       -0.11306

 Excited State   3:      Singlet-A      2.1282 eV  582.58 nm  f=0.0308  <S**2>=0.000
     309 -> 313       -0.23336
     310 -> 314        0.60529
     312 -> 316        0.24924

 Excited State   4:      Singlet-A      2.1668 eV  572.21 nm  f=0.1855  <S**2>=0.000
     309 -> 313        0.60915
     310 -> 314        0.22229
     311 -> 315        0.24401
     312 -> 316        0.10407

 Excited State   5:      Singlet-A      2.5926 eV  478.22 nm  f=0.0001  <S**2>=0.000
     312 -> 313        0.70353

 The electronic state is 1-A.
 Alpha  occ. eigenvalues --  -46.94913 -46.94850 -19.29809 -19.29791 -19.25961
 Alpha  occ. eigenvalues --  -19.25138 -19.25005 -19.24054 -19.23542 -19.23256
 Alpha  occ. eigenvalues --  -14.48009 -14.47349 -14.46689 -14.45890 -14.45436
 Alpha  occ. eigenvalues --  -14.44280 -14.43941 -14.43594 -10.43435 -10.43299
 Alpha  occ. eigenvalues --  -10.41675 -10.39009 -10.38741 -10.38717 -10.36218
 Alpha  occ. eigenvalues --  -10.35947 -10.35892 -10.35848 -10.35571 -10.35399
 Alpha  occ. eigenvalues --  -10.35344 -10.35230 -10.35163 -10.35155 -10.35071
 Alpha  occ. eigenvalues --  -10.35016 -10.34705 -10.34471 -10.34372 -10.33798
 Alpha  occ. eigenvalues --  -10.33546 -10.33408 -10.33292 -10.33219 -10.32980
 Alpha  occ. eigenvalues --  -10.32975 -10.32814 -10.32793 -10.32756 -10.32721
 Alpha  occ. eigenvalues --  -10.32566 -10.32492 -10.32324 -10.32310 -10.32272
 Alpha  occ. eigenvalues --  -10.32249 -10.32236 -10.32075 -10.32011 -10.31964
 Alpha  occ. eigenvalues --  -10.31650 -10.31610 -10.31469 -10.31352 -10.31157
 Alpha  occ. eigenvalues --  -10.31151 -10.31121 -10.31090 -10.30940 -10.30669
 Alpha  occ. eigenvalues --  -10.30576 -10.30539 -10.30530 -10.30470 -10.30206
 Alpha  occ. eigenvalues --  -10.30136 -10.29993 -10.29625 -10.29299 -10.29250
 Alpha  occ. eigenvalues --  -10.28935 -10.28903 -10.28830 -10.28622 -10.28354
 Alpha  occ. eigenvalues --  -10.28215  -3.21018  -3.20847  -1.94637  -1.94460
 Alpha  occ. eigenvalues --   -1.94110  -1.94040  -1.93947  -1.93833  -1.17803
 Alpha  occ. eigenvalues --   -1.17328  -1.14282  -1.13139  -1.12406  -1.09635
 Alpha  occ. eigenvalues --   -1.09633  -1.08843  -1.08319  -1.07472  -1.07305
 Alpha  occ. eigenvalues --   -1.06809  -1.05879  -1.05570  -1.04884  -1.03723
 Alpha  occ. eigenvalues --   -0.94903  -0.94776  -0.91951  -0.91638  -0.91330
 Alpha  occ. eigenvalues --   -0.91272  -0.90768  -0.90707  -0.89821  -0.89741
 Alpha  occ. eigenvalues --   -0.89516  -0.88810  -0.88799  -0.88072  -0.86951
 Alpha  occ. eigenvalues --   -0.86597  -0.85915  -0.85391  -0.85298  -0.84908
 Alpha  occ. eigenvalues --   -0.84431  -0.84248  -0.83481  -0.82986  -0.82683
 Alpha  occ. eigenvalues --   -0.81865  -0.81114  -0.80778  -0.79572  -0.79287
 Alpha  occ. eigenvalues --   -0.79248  -0.78987  -0.78606  -0.78260  -0.77413
 Alpha  occ. eigenvalues --   -0.76915  -0.75429  -0.74397  -0.73763  -0.73294
 Alpha  occ. eigenvalues --   -0.71576  -0.71555  -0.71321  -0.70799  -0.70552
 Alpha  occ. eigenvalues --   -0.69803  -0.69214  -0.69039  -0.67780  -0.67686
 Alpha  occ. eigenvalues --   -0.67080  -0.66938  -0.66846  -0.66607  -0.66187
 Alpha  occ. eigenvalues --   -0.65302  -0.63887  -0.63778  -0.63210  -0.62355
 Alpha  occ. eigenvalues --   -0.62217  -0.61911  -0.61740  -0.61109  -0.60941
 Alpha  occ. eigenvalues --   -0.60747  -0.60563  -0.60521  -0.60145  -0.59537
 Alpha  occ. eigenvalues --   -0.58353  -0.58347  -0.58305  -0.57937  -0.57682
 Alpha  occ. eigenvalues --   -0.57215  -0.56714  -0.56588  -0.56413  -0.56239
 Alpha  occ. eigenvalues --   -0.56057  -0.55902  -0.55740  -0.55620  -0.55539
 Alpha  occ. eigenvalues --   -0.55495  -0.55115  -0.55006  -0.54780  -0.54623
 Alpha  occ. eigenvalues --   -0.54420  -0.54344  -0.53863  -0.53752  -0.53602
 Alpha  occ. eigenvalues --   -0.53416  -0.53281  -0.53101  -0.52843  -0.52793
 Alpha  occ. eigenvalues --   -0.52642  -0.52604  -0.52087  -0.51890  -0.51825
 Alpha  occ. eigenvalues --   -0.51685  -0.51592  -0.51474  -0.51377  -0.51295
 Alpha  occ. eigenvalues --   -0.51108  -0.51061  -0.50987  -0.50603  -0.50300
 Alpha  occ. eigenvalues --   -0.50241  -0.50129  -0.49927  -0.49706  -0.49648
 Alpha  occ. eigenvalues --   -0.49383  -0.49122  -0.49004  -0.48819  -0.48622
 Alpha  occ. eigenvalues --   -0.48516  -0.48217  -0.48150  -0.48046  -0.47788
 Alpha  occ. eigenvalues --   -0.47637  -0.47418  -0.47226  -0.47208  -0.47120
 Alpha  occ. eigenvalues --   -0.46833  -0.46759  -0.46464  -0.46396  -0.46139
 Alpha  occ. eigenvalues --   -0.46071  -0.45948  -0.45819  -0.45649  -0.45609
 Alpha  occ. eigenvalues --   -0.45508  -0.45379  -0.45003  -0.44983  -0.44850
 Alpha  occ. eigenvalues --   -0.44757  -0.44716  -0.44539  -0.44400  -0.44379
 Alpha  occ. eigenvalues --   -0.43773  -0.43736  -0.43581  -0.43488  -0.43253
 Alpha  occ. eigenvalues --   -0.42945  -0.42894  -0.42769  -0.42727  -0.42286
 Alpha  occ. eigenvalues --   -0.42135  -0.42051  -0.41834  -0.41640  -0.41426
 Alpha  occ. eigenvalues --   -0.40838  -0.40621  -0.40281  -0.39909  -0.39628
 Alpha  occ. eigenvalues --   -0.39281  -0.39258  -0.39096  -0.38689  -0.38426
 Alpha  occ. eigenvalues --   -0.38294  -0.38221  -0.37126  -0.36671  -0.36607
 Alpha  occ. eigenvalues --   -0.36477  -0.36114  -0.35375  -0.34589  -0.33978
 Alpha  occ. eigenvalues --   -0.33828  -0.33341  -0.33210  -0.32793  -0.32394
 Alpha  occ. eigenvalues --   -0.32289  -0.32122  -0.31426  -0.26498  -0.26049
 Alpha  occ. eigenvalues --   -0.23882  -0.23179
 Alpha virt. eigenvalues --   -0.07806  -0.07256  -0.00041   0.00203   0.01496
 Alpha virt. eigenvalues --    0.02462   0.03916   0.04280   0.06044   0.06278
 Alpha virt. eigenvalues --    0.06347   0.07023   0.07543   0.07661   0.07995

 Mulliken charges:
               1
     1  Mg   0.925030
     2  C   -0.030016
     3  C   -0.089178
     4  C   -0.071912
     5  C   -0.107335
     6  N   -0.308180
     7  C   -0.028194
     8  C   -0.083603
     9  C   -0.109607
    10  C    0.030173
    11  C    0.059462
    12  C    0.017807
    13  C   -0.109821
    14  H    0.036429
    15  N   -0.474350
    16  C    0.189659
    17  C   -0.156917
    18  C   -0.105531
    19  C    0.124941
    20  C    0.048653
    21  C    0.103505
    22  O   -0.225423
    23  C   -0.030663
    24  N   -0.378874
    25  C    0.078550
    26  C   -0.103342
    27  C   -0.016210
    28  C    0.033784
    29  C    0.027071
    30  C   -0.003344
    31  C   -0.048844
    32  N   -0.371848
    33  C    0.109547
    34  C   -0.177189
    35  C   -0.020694
    36  C    0.093081
    37  C    0.085446
    38  C    0.095229
    39  O   -0.202677
    40  C   -0.020069
    41  C    0.245138
    42  O   -0.254786
    43  O   -0.401634
    44  C    0.147546
    45  H    0.005897
    46  H    0.020371
    47  H   -0.006194
    48  H    0.020949
    49  H    0.006316
    50  H    0.038157
    51  H    0.073732
    52  H    0.024114
    53  H    0.036972
    54  H    0.042814
    55  H    0.047267
    56  H    0.054483
    57  H    0.040807
    58  H    0.068823
    59  H    0.032861
    60  H    0.061202
    61  H    0.058432
    62  H    0.081559
    63  H    0.037146
    64  H    0.021022
    65  H    0.043330
    66  H    0.043442
    67  H    0.046554
    68  H    0.035763
    69  H    0.027555
    70  H    0.018146
    71  H    0.047107
    72  H    0.041995
    73  H    0.016647
    74  H    0.065519
    75  H    0.047676
    76  H    0.069906
    77  H    0.065606
    78  H    0.058243
    79  H    0.046397
    80  Mg   0.953206
    81  C   -0.043642
    82  C   -0.086234
    83  C   -0.074720
    84  C   -0.071847
    85  N   -0.321073
    86  C   -0.004361
    87  C   -0.076593
    88  C   -0.139543
    89  C    0.112603
    90  C    0.054638
    91  C    0.008896
    92  C   -0.101711
    93  H    0.060693
    94  N   -0.445882
    95  C    0.151926
    96  C   -0.182296
    97  C   -0.046210
    98  C    0.149880
    99  C    0.058595
   100  C    0.016038
   101  O   -0.212865
   102  C   -0.016452
   103  N   -0.406391
   104  C    0.080580
   105  C   -0.093992
   106  C   -0.043973
   107  C    0.108082
   108  C    0.033990
   109  C    0.007540
   110  C   -0.069687
   111  N   -0.442548
   112  C    0.083338
   113  C   -0.209631
   114  C    0.006583
   115  C    0.127249
   116  C    0.079155
   117  C    0.098923
   118  O   -0.252076
   119  C   -0.045465
   120  C    0.263304
   121  O   -0.211435
   122  O   -0.401094
   123  C    0.136413
   124  H   -0.020411
   125  H    0.020451
   126  H   -0.000666
   127  H    0.036863
   128  H    0.039015
   129  H    0.031843
   130  H    0.055253
   131  H    0.020357
   132  H    0.029450
   133  H    0.043184
   134  H    0.025934
   135  H    0.045205
   136  H    0.034201
   137  H    0.098282
   138  H    0.078136
   139  H    0.062624
   140  H    0.085230
   141  H    0.054575
   142  H    0.024822
   143  H    0.017973
   144  H    0.044622
   145  H    0.032695
   146  H    0.032090
   147  H    0.031923
   148  H    0.016138
   149  H    0.030946
   150  H    0.057062
   151  H    0.029973
   152  H    0.053180
   153  H    0.066001
   154  H    0.035091
   155  H    0.077914
   156  H    0.056799
   157  H    0.048255
   158  H    0.051658
 Sum of Mulliken charges =  -0.00000

 Dipole moment (field-independent basis, Debye):
    X=             -5.0331    Y=              0.6942    Z=              4.1055  Tot=              6.5322
 Quadrupole moment (field-independent basis, Debye-Ang):
   XX=           -600.4538   YY=           -471.2365   ZZ=           -502.1866
   XY=            -17.5221   XZ=            -29.4525   YZ=             23.8353

 Normal termination of Gaussian 16 at Mon Sep 20 18:58:34 2021.
