 Gaussian 16, Revision A.03,
 Gaussian 16:  ES64L-G16RevA.03 25-Dec-2016

 --------------------------------
 #p wB97XD/Def2SVP td=(nstates=5)
 --------------------------------

 --------------------------------
 TDDFT excited states in gaussian
 --------------------------------
 Symbolic Z-matrix:
 Charge =  0 Multiplicity = 1

                         Standard orientation:
 ---------------------------------------------------------------------
 Center     Atomic      Atomic             Coordinates (Angstroms)
 Number     Number       Type             X           Y           Z
 ---------------------------------------------------------------------
      1         12           0      -16.500283    0.508981    0.233593
      2          6           0      -15.110998   -2.064809   -1.520016
      3          6           0      -17.150105   -1.752582    2.874991
      4          6           0      -18.079341    2.951071    1.893714
      5          6           0      -15.758940    2.625607   -2.368154
      6          7           0      -16.464076   -1.694769    0.519514
      7          6           0      -15.724093   -2.531031   -0.326152
      8          6           0      -15.668509   -3.991815    0.203921
      9          6           0      -16.397648   -3.785564    1.558178
     10          6           0      -16.765806   -2.316030    1.654392
     11          6           0      -17.631144   -4.690274    1.984798
     12          6           0      -14.223468   -4.637125    0.377075
     13          6           0      -14.296275   -6.079675    0.945610
     14          1           0      -13.956799   -7.154197   -0.088318
     15          7           0      -17.457274    0.589714    2.191354
     16          6           0      -17.385944   -0.382336    3.165910
     17          6           0      -18.143048    0.137822    4.298443
     18          6           0      -18.415357    1.510570    3.994871
     19          6           0      -17.968433    1.764202    2.661383
     20          6           0      -18.402104   -0.700632    5.490291
     21          6           0      -19.224758    2.454595    4.951046
     22          8           0      -19.650971    3.578157    4.615072
     23          6           0      -19.592700    1.986777    6.334974
     24          7           0      -16.872710    2.386699   -0.165237
     25          6           0      -17.585352    3.273912    0.689617
     26          6           0      -17.949077    4.549224   -0.036451
     27          6           0      -16.847113    4.571777   -1.093974
     28          6           0      -16.402441    3.120865   -1.211611
     29          6           0      -19.387054    4.512461   -0.654611
     30          6           0      -15.623080    5.411310   -0.664774
     31          6           0      -15.644021    6.893892   -0.923614
     32          7           0      -15.650557    0.409320   -1.642189
     33          6           0      -15.270201    1.344122   -2.527949
     34          6           0      -14.643134    0.709119   -3.649288
     35          6           0      -14.530629   -0.622640   -3.310787
     36          6           0      -15.124858   -0.757595   -2.046420
     37          6           0      -14.155304    1.470635   -4.832104
     38          6           0      -14.043242   -1.854043   -3.766473
     39          8           0      -13.438355   -2.161688   -4.775356
     40          6           0      -14.404975   -2.878890   -2.591577
     41          6           0      -15.228928   -3.970973   -3.176113
     42          8           0      -16.350127   -3.884231   -3.614483
     43          8           0      -14.630731   -5.157476   -3.033810
     44          6           0      -15.395221   -6.360607   -3.543017
     45          1           0      -17.174002   -2.467406    3.699988
     46          1           0      -18.585454    3.759038    2.425850
     47          1           0      -15.377972    3.254036   -3.175424
     48          1           0      -16.272496   -4.619254   -0.451611
     49          1           0      -15.687819   -3.917539    2.375321
     50          1           0      -17.698330   -4.948121    3.042063
     51          1           0      -17.732642   -5.526003    1.292215
     52          1           0      -18.494283   -4.039454    1.845707
     53          1           0      -13.701012   -3.915940    1.004391
     54          1           0      -13.735828   -4.645192   -0.597643
     55          1           0      -15.251221   -6.233346    1.448172
     56          1           0      -13.517880   -6.150570    1.704763
     57          1           0      -19.470444   -0.915384    5.521879
     58          1           0      -17.954029   -0.168374    6.329371
     59          1           0      -17.843425   -1.635046    5.434991
     60          1           0      -20.095931    2.788467    6.875494
     61          1           0      -18.629840    1.872679    6.834844
     62          1           0      -20.161924    1.060636    6.410218
     63          1           0      -17.906184    5.409412    0.632209
     64          1           0      -17.189243    4.918837   -2.068744
     65          1           0      -19.418188    3.876524   -1.538469
     66          1           0      -19.720001    5.521733   -0.898173
     67          1           0      -20.027723    4.117379    0.133005
     68          1           0      -14.684907    5.028117   -1.064127
     69          1           0      -15.438680    5.265095    0.399611
     70          1           0      -15.545156    7.379548    0.046772
     71          1           0      -16.676242    7.074445   -1.224049
     72          1           0      -14.936725    7.232513   -1.680867
     73          1           0      -13.089111    1.673328   -4.738632
     74          1           0      -14.715401    2.350563   -5.150010
     75          1           0      -14.244973    0.777608   -5.668809
     76          1           0      -13.474276   -3.286191   -2.195934
     77          1           0      -16.394668   -6.307561   -3.110724
     78          1           0      -14.967715   -7.310118   -3.219823
     79          1           0      -15.430807   -6.294533   -4.630653
     80         12           0       15.893508    0.730014   -0.171011
     81          6           0       18.178935   -1.539744    0.972210
     82          6           0       13.816518   -1.706360   -1.094324
     83          6           0       13.952752    3.039238   -1.405309
     84          6           0       18.429805    3.189302    0.299787
     85          7           0       16.055202   -1.433392   -0.231037
     86          6           0       16.954746   -2.105076    0.530328
     87          6           0       16.515305   -3.517608    0.802947
     88          6           0       15.238400   -3.615316   -0.124825
     89          6           0       15.048348   -2.188812   -0.592952
     90          6           0       15.342477   -4.662988   -1.259070
     91          6           0       16.307736   -3.868809    2.400120
     92          6           0       16.915901   -5.167489    2.951313
     93          1           0       17.169940   -6.318665    1.928006
     94          7           0       14.127531    0.690480   -0.926592
     95          6           0       13.373813   -0.387973   -1.265044
     96          6           0       12.158274   -0.037935   -1.958705
     97          6           0       12.088587    1.319742   -1.872670
     98          6           0       13.475396    1.734360   -1.494927
     99          6           0       11.359610   -1.172478   -2.573943
    100          6           0       10.939678    2.257275   -2.294164
    101          8           0       10.993476    3.463675   -2.235619
    102          6           0        9.735558    1.539954   -2.829070
    103          7           0       16.261207    2.801448   -0.649994
    104          6           0       15.200314    3.529262   -1.042876
    105          6           0       15.550332    5.019565   -1.099736
    106          6           0       16.867822    5.101130   -0.256328
    107          6           0       17.244916    3.606180   -0.209684
    108          6           0       15.675811    5.712453   -2.523074
    109          6           0       16.725551    5.652055    1.212470
    110          6           0       15.831719    5.011190    2.241352
    111          7           0       17.880592    0.916907    0.569158
    112          6           0       18.832711    1.939840    0.625965
    113          6           0       20.105653    1.463719    1.182116
    114          6           0       19.890642    0.086937    1.344836
    115          6           0       18.534210   -0.151455    0.958227
    116          6           0       21.325524    2.268905    1.549697
    117          6           0       20.459696   -1.120765    1.735817
    118          8           0       21.579522   -1.433964    2.108639
    119          6           0       19.326426   -2.179171    1.741318
    120          6           0       19.957844   -3.326496    1.049906
    121          8           0       20.089323   -3.441717   -0.171020
    122          8           0       20.490143   -4.209081    1.944562
    123          6           0       21.410627   -5.248078    1.472013
    124          1           0       13.086082   -2.510993   -1.203560
    125          1           0       13.337406    3.871784   -1.750553
    126          1           0       19.091757    4.048880    0.429809
    127          1           0       17.222400   -4.228992    0.376138
    128          1           0       14.369414   -3.832724    0.495841
    129          1           0       15.535639   -4.146260   -2.199087
    130          1           0       14.384806   -5.176774   -1.342829
    131          1           0       16.169551   -5.322402   -0.995696
    132          1           0       15.226594   -3.893735    2.537086
    133          1           0       16.749745   -3.090989    3.021993
    134          1           0       16.227203   -5.636910    3.653262
    135          1           0       17.806879   -4.938186    3.535722
    136          1           0       11.882846   -1.746073   -3.339161
    137          1           0       10.500089   -0.961890   -3.210041
    138          1           0       11.061105   -1.720000   -1.679933
    139          1           0        9.365402    0.815706   -2.103818
    140          1           0       10.110362    1.155548   -3.777451
    141          1           0        8.826056    2.108835   -3.018821
    142          1           0       14.679416    5.466156   -0.618663
    143          1           0       17.629266    5.609796   -0.847982
    144          1           0       15.469506    4.979178   -3.302349
    145          1           0       16.707661    5.998658   -2.723235
    146          1           0       15.072093    6.606930   -2.683889
    147          1           0       16.408069    6.671076    0.989856
    148          1           0       17.683075    5.694188    1.730599
    149          1           0       15.213289    4.250364    1.763339
    150          1           0       15.148115    5.746882    2.664807
    151          1           0       16.327896    4.468945    3.046013
    152          1           0       22.151335    2.111879    0.857228
    153          1           0       21.640749    2.017994    2.562646
    154          1           0       20.991097    3.296470    1.404787
    155          1           0       18.968817   -2.387132    2.749934
    156          1           0       22.093736   -5.580107    2.254711
    157          1           0       21.875730   -4.980869    0.524362
    158          1           0       20.891845   -6.149844    1.147283
 ---------------------------------------------------------------------

 SCF Done:  E(RwB97XD) =  -4070.62630082     A.U. after   19 cycles

 Excitation energies and oscillator strengths:

 Excited State   1:      Singlet-A      1.5968 eV  776.44 nm  f=0.3904  <S**2>=0.000
     309 -> 316       -0.16562
     311 -> 313        0.68825
     309 <- 316       -0.11237
 This state for optimization and/or second-order correction.
 Total Energy, E(TD-HF/TD-DFT) =  -4070.56761817
 Copying the excited state density for this state as the 1-particle RhoCI density.

 Excited State   2:      Singlet-A      1.7218 eV  720.09 nm  f=0.3748  <S**2>=0.000
     310 -> 315        0.19588
     312 -> 314        0.67977
     310 <- 315        0.11418

 Excited State   3:      Singlet-A      2.1949 eV  564.88 nm  f=0.1043  <S**2>=0.000
     309 -> 313        0.63719
     311 -> 316        0.28942

 Excited State   4:      Singlet-A      2.2243 eV  557.41 nm  f=0.0569  <S**2>=0.000
     310 -> 314        0.61465
     312 -> 315       -0.33874

 Excited State   5:      Singlet-A      3.2151 eV  385.63 nm  f=0.0019  <S**2>=0.000
     308 -> 313        0.67729

 The electronic state is 1-A.
 Alpha  occ. eigenvalues --  -46.94313 -46.93923 -19.30224 -19.29128 -19.24993
 Alpha  occ. eigenvalues --  -19.24561 -19.23769 -19.23611 -19.23283 -19.22689
 Alpha  occ. eigenvalues --  -14.47403 -14.46434 -14.46291 -14.45644 -14.44652
 Alpha  occ. eigenvalues --  -14.43543 -14.43503 -14.43331 -10.42449 -10.42101
 Alpha  occ. eigenvalues --  -10.39963 -10.39228 -10.39073 -10.37526 -10.36206
 Alpha  occ. eigenvalues --  -10.36139 -10.35468 -10.34947 -10.34629 -10.34593
 Alpha  occ. eigenvalues --  -10.34460 -10.34392 -10.34301 -10.34244 -10.34094
 Alpha  occ. eigenvalues --  -10.33608 -10.33539 -10.33323 -10.33124 -10.33100
 Alpha  occ. eigenvalues --  -10.33089 -10.33003 -10.32911 -10.32744 -10.32719
 Alpha  occ. eigenvalues --  -10.32673 -10.32338 -10.32219 -10.32021 -10.32000
 Alpha  occ. eigenvalues --  -10.31936 -10.31917 -10.31897 -10.31862 -10.31752
 Alpha  occ. eigenvalues --  -10.31731 -10.31653 -10.31610 -10.31584 -10.31542
 Alpha  occ. eigenvalues --  -10.31456 -10.31425 -10.31395 -10.31364 -10.31221
 Alpha  occ. eigenvalues --  -10.30792 -10.30733 -10.30583 -10.30476 -10.30445
 Alpha  occ. eigenvalues --  -10.30419 -10.30195 -10.30157 -10.29912 -10.29911
 Alpha  occ. eigenvalues --  -10.29744 -10.29737 -10.29648 -10.29626 -10.29578
 Alpha  occ. eigenvalues --  -10.29556 -10.29168 -10.29021 -10.29014 -10.28955
 Alpha  occ. eigenvalues --  -10.28061  -3.20571  -3.20107  -1.94133  -1.93716
 Alpha  occ. eigenvalues --   -1.93707  -1.93582  -1.93252  -1.93082  -1.19172
 Alpha  occ. eigenvalues --   -1.17007  -1.13785  -1.12804  -1.11217  -1.10517
 Alpha  occ. eigenvalues --   -1.09426  -1.08102  -1.07650  -1.07584  -1.06763
 Alpha  occ. eigenvalues --   -1.06117  -1.06000  -1.05161  -1.05019  -1.04043
 Alpha  occ. eigenvalues --   -0.95426  -0.94317  -0.91614  -0.91007  -0.90737
 Alpha  occ. eigenvalues --   -0.90618  -0.90359  -0.89941  -0.89900  -0.89860
 Alpha  occ. eigenvalues --   -0.89399  -0.89182  -0.88550  -0.88491  -0.86351
 Alpha  occ. eigenvalues --   -0.86297  -0.85909  -0.85481  -0.84643  -0.84505
 Alpha  occ. eigenvalues --   -0.84487  -0.83566  -0.83236  -0.82998  -0.82643
 Alpha  occ. eigenvalues --   -0.82490  -0.81016  -0.80409  -0.79544  -0.79383
 Alpha  occ. eigenvalues --   -0.79212  -0.78901  -0.78216  -0.77636  -0.77201
 Alpha  occ. eigenvalues --   -0.77144  -0.75297  -0.74622  -0.73850  -0.73673
 Alpha  occ. eigenvalues --   -0.71566  -0.71497  -0.71018  -0.71000  -0.70283
 Alpha  occ. eigenvalues --   -0.70131  -0.69323  -0.68117  -0.67838  -0.67352
 Alpha  occ. eigenvalues --   -0.66942  -0.66913  -0.66756  -0.66707  -0.66222
 Alpha  occ. eigenvalues --   -0.65754  -0.64175  -0.63703  -0.63166  -0.62276
 Alpha  occ. eigenvalues --   -0.62090  -0.61297  -0.61273  -0.61196  -0.60939
 Alpha  occ. eigenvalues --   -0.60389  -0.60065  -0.59884  -0.59799  -0.59536
 Alpha  occ. eigenvalues --   -0.58597  -0.58333  -0.58068  -0.57240  -0.57097
 Alpha  occ. eigenvalues --   -0.57085  -0.56757  -0.56593  -0.56405  -0.56279
 Alpha  occ. eigenvalues --   -0.55601  -0.55450  -0.55392  -0.55125  -0.54894
 Alpha  occ. eigenvalues --   -0.54716  -0.54599  -0.54567  -0.54344  -0.54293
 Alpha  occ. eigenvalues --   -0.54184  -0.53795  -0.53658  -0.53608  -0.53337
 Alpha  occ. eigenvalues --   -0.53200  -0.52540  -0.52425  -0.52357  -0.52241
 Alpha  occ. eigenvalues --   -0.52141  -0.51992  -0.51899  -0.51746  -0.51499
 Alpha  occ. eigenvalues --   -0.51263  -0.51245  -0.51016  -0.50945  -0.50752
 Alpha  occ. eigenvalues --   -0.50724  -0.50492  -0.50231  -0.50047  -0.50022
 Alpha  occ. eigenvalues --   -0.49946  -0.49753  -0.49722  -0.49502  -0.49150
 Alpha  occ. eigenvalues --   -0.49101  -0.48902  -0.48751  -0.48585  -0.48516
 Alpha  occ. eigenvalues --   -0.48474  -0.48437  -0.48018  -0.47920  -0.47626
 Alpha  occ. eigenvalues --   -0.47512  -0.47406  -0.47287  -0.47150  -0.46775
 Alpha  occ. eigenvalues --   -0.46720  -0.46459  -0.46243  -0.46081  -0.45811
 Alpha  occ. eigenvalues --   -0.45771  -0.45747  -0.45735  -0.45553  -0.45512
 Alpha  occ. eigenvalues --   -0.45336  -0.45078  -0.44873  -0.44847  -0.44805
 Alpha  occ. eigenvalues --   -0.44380  -0.44073  -0.43972  -0.43788  -0.43784
 Alpha  occ. eigenvalues --   -0.43603  -0.43600  -0.43516  -0.43163  -0.43162
 Alpha  occ. eigenvalues --   -0.42989  -0.42891  -0.42698  -0.42617  -0.42457
 Alpha  occ. eigenvalues --   -0.42355  -0.42026  -0.41802  -0.41500  -0.41120
 Alpha  occ. eigenvalues --   -0.40387  -0.40376  -0.40106  -0.40102  -0.39456
 Alpha  occ. eigenvalues --   -0.39100  -0.39036  -0.38733  -0.38635  -0.38428
 Alpha  occ. eigenvalues --   -0.38313  -0.37147  -0.36347  -0.36320  -0.36063
 Alpha  occ. eigenvalues --   -0.35532  -0.35445  -0.34955  -0.34644  -0.33746
 Alpha  occ. eigenvalues --   -0.33413  -0.33359  -0.32937  -0.32874  -0.32491
 Alpha  occ. eigenvalues --   -0.32070  -0.31868  -0.31310  -0.26605  -0.25770
 Alpha  occ. eigenvalues --   -0.22990  -0.22437
 Alpha virt. eigenvalues --   -0.07490  -0.06173   0.00147   0.00306   0.02292
 Alpha virt. eigenvalues --    0.02382   0.04409   0.04576   0.05865   0.06308
 Alpha virt. eigenvalues --    0.07230   0.07561   0.07931   0.08321   0.08481

 Mulliken charges:
               1
     1  Mg   0.971175
     2  C   -0.006177
     3  C   -0.072289
     4  C   -0.076279
     5  C   -0.099637
     6  N   -0.340848
     7  C   -0.009359
     8  C   -0.022205
     9  C   -0.153847
    10  C    0.065331
    11  C    0.013336
    12  C   -0.006183
    13  C   -0.111425
    14  H    0.047849
    15  N   -0.435211
    16  C    0.162606
    17  C   -0.218245
    18  C   -0.077956
    19  C    0.134391
    20  C    0.083352
    21  C    0.066498
    22  O   -0.256567
    23  C   -0.006503
    24  N   -0.468673
    25  C    0.098635
    26  C   -0.069545
    27  C   -0.080512
    28  C    0.140344
    29  C    0.040741
    30  C   -0.043663
    31  C   -0.003976
    32  N   -0.428012
    33  C    0.106517
    34  C   -0.178826
    35  C    0.017659
    36  C    0.137159
    37  C    0.064713
    38  C    0.098708
    39  O   -0.191745
    40  C   -0.123598
    41  C    0.249243
    42  O   -0.247032
    43  O   -0.362921
    44  C    0.139214
    45  H   -0.004176
    46  H    0.019965
    47  H   -0.001757
    48  H    0.044503
    49  H    0.034690
    50  H    0.042264
    51  H    0.043419
    52  H    0.037705
    53  H    0.035367
    54  H    0.054685
    55  H    0.051016
    56  H    0.052903
    57  H    0.065914
    58  H    0.049427
    59  H    0.025686
    60  H    0.051305
    61  H    0.045709
    62  H    0.060752
    63  H    0.028110
    64  H    0.023109
    65  H    0.041826
    66  H    0.042185
    67  H    0.041604
    68  H    0.022275
    69  H    0.020599
    70  H    0.035352
    71  H    0.017956
    72  H    0.051250
    73  H    0.062289
    74  H    0.045050
    75  H    0.051486
    76  H    0.073718
    77  H    0.058025
    78  H    0.059921
    79  H    0.069630
    80  Mg   0.992918
    81  C    0.010981
    82  C   -0.117773
    83  C   -0.080760
    84  C   -0.116913
    85  N   -0.330698
    86  C   -0.016836
    87  C   -0.037090
    88  C   -0.153987
    89  C    0.076261
    90  C    0.047336
    91  C    0.007317
    92  C   -0.126038
    93  H    0.026435
    94  N   -0.509866
    95  C    0.180032
    96  C   -0.131364
    97  C   -0.119692
    98  C    0.182735
    99  C    0.046399
   100  C    0.071640
   101  O   -0.201870
   102  C   -0.025156
   103  N   -0.321289
   104  C    0.020938
   105  C   -0.086100
   106  C   -0.050114
   107  C   -0.008218
   108  C    0.024208
   109  C   -0.010770
   110  C   -0.046746
   111  N   -0.398751
   112  C    0.159753
   113  C   -0.187018
   114  C    0.034889
   115  C    0.091463
   116  C    0.104720
   117  C    0.050732
   118  O   -0.214271
   119  C   -0.074802
   120  C    0.264524
   121  O   -0.268189
   122  O   -0.355791
   123  C    0.151788
   124  H   -0.008464
   125  H    0.016476
   126  H   -0.010512
   127  H    0.043123
   128  H    0.031842
   129  H    0.045765
   130  H    0.038576
   131  H    0.045929
   132  H    0.033176
   133  H    0.041129
   134  H    0.049054
   135  H    0.062511
   136  H    0.060540
   137  H    0.029697
   138  H    0.066484
   139  H    0.061451
   140  H    0.069441
   141  H    0.048065
   142  H    0.035043
   143  H    0.029223
   144  H    0.038326
   145  H    0.025939
   146  H    0.050250
   147  H    0.032281
   148  H    0.032295
   149  H    0.028521
   150  H    0.041136
   151  H    0.043808
   152  H    0.059468
   153  H    0.063935
   154  H    0.019699
   155  H    0.072644
   156  H    0.061555
   157  H    0.057202
   158  H    0.029419
 Sum of Mulliken charges =  -0.00000

 Dipole moment (field-independent basis, Debye):
    X=             -4.4352    Y=             -2.2553    Z=              3.6196  Tot=              6.1530
 Quadrupole moment (field-independent basis, Debye-Ang):
   XX=           -745.0605   YY=           -463.3755   ZZ=           -509.4026
   XY=             51.5763   XZ=            -39.0069   YZ=            -27.1433

 Normal termination of Gaussian 16 at Mon Sep 20 01:32:11 2021.
