 Gaussian 16, Revision A.03,
 Gaussian 16:  ES64L-G16RevA.03 25-Dec-2016

 --------------------------------
 #p wB97XD/Def2SVP td=(nstates=5)
 --------------------------------

 --------------------------------
 TDDFT excited states in gaussian
 --------------------------------
 Symbolic Z-matrix:
 Charge =  0 Multiplicity = 1

                         Standard orientation:
 ---------------------------------------------------------------------
 Center     Atomic      Atomic             Coordinates (Angstroms)
 Number     Number       Type             X           Y           Z
 ---------------------------------------------------------------------
      1         12           0      -33.061616   -0.017455   -0.108153
      2          6           0      -29.741497    0.879409   -0.028704
      3          6           0      -32.310117   -3.272406    0.645472
      4          6           0      -36.459972   -0.860948   -0.002751
      5          6           0      -33.984156    3.309259   -0.018121
      6          7           0      -31.197061   -0.962170    0.468245
      7          6           0      -29.897713   -0.487484    0.269613
      8          6           0      -28.852883   -1.533526    0.666352
      9          6           0      -29.750224   -2.797144    0.674583
     10          6           0      -31.222047   -2.335815    0.680527
     11          6           0      -29.377647   -3.812273   -0.428044
     12          6           0      -28.199978   -1.219707    2.027084
     13          6           0      -26.651674   -1.440029    2.136411
     14          1           0      -26.141766   -1.841899    3.465102
     15          7           0      -34.178090   -1.793707    0.209833
     16          6           0      -33.690476   -3.038960    0.413300
     17          6           0      -34.693365   -4.056043    0.307632
     18          6           0      -35.893936   -3.403153   -0.016680
     19          6           0      -35.541128   -1.923692    0.023951
     20          6           0      -34.410798   -5.558492    0.369495
     21          6           0      -37.293425   -4.067432   -0.282033
     22          8           0      -37.405960   -5.309326   -0.118516
     23          6           0      -38.557965   -3.274231   -0.827378
     24          7           0      -34.952972    1.077645    0.279552
     25          6           0      -36.177078    0.517258    0.123853
     26          6           0      -37.284099    1.536838    0.043195
     27          6           0      -36.525888    2.881127    0.085414
     28          6           0      -35.066642    2.418640    0.075670
     29          6           0      -38.252421    1.355685   -1.172525
     30          6           0      -36.978519    3.825710    1.298491
     31          6           0      -37.858249    5.013233    0.890824
     32          7           0      -32.102923    1.757202   -0.094369
     33          6           0      -32.581320    3.085989   -0.089554
     34          6           0      -31.463453    4.003787   -0.345609
     35          6           0      -30.365652    3.156262   -0.399238
     36          6           0      -30.811473    1.854463   -0.117370
     37          6           0      -31.450631    5.483876   -0.486361
     38          6           0      -28.906039    3.133246   -0.570956
     39          8           0      -28.107915    3.991411   -0.982298
     40          6           0      -28.439877    1.634308   -0.380246
     41          6           0      -27.780344    1.093335   -1.641702
     42          8           0      -28.171836    1.210532   -2.807199
     43          8           0      -26.633629    0.519414   -1.178944
     44          6           0      -25.688143    0.058634   -2.181877
     45          1           0      -32.082962   -4.314478    0.879475
     46          1           0      -37.541409   -0.998748   -0.066544
     47          1           0      -34.207301    4.377944   -0.002943
     48          1           0      -28.059971   -1.559481   -0.081861
     49          1           0      -29.519169   -3.259520    1.634181
     50          1           0      -28.383077   -3.781269   -0.872930
     51          1           0      -30.047544   -3.595790   -1.260057
     52          1           0      -29.507802   -4.843260   -0.099900
     53          1           0      -28.691025   -1.724250    2.858752
     54          1           0      -28.484442   -0.189253    2.241391
     55          1           0      -26.142785   -0.523153    1.839096
     56          1           0      -26.373632   -2.261197    1.474271
     57          1           0      -34.793775   -5.965730   -0.565959
     58          1           0      -34.751722   -5.957391    1.324953
     59          1           0      -33.324984   -5.630743    0.307775
     60          1           0      -39.037848   -2.836238    0.047036
     61          1           0      -39.212831   -4.021287   -1.275278
     62          1           0      -38.199243   -2.662684   -1.655727
     63          1           0      -37.899478    1.433731    0.937031
     64          1           0      -36.530292    3.469298   -0.831969
     65          1           0      -38.446085    2.302673   -1.675569
     66          1           0      -39.214320    0.932787   -0.883259
     67          1           0      -37.838228    0.607772   -1.847409
     68          1           0      -36.131944    4.296518    1.798076
     69          1           0      -37.452414    3.229699    2.078347
     70          1           0      -38.632390    5.171299    1.641913
     71          1           0      -38.330035    4.808393   -0.069954
     72          1           0      -37.311668    5.948664    0.772588
     73          1           0      -32.487169    5.820875   -0.473678
     74          1           0      -30.785015    5.774466   -1.299384
     75          1           0      -31.046054    5.867776    0.450757
     76          1           0      -27.775179    1.511307    0.475240
     77          1           0      -26.148751   -0.487178   -3.006284
     78          1           0      -24.855531   -0.553158   -1.834699
     79          1           0      -25.172776    0.913856   -2.619769
     80         12           0       32.982427    0.327732   -0.640900
     81          6           0       30.309532   -1.392749    0.978133
     82          6           0       31.972334    3.024801    1.007590
     83          6           0       35.975152    1.763103   -1.277146
     84          6           0       34.259924   -2.909981   -1.406021
     85          7           0       31.322243    0.774495    0.676611
     86          6           0       30.277346   -0.044019    1.157486
     87          6           0       29.271309    0.720591    2.074334
     88          6           0       29.835679    2.167659    2.000293
     89          6           0       31.079701    2.021163    1.098678
     90          6           0       28.706443    3.077475    1.488650
     91          6           0       29.107630    0.215051    3.572493
     92          6           0       27.752010   -0.367302    3.955484
     93          1           0       27.018837    0.268911    5.154049
     94          7           0       33.827061    2.127222   -0.302340
     95          6           0       33.217074    3.141933    0.434912
     96          6           0       33.985754    4.319303    0.384107
     97          6           0       35.100425    4.069916   -0.395072
     98          6           0       35.046996    2.652762   -0.692040
     99          6           0       33.683684    5.722973    1.028583
    100          6           0       36.114513    5.133239   -0.746160
    101          8           0       35.989021    6.293266   -0.487812
    102          6           0       37.354040    4.636726   -1.640997
    103          7           0       34.882014   -0.453715   -1.185905
    104          6           0       35.946343    0.372275   -1.424663
    105          6           0       37.195275   -0.557047   -1.714205
    106          6           0       36.670622   -1.992360   -1.885784
    107          6           0       35.168234   -1.798958   -1.449869
    108          6           0       38.117830   -0.059990   -2.790687
    109          6           0       37.369665   -2.910960   -0.891317
    110          6           0       37.408984   -4.380252   -1.217840
    111          7           0       32.305526   -1.743308   -0.519259
    112          6           0       32.920727   -2.914055   -0.893549
    113          6           0       32.061492   -4.016883   -0.657773
    114          6           0       30.934499   -3.510779    0.032128
    115          6           0       31.219845   -2.124390    0.183390
    116          6           0       32.339616   -5.444465   -0.909586
    117          6           0       29.652743   -3.763096    0.704323
    118          8           0       29.021934   -4.825293    0.789987
    119          6           0       29.163624   -2.402055    1.332797
    120          6           0       27.997421   -1.947280    0.623701
    121          8           0       28.089760   -1.447279   -0.522356
    122          8           0       26.927031   -2.219061    1.395865
    123          6           0       25.600884   -1.677145    0.991295
    124          1           0       31.646626    3.941414    1.504466
    125          1           0       36.904947    2.276795   -1.530694
    126          1           0       34.545013   -3.913770   -1.726854
    127          1           0       28.278081    0.701115    1.625865
    128          1           0       30.190347    2.546202    2.958466
    129          1           0       29.154780    4.049371    1.284498
    130          1           0       27.870413    3.229295    2.171237
    131          1           0       28.261993    2.707523    0.564008
    132          1           0       29.162028    1.130421    4.161803
    133          1           0       29.924514   -0.458578    3.831610
    134          1           0       27.898759   -1.431893    4.140920
    135          1           0       27.064042   -0.251801    3.117210
    136          1           0       34.570192    5.973760    1.611445
    137          1           0       32.815412    5.691605    1.686595
    138          1           0       33.393210    6.512302    0.335317
    139          1           0       37.910940    5.538308   -1.894414
    140          1           0       36.864557    4.148185   -2.483849
    141          1           0       37.857393    3.948212   -0.962325
    142          1           0       37.766582   -0.496927   -0.787201
    143          1           0       36.763255   -2.435299   -2.877363
    144          1           0       38.586977   -0.922461   -3.263340
    145          1           0       38.846760    0.575488   -2.287372
    146          1           0       37.651197    0.612146   -3.509872
    147          1           0       36.977247   -2.822370    0.122143
    148          1           0       38.401176   -2.609889   -0.708563
    149          1           0       37.095715   -4.596893   -2.238966
    150          1           0       36.735939   -4.891076   -0.528940
    151          1           0       38.374298   -4.809418   -0.949530
    152          1           0       33.034762   -5.579659   -1.738803
    153          1           0       31.373465   -5.891130   -1.145664
    154          1           0       32.806753   -5.812750    0.004074
    155          1           0       29.045102   -2.415590    2.416260
    156          1           0       24.953102   -2.479908    1.346511
    157          1           0       25.511902   -1.471198   -0.074962
    158          1           0       25.295616   -0.848644    1.631323
 ---------------------------------------------------------------------

 SCF Done:  E(RwB97XD) =  -4070.62870913     A.U. after   19 cycles

 Excitation energies and oscillator strengths:

 Excited State   1:      Singlet-A      1.6650 eV  744.66 nm  f=0.3547  <S**2>=0.000
     310 -> 315       -0.17865
     312 -> 314        0.68380
     310 <- 315       -0.11335
 This state for optimization and/or second-order correction.
 Total Energy, E(TD-HF/TD-DFT) =  -4070.56752204
 Copying the excited state density for this state as the 1-particle RhoCI density.

 Excited State   2:      Singlet-A      1.6723 eV  741.38 nm  f=0.3942  <S**2>=0.000
     309 -> 316       -0.17578
     311 -> 313        0.68534
     309 <- 316       -0.11222

 Excited State   3:      Singlet-A      2.1965 eV  564.45 nm  f=0.0924  <S**2>=0.000
     310 -> 314        0.62318
     312 -> 315        0.31718

 Excited State   4:      Singlet-A      2.2042 eV  562.48 nm  f=0.1130  <S**2>=0.000
     309 -> 313        0.63531
     311 -> 316        0.29119

 Excited State   5:      Singlet-A      3.2882 eV  377.05 nm  f=0.0022  <S**2>=0.000
     302 -> 313        0.11888
     308 -> 313        0.66484

 The electronic state is 1-A.
 Alpha  occ. eigenvalues --  -46.95526 -46.94874 -19.31705 -19.31577 -19.25209
 Alpha  occ. eigenvalues --  -19.24794 -19.24704 -19.24589 -19.23773 -19.23473
 Alpha  occ. eigenvalues --  -14.47186 -14.47032 -14.46783 -14.46763 -14.44874
 Alpha  occ. eigenvalues --  -14.44172 -14.43672 -14.43044 -10.43808 -10.43331
 Alpha  occ. eigenvalues --  -10.40765 -10.39484 -10.39406 -10.38755 -10.36581
 Alpha  occ. eigenvalues --  -10.36327 -10.35783 -10.35745 -10.35712 -10.35514
 Alpha  occ. eigenvalues --  -10.35242 -10.35115 -10.35105 -10.34609 -10.34526
 Alpha  occ. eigenvalues --  -10.34521 -10.34433 -10.33702 -10.33641 -10.33010
 Alpha  occ. eigenvalues --  -10.32768 -10.32712 -10.32639 -10.32558 -10.32417
 Alpha  occ. eigenvalues --  -10.32416 -10.32403 -10.32203 -10.32202 -10.32138
 Alpha  occ. eigenvalues --  -10.32066 -10.31999 -10.31981 -10.31975 -10.31972
 Alpha  occ. eigenvalues --  -10.31806 -10.31790 -10.31772 -10.31714 -10.31648
 Alpha  occ. eigenvalues --  -10.31409 -10.31394 -10.31339 -10.31285 -10.31137
 Alpha  occ. eigenvalues --  -10.31064 -10.31002 -10.30991 -10.30968 -10.30837
 Alpha  occ. eigenvalues --  -10.30635 -10.30513 -10.30328 -10.30277 -10.30265
 Alpha  occ. eigenvalues --  -10.30246 -10.30058 -10.29939 -10.29795 -10.29696
 Alpha  occ. eigenvalues --  -10.29658 -10.29562 -10.29267 -10.28975 -10.28857
 Alpha  occ. eigenvalues --  -10.28570  -3.21505  -3.20913  -1.95059  -1.94614
 Alpha  occ. eigenvalues --   -1.94501  -1.94479  -1.94017  -1.93906  -1.19018
 Alpha  occ. eigenvalues --   -1.18807  -1.14232  -1.10910  -1.10877  -1.10544
 Alpha  occ. eigenvalues --   -1.09950  -1.09556  -1.06675  -1.06154  -1.06029
 Alpha  occ. eigenvalues --   -1.05593  -1.05242  -1.04848  -1.04174  -1.03762
 Alpha  occ. eigenvalues --   -0.94164  -0.93360  -0.91517  -0.91213  -0.90817
 Alpha  occ. eigenvalues --   -0.90719  -0.90684  -0.90567  -0.89289  -0.89190
 Alpha  occ. eigenvalues --   -0.88961  -0.88633  -0.88422  -0.88393  -0.86720
 Alpha  occ. eigenvalues --   -0.86238  -0.86128  -0.85772  -0.85188  -0.84409
 Alpha  occ. eigenvalues --   -0.83836  -0.83575  -0.83106  -0.83089  -0.82263
 Alpha  occ. eigenvalues --   -0.82139  -0.79869  -0.79651  -0.79436  -0.79335
 Alpha  occ. eigenvalues --   -0.78694  -0.78614  -0.78167  -0.77810  -0.77246
 Alpha  occ. eigenvalues --   -0.77100  -0.74729  -0.74696  -0.73720  -0.73710
 Alpha  occ. eigenvalues --   -0.71246  -0.71124  -0.70918  -0.70518  -0.69835
 Alpha  occ. eigenvalues --   -0.69716  -0.69285  -0.69239  -0.68049  -0.67655
 Alpha  occ. eigenvalues --   -0.67497  -0.67076  -0.67006  -0.66977  -0.66572
 Alpha  occ. eigenvalues --   -0.66564  -0.64667  -0.64215  -0.62186  -0.61913
 Alpha  occ. eigenvalues --   -0.61612  -0.61612  -0.61389  -0.60945  -0.60603
 Alpha  occ. eigenvalues --   -0.60460  -0.60195  -0.59699  -0.59220  -0.59146
 Alpha  occ. eigenvalues --   -0.58379  -0.57996  -0.57992  -0.57732  -0.57239
 Alpha  occ. eigenvalues --   -0.56966  -0.56963  -0.56623  -0.56202  -0.55771
 Alpha  occ. eigenvalues --   -0.55717  -0.55326  -0.55111  -0.55101  -0.54823
 Alpha  occ. eigenvalues --   -0.54769  -0.54541  -0.54429  -0.54359  -0.53914
 Alpha  occ. eigenvalues --   -0.53630  -0.53532  -0.53393  -0.53291  -0.53172
 Alpha  occ. eigenvalues --   -0.53144  -0.53042  -0.52785  -0.52453  -0.52271
 Alpha  occ. eigenvalues --   -0.52080  -0.51932  -0.51865  -0.51751  -0.51381
 Alpha  occ. eigenvalues --   -0.51244  -0.51171  -0.51025  -0.50884  -0.50431
 Alpha  occ. eigenvalues --   -0.50385  -0.50247  -0.50164  -0.50089  -0.49971
 Alpha  occ. eigenvalues --   -0.49753  -0.49691  -0.49459  -0.49415  -0.49399
 Alpha  occ. eigenvalues --   -0.49121  -0.48893  -0.48822  -0.48514  -0.48366
 Alpha  occ. eigenvalues --   -0.48293  -0.48239  -0.48030  -0.47979  -0.47576
 Alpha  occ. eigenvalues --   -0.47455  -0.47243  -0.47152  -0.47053  -0.46883
 Alpha  occ. eigenvalues --   -0.46736  -0.46683  -0.46354  -0.46242  -0.46075
 Alpha  occ. eigenvalues --   -0.46068  -0.45744  -0.45705  -0.45659  -0.45458
 Alpha  occ. eigenvalues --   -0.45438  -0.45250  -0.45207  -0.44990  -0.44934
 Alpha  occ. eigenvalues --   -0.44715  -0.44515  -0.44513  -0.44375  -0.44226
 Alpha  occ. eigenvalues --   -0.44100  -0.43896  -0.43832  -0.43580  -0.43552
 Alpha  occ. eigenvalues --   -0.43493  -0.43079  -0.42720  -0.42508  -0.42506
 Alpha  occ. eigenvalues --   -0.42107  -0.41999  -0.41612  -0.41275  -0.41090
 Alpha  occ. eigenvalues --   -0.40686  -0.40389  -0.40293  -0.40123  -0.40073
 Alpha  occ. eigenvalues --   -0.39576  -0.39420  -0.39247  -0.38918  -0.38772
 Alpha  occ. eigenvalues --   -0.38389  -0.37935  -0.36852  -0.36780  -0.36234
 Alpha  occ. eigenvalues --   -0.36144  -0.35281  -0.35196  -0.34022  -0.33749
 Alpha  occ. eigenvalues --   -0.33310  -0.32984  -0.32734  -0.32696  -0.32663
 Alpha  occ. eigenvalues --   -0.32408  -0.31945  -0.31062  -0.26210  -0.26137
 Alpha  occ. eigenvalues --   -0.23066  -0.22905
 Alpha virt. eigenvalues --   -0.07093  -0.06919  -0.00126   0.00226   0.02237
 Alpha virt. eigenvalues --    0.02655   0.04060   0.04789   0.04812   0.05446
 Alpha virt. eigenvalues --    0.06759   0.07151   0.07225   0.07410   0.08100

 Mulliken charges:
               1
     1  Mg   0.973207
     2  C   -0.080648
     3  C   -0.109995
     4  C   -0.086250
     5  C   -0.082877
     6  N   -0.404010
     7  C   -0.008358
     8  C   -0.052753
     9  C   -0.092021
    10  C    0.125804
    11  C    0.013993
    12  C    0.023122
    13  C   -0.127684
    14  H    0.043600
    15  N   -0.430185
    16  C    0.152932
    17  C   -0.190566
    18  C   -0.078516
    19  C    0.194576
    20  C    0.116245
    21  C    0.044410
    22  O   -0.256230
    23  C   -0.009228
    24  N   -0.325003
    25  C    0.022967
    26  C   -0.076411
    27  C   -0.052224
    28  C    0.038414
    29  C    0.010484
    30  C   -0.007623
    31  C   -0.058070
    32  N   -0.440733
    33  C    0.101321
    34  C   -0.206465
    35  C   -0.044019
    36  C    0.153195
    37  C    0.107367
    38  C    0.155617
    39  O   -0.229708
    40  C   -0.059952
    41  C    0.289169
    42  O   -0.247449
    43  O   -0.356448
    44  C    0.133481
    45  H    0.007815
    46  H   -0.019672
    47  H   -0.011107
    48  H    0.025030
    49  H    0.032697
    50  H    0.036834
    51  H    0.034836
    52  H    0.038407
    53  H    0.030652
    54  H    0.030148
    55  H    0.066450
    56  H    0.049604
    57  H    0.065657
    58  H    0.072150
    59  H    0.012152
    60  H    0.080683
    61  H    0.058290
    62  H    0.060672
    63  H    0.046737
    64  H    0.034042
    65  H    0.046872
    66  H    0.033557
    67  H    0.037732
    68  H    0.032980
    69  H    0.028780
    70  H    0.039091
    71  H    0.028612
    72  H    0.041141
    73  H    0.021204
    74  H    0.075386
    75  H    0.050507
    76  H    0.064459
    77  H    0.055251
    78  H    0.052203
    79  H    0.053667
    80  Mg   0.984691
    81  C   -0.043538
    82  C   -0.132065
    83  C   -0.102554
    84  C   -0.063407
    85  N   -0.377838
    86  C    0.011641
    87  C   -0.047433
    88  C   -0.123598
    89  C    0.121290
    90  C    0.014126
    91  C    0.012461
    92  C   -0.135720
    93  H    0.033928
    94  N   -0.504830
    95  C    0.212589
    96  C   -0.172269
    97  C   -0.054807
    98  C    0.150050
    99  C    0.105973
   100  C    0.008230
   101  O   -0.195288
   102  C   -0.027823
   103  N   -0.393523
   104  C    0.110652
   105  C   -0.081147
   106  C   -0.082599
   107  C    0.108013
   108  C    0.029353
   109  C   -0.045253
   110  C   -0.025602
   111  N   -0.385818
   112  C    0.093651
   113  C   -0.223151
   114  C    0.000614
   115  C    0.116301
   116  C    0.079623
   117  C    0.129005
   118  O   -0.222391
   119  C   -0.072391
   120  C    0.292509
   121  O   -0.279976
   122  O   -0.349477
   123  C    0.124665
   124  H   -0.016739
   125  H   -0.040285
   126  H   -0.012848
   127  H    0.028344
   128  H    0.045430
   129  H    0.027680
   130  H    0.042804
   131  H    0.043028
   132  H    0.041035
   133  H    0.048420
   134  H    0.069456
   135  H    0.032991
   136  H    0.061765
   137  H    0.011475
   138  H    0.062643
   139  H    0.058158
   140  H    0.066191
   141  H    0.068500
   142  H    0.046803
   143  H    0.038419
   144  H    0.041327
   145  H    0.031653
   146  H    0.038556
   147  H    0.030391
   148  H    0.021516
   149  H    0.036075
   150  H    0.030062
   151  H    0.032962
   152  H    0.030628
   153  H    0.066811
   154  H    0.060802
   155  H    0.055737
   156  H    0.061754
   157  H    0.085150
   158  H    0.056442
 Sum of Mulliken charges =  -0.00000

 Dipole moment (field-independent basis, Debye):
    X=             -1.2750    Y=              0.3628    Z=              1.2903  Tot=              1.8499
 Quadrupole moment (field-independent basis, Debye-Ang):
   XX=           -236.8387   YY=           -557.7093   ZZ=           -511.5964
   XY=             -0.9801   XZ=            -10.6642   YZ=             17.5539

 Normal termination of Gaussian 16 at Mon Sep 20 17:25:16 2021.
