 Gaussian 16, Revision A.03,
 Gaussian 16:  ES64L-G16RevA.03 25-Dec-2016

 --------------------------------
 #p wB97XD/Def2SVP td=(nstates=5)
 --------------------------------

 --------------------------------
 TDDFT excited states in gaussian
 --------------------------------
 Symbolic Z-matrix:
 Charge =  0 Multiplicity = 1

                         Standard orientation:
 ---------------------------------------------------------------------
 Center     Atomic      Atomic             Coordinates (Angstroms)
 Number     Number       Type             X           Y           Z
 ---------------------------------------------------------------------
      1         12           0       19.897176   -0.765415    0.357155
      2          6           0       19.461708    2.145914   -1.514383
      3          6           0       20.613844    1.064057    3.043472
      4          6           0       21.544993   -3.483869    1.614057
      5          6           0       19.189881   -2.636730   -2.494893
      6          7           0       19.860498    1.394468    0.764573
      7          6           0       19.644716    2.351811   -0.129362
      8          6           0       19.588310    3.737199    0.610413
      9          6           0       20.069328    3.365831    2.033589
     10          6           0       20.221890    1.849254    1.965686
     11          6           0       21.517457    3.957018    2.410357
     12          6           0       18.154651    4.438196    0.633959
     13          6           0       18.239042    5.907151    0.397406
     14          1           0       17.550038    6.861989    1.360111
     15          7           0       20.910260   -1.144348    2.102796
     16          6           0       21.085314   -0.248403    3.123988
     17          6           0       21.551705   -0.977197    4.311792
     18          6           0       21.820577   -2.305825    3.879389
     19          6           0       21.462899   -2.327487    2.451314
     20          6           0       21.800741   -0.290112    5.692348
     21          6           0       22.437797   -3.486880    4.687443
     22          8           0       22.630018   -4.607802    4.229802
     23          6           0       22.790728   -3.247801    6.106787
     24          7           0       20.330886   -2.701399   -0.315965
     25          6           0       21.094231   -3.674171    0.336527
     26          6           0       21.355446   -4.861158   -0.627189
     27          6           0       20.099703   -4.807085   -1.603413
     28          6           0       19.865603   -3.279134   -1.434064
     29          6           0       22.744668   -4.806593   -1.298331
     30          6           0       18.883659   -5.593236   -1.203172
     31          6           0       17.939828   -5.080705   -0.156220
     32          7           0       19.224250   -0.417228   -1.564191
     33          6           0       19.013973   -1.253479   -2.636158
     34          6           0       18.586764   -0.519244   -3.829364
     35          6           0       18.844567    0.880249   -3.471809
     36          6           0       19.240489    0.851626   -2.077996
     37          6           0       18.265718   -1.083109   -5.117397
     38          6           0       18.860672    2.256864   -3.951375
     39          8           0       18.688115    2.729792   -5.011656
     40          6           0       19.193749    3.148368   -2.644312
     41          6           0       20.268754    4.184273   -2.856025
     42          8           0       21.465313    4.017870   -2.638701
     43          8           0       19.662973    5.379317   -3.242744
     44          6           0       20.536968    6.543756   -3.473648
     45          1           0       20.697921    1.476316    4.051515
     46          1           0       22.100490   -4.305413    2.071987
     47          1           0       18.888817   -3.285299   -3.319784
     48          1           0       20.313551    4.446416    0.210714
     49          1           0       19.433864    3.688606    2.858253
     50          1           0       21.346478    4.914178    2.903433
     51          1           0       22.160844    4.190936    1.562553
     52          1           0       21.986279    3.267367    3.113252
     53          1           0       17.651624    4.295646    1.590525
     54          1           0       17.426340    4.042747   -0.074197
     55          1           0       17.692867    6.035549   -0.536704
     56          1           0       19.225096    6.344203    0.242495
     57          1           0       22.840524    0.035239    5.674686
     58          1           0       21.553885   -0.953166    6.521868
     59          1           0       21.335417    0.691228    5.790716
     60          1           0       23.257093   -2.317895    6.431798
     61          1           0       23.457989   -4.035659    6.455395
     62          1           0       21.945651   -3.527388    6.736544
     63          1           0       21.265232   -5.733541    0.019406
     64          1           0       20.353490   -5.102497   -2.621307
     65          1           0       22.763739   -4.860119   -2.386866
     66          1           0       23.480239   -5.464253   -0.834625
     67          1           0       23.214010   -3.843568   -1.098104
     68          1           0       19.098415   -6.601552   -0.851290
     69          1           0       18.280181   -5.743820   -2.098408
     70          1           0       17.173201   -4.592844   -0.757931
     71          1           0       18.340555   -4.322697    0.517147
     72          1           0       17.534574   -5.923096    0.405287
     73          1           0       17.464529   -0.462679   -5.519384
     74          1           0       17.884385   -2.088463   -4.940382
     75          1           0       19.134525   -1.042066   -5.773612
     76          1           0       18.280445    3.684804   -2.386953
     77          1           0       21.309539    6.225399   -4.174085
     78          1           0       21.036450    6.842672   -2.552465
     79          1           0       20.109150    7.471255   -3.854555
     80         12           0      -20.642030   -0.500381   -0.268937
     81          6           0      -18.231824    2.006197    0.121729
     82          6           0      -23.050030    1.649995    0.852681
     83          6           0      -22.792280   -3.012893   -0.338960
     84          6           0      -17.994714   -2.696037   -1.242196
     85          7           0      -20.599784    1.593907    0.454910
     86          6           0      -19.543740    2.477617    0.477737
     87          6           0      -20.038032    3.890455    0.727776
     88          6           0      -21.519377    3.664740    1.228325
     89          6           0      -21.743994    2.201807    0.714394
     90          6           0      -21.677722    3.778665    2.739175
     91          6           0      -19.770334    4.784858   -0.537237
     92          6           0      -20.433573    6.187647   -0.453466
     93          1           0      -20.599685    6.779652    0.930687
     94          7           0      -22.580391   -0.647374    0.161934
     95          6           0      -23.410148    0.317840    0.718433
     96          6           0      -24.762385   -0.207850    0.975905
     97          6           0      -24.672611   -1.577362    0.578336
     98          6           0      -23.302772   -1.790315    0.118610
     99          6           0      -25.877471    0.629251    1.480455
    100          6           0      -25.781952   -2.595225    0.643783
    101          8           0      -25.629550   -3.777172    0.227753
    102          6           0      -27.154311   -2.224562    1.137052
    103          7           0      -20.422127   -2.570753   -0.787402
    104          6           0      -21.496965   -3.356751   -0.720602
    105          6           0      -21.093326   -4.871366   -0.998342
    106          6           0      -19.487705   -4.776595   -1.259003
    107          6           0      -19.276185   -3.273311   -1.074292
    108          6           0      -21.508309   -5.740704    0.258614
    109          6           0      -19.032192   -5.204999   -2.719184
    110          6           0      -18.776750   -6.724986   -2.930451
    111          7           0      -18.572824   -0.452430   -0.460297
    112          6           0      -17.617553   -1.368515   -0.974573
    113          6           0      -16.246521   -0.696292   -1.034995
    114          6           0      -16.417609    0.596301   -0.549775
    115          6           0      -17.875068    0.715728   -0.290123
    116          6           0      -14.965840   -1.270075   -1.555125
    117          6           0      -15.790861    1.869896   -0.283648
    118          8           0      -14.622809    2.257005   -0.389451
    119          6           0      -16.983408    2.912861   -0.004011
    120          6           0      -16.737510    3.769052    1.217176
    121          8           0      -17.033771    3.446400    2.335837
    122          8           0      -16.341216    5.075554    0.852206
    123          6           0      -16.498745    6.133826    1.861151
    124          1           0      -23.686345    2.434317    1.268763
    125          1           0      -23.503395   -3.841773   -0.345087
    126          1           0      -17.127830   -3.333335   -1.429319
    127          1           0      -19.431489    4.311073    1.528819
    128          1           0      -22.277546    4.286680    0.751338
    129          1           0      -22.433313    4.548084    2.897128
    130          1           0      -20.696982    3.967734    3.175035
    131          1           0      -22.181653    2.917301    3.176940
    132          1           0      -19.983591    4.082360   -1.342314
    133          1           0      -18.688665    4.909667   -0.574483
    134          1           0      -21.398249    6.030985   -0.936206
    135          1           0      -19.826517    6.881479   -1.034825
    136          1           0      -26.082862    0.181083    2.452445
    137          1           0      -26.737170    0.650205    0.811226
    138          1           0      -25.700676    1.682938    1.700064
    139          1           0      -27.585970   -1.488974    0.459705
    140          1           0      -26.873726   -1.864482    2.127641
    141          1           0      -27.852320   -3.046546    1.293448
    142          1           0      -21.655534   -5.048800   -1.915979
    143          1           0      -18.827057   -5.142927   -0.472075
    144          1           0      -21.955997   -5.172585    1.073858
    145          1           0      -20.629994   -6.239365    0.669371
    146          1           0      -22.293929   -6.406581   -0.097246
    147          1           0      -18.245876   -4.561673   -3.113044
    148          1           0      -19.875804   -4.971450   -3.367892
    149          1           0      -19.406716   -7.033738   -3.763917
    150          1           0      -18.967061   -7.241136   -1.989366
    151          1           0      -17.743770   -6.931162   -3.211714
    152          1           0      -14.779875   -0.777043   -2.509541
    153          1           0      -15.054012   -2.351543   -1.665660
    154          1           0      -14.058242   -1.095120   -0.977784
    155          1           0      -17.067499    3.519343   -0.905326
    156          1           0      -15.652530    6.001976    2.534893
    157          1           0      -17.496864    6.105740    2.298735
    158          1           0      -16.449725    7.077546    1.318590
 ---------------------------------------------------------------------

 SCF Done:  E(RwB97XD) =  -4070.63163372     A.U. after   19 cycles

 Excitation energies and oscillator strengths:

 Excited State   1:      Singlet-A      1.6238 eV  763.53 nm  f=0.3792  <S**2>=0.000
     310 -> 316       -0.18254
     311 -> 313        0.68413
     310 <- 316       -0.11750
 This state for optimization and/or second-order correction.
 Total Energy, E(TD-HF/TD-DFT) =  -4070.57195951
 Copying the excited state density for this state as the 1-particle RhoCI density.

 Excited State   2:      Singlet-A      1.6549 eV  749.18 nm  f=0.3793  <S**2>=0.000
     309 -> 315        0.20541
     312 -> 314        0.67794
     309 <- 315        0.12140

 Excited State   3:      Singlet-A      2.2000 eV  563.57 nm  f=0.1014  <S**2>=0.000
     310 -> 313        0.63108
     311 -> 316        0.30777

 Excited State   4:      Singlet-A      2.2347 eV  554.81 nm  f=0.0336  <S**2>=0.000
     309 -> 314        0.58750
     312 -> 315       -0.38608

 Excited State   5:      Singlet-A      3.3921 eV  365.51 nm  f=0.0178  <S**2>=0.000
     308 -> 313        0.66091
     311 -> 316       -0.17957

 The electronic state is 1-A.
 Alpha  occ. eigenvalues --  -46.94427 -46.94233 -19.30243 -19.29226 -19.25233
 Alpha  occ. eigenvalues --  -19.25022 -19.24727 -19.24275 -19.24153 -19.23462
 Alpha  occ. eigenvalues --  -14.46745 -14.46735 -14.46135 -14.45993 -14.44589
 Alpha  occ. eigenvalues --  -14.44512 -14.43878 -14.43766 -10.43532 -10.43289
 Alpha  occ. eigenvalues --  -10.39590 -10.39565 -10.39522 -10.39244 -10.35521
 Alpha  occ. eigenvalues --  -10.35498 -10.35337 -10.34949 -10.34769 -10.34671
 Alpha  occ. eigenvalues --  -10.34586 -10.34531 -10.34399 -10.34379 -10.34375
 Alpha  occ. eigenvalues --  -10.34182 -10.33992 -10.33849 -10.33776 -10.33601
 Alpha  occ. eigenvalues --  -10.33503 -10.33501 -10.33417 -10.33346 -10.33250
 Alpha  occ. eigenvalues --  -10.32881 -10.32818 -10.32625 -10.32436 -10.32358
 Alpha  occ. eigenvalues --  -10.32348 -10.32327 -10.32302 -10.32253 -10.32199
 Alpha  occ. eigenvalues --  -10.31905 -10.31813 -10.31761 -10.31707 -10.31678
 Alpha  occ. eigenvalues --  -10.31584 -10.31576 -10.31439 -10.31123 -10.31117
 Alpha  occ. eigenvalues --  -10.30995 -10.30791 -10.30708 -10.30646 -10.30386
 Alpha  occ. eigenvalues --  -10.30315 -10.30158 -10.30129 -10.30094 -10.30062
 Alpha  occ. eigenvalues --  -10.29949 -10.29766 -10.29635 -10.29628 -10.29445
 Alpha  occ. eigenvalues --  -10.29437 -10.29351 -10.29342 -10.29205 -10.29205
 Alpha  occ. eigenvalues --  -10.28329  -3.20525  -3.20353  -1.94126  -1.93950
 Alpha  occ. eigenvalues --   -1.93639  -1.93528  -1.93457  -1.93356  -1.17631
 Alpha  occ. eigenvalues --   -1.17307  -1.15199  -1.12317  -1.11386  -1.10033
 Alpha  occ. eigenvalues --   -1.09993  -1.09638  -1.07140  -1.06335  -1.05542
 Alpha  occ. eigenvalues --   -1.05487  -1.04866  -1.04834  -1.04147  -1.03413
 Alpha  occ. eigenvalues --   -0.93827  -0.93589  -0.90861  -0.90861  -0.90442
 Alpha  occ. eigenvalues --   -0.90437  -0.89916  -0.89757  -0.89496  -0.89112
 Alpha  occ. eigenvalues --   -0.88789  -0.88653  -0.88248  -0.88184  -0.86161
 Alpha  occ. eigenvalues --   -0.86027  -0.85461  -0.84855  -0.84418  -0.84126
 Alpha  occ. eigenvalues --   -0.83823  -0.83736  -0.82925  -0.82699  -0.82303
 Alpha  occ. eigenvalues --   -0.81968  -0.80949  -0.80161  -0.79355  -0.79137
 Alpha  occ. eigenvalues --   -0.78904  -0.78651  -0.77731  -0.77708  -0.76757
 Alpha  occ. eigenvalues --   -0.76490  -0.74223  -0.74078  -0.73445  -0.73405
 Alpha  occ. eigenvalues --   -0.71352  -0.71110  -0.70521  -0.70478  -0.70298
 Alpha  occ. eigenvalues --   -0.69651  -0.69093  -0.68670  -0.67610  -0.67417
 Alpha  occ. eigenvalues --   -0.67122  -0.66586  -0.66213  -0.66006  -0.65922
 Alpha  occ. eigenvalues --   -0.65772  -0.63778  -0.63282  -0.62668  -0.62105
 Alpha  occ. eigenvalues --   -0.61517  -0.61476  -0.60848  -0.60710  -0.60071
 Alpha  occ. eigenvalues --   -0.59745  -0.59726  -0.59531  -0.59181  -0.58770
 Alpha  occ. eigenvalues --   -0.58139  -0.57828  -0.57761  -0.57452  -0.57270
 Alpha  occ. eigenvalues --   -0.56727  -0.56536  -0.56140  -0.56025  -0.55892
 Alpha  occ. eigenvalues --   -0.55610  -0.55491  -0.55281  -0.55208  -0.54834
 Alpha  occ. eigenvalues --   -0.54453  -0.54400  -0.54154  -0.54062  -0.53840
 Alpha  occ. eigenvalues --   -0.53672  -0.53655  -0.53520  -0.53361  -0.53278
 Alpha  occ. eigenvalues --   -0.53176  -0.53103  -0.52797  -0.52402  -0.52303
 Alpha  occ. eigenvalues --   -0.52094  -0.52044  -0.51981  -0.51521  -0.51468
 Alpha  occ. eigenvalues --   -0.51402  -0.51384  -0.51243  -0.51016  -0.50927
 Alpha  occ. eigenvalues --   -0.50787  -0.50496  -0.50438  -0.50199  -0.50063
 Alpha  occ. eigenvalues --   -0.50028  -0.49871  -0.49696  -0.49365  -0.48863
 Alpha  occ. eigenvalues --   -0.48790  -0.48742  -0.48481  -0.48156  -0.48111
 Alpha  occ. eigenvalues --   -0.48020  -0.48011  -0.47717  -0.47681  -0.47520
 Alpha  occ. eigenvalues --   -0.47391  -0.47146  -0.47103  -0.47102  -0.46840
 Alpha  occ. eigenvalues --   -0.46777  -0.46632  -0.46521  -0.46246  -0.46112
 Alpha  occ. eigenvalues --   -0.46066  -0.45921  -0.45625  -0.45425  -0.45230
 Alpha  occ. eigenvalues --   -0.45170  -0.45075  -0.45007  -0.44844  -0.44683
 Alpha  occ. eigenvalues --   -0.44561  -0.44484  -0.44233  -0.44108  -0.43756
 Alpha  occ. eigenvalues --   -0.43499  -0.43484  -0.43413  -0.43332  -0.43305
 Alpha  occ. eigenvalues --   -0.43054  -0.42833  -0.42349  -0.42262  -0.42091
 Alpha  occ. eigenvalues --   -0.42085  -0.41125  -0.41008  -0.40965  -0.40562
 Alpha  occ. eigenvalues --   -0.40474  -0.40111  -0.39927  -0.39905  -0.39571
 Alpha  occ. eigenvalues --   -0.38912  -0.38835  -0.38621  -0.38567  -0.38262
 Alpha  occ. eigenvalues --   -0.37814  -0.37809  -0.36494  -0.36396  -0.36247
 Alpha  occ. eigenvalues --   -0.36149  -0.35419  -0.35034  -0.33486  -0.33370
 Alpha  occ. eigenvalues --   -0.33248  -0.33099  -0.33075  -0.32605  -0.32458
 Alpha  occ. eigenvalues --   -0.32241  -0.32157  -0.31736  -0.25921  -0.25875
 Alpha  occ. eigenvalues --   -0.22555  -0.22229
 Alpha virt. eigenvalues --   -0.06781  -0.06247  -0.00249   0.00569   0.01827
 Alpha virt. eigenvalues --    0.02513   0.04247   0.04570   0.05944   0.06304
 Alpha virt. eigenvalues --    0.06695   0.06759   0.07690   0.08106   0.08476

 Mulliken charges:
               1
     1  Mg   0.983777
     2  C    0.016801
     3  C   -0.089887
     4  C   -0.082454
     5  C   -0.106074
     6  N   -0.316814
     7  C    0.009685
     8  C   -0.040668
     9  C   -0.128915
    10  C    0.104182
    11  C   -0.004720
    12  C    0.028149
    13  C   -0.147793
    14  H    0.026129
    15  N   -0.452915
    16  C    0.111544
    17  C   -0.155619
    18  C   -0.103367
    19  C    0.123658
    20  C    0.045693
    21  C    0.084709
    22  O   -0.233074
    23  C   -0.023297
    24  N   -0.364270
    25  C    0.051516
    26  C   -0.053053
    27  C   -0.060156
    28  C    0.046655
    29  C    0.044666
    30  C   -0.025412
    31  C   -0.034951
    32  N   -0.448128
    33  C    0.163729
    34  C   -0.168806
    35  C   -0.084442
    36  C    0.117288
    37  C    0.076992
    38  C    0.137585
    39  O   -0.142193
    40  C   -0.138916
    41  C    0.283353
    42  O   -0.249107
    43  O   -0.383339
    44  C    0.147046
    45  H   -0.013072
    46  H    0.021596
    47  H   -0.009703
    48  H    0.043015
    49  H    0.044068
    50  H    0.031208
    51  H    0.051208
    52  H    0.038043
    53  H    0.037947
    54  H    0.036996
    55  H    0.053914
    56  H    0.051396
    57  H    0.057666
    58  H    0.063585
    59  H    0.032705
    60  H    0.059305
    61  H    0.038631
    62  H    0.062583
    63  H    0.024369
    64  H    0.023854
    65  H    0.039125
    66  H    0.044453
    67  H    0.032087
    68  H    0.026700
    69  H    0.023459
    70  H    0.026999
    71  H    0.051694
    72  H    0.040175
    73  H    0.057415
    74  H    0.036689
    75  H    0.074576
    76  H    0.075988
    77  H    0.054220
    78  H    0.040542
    79  H    0.061775
    80  Mg   0.984892
    81  C   -0.029929
    82  C   -0.097516
    83  C   -0.088062
    84  C   -0.091551
    85  N   -0.320788
    86  C   -0.001573
    87  C   -0.052494
    88  C   -0.133709
    89  C    0.011287
    90  C    0.044489
    91  C   -0.023218
    92  C   -0.099841
    93  H    0.046659
    94  N   -0.499664
    95  C    0.214593
    96  C   -0.158545
    97  C   -0.076593
    98  C    0.175281
    99  C    0.073716
   100  C    0.037654
   101  O   -0.272507
   102  C    0.020686
   103  N   -0.348965
   104  C    0.045807
   105  C   -0.087830
   106  C   -0.049372
   107  C    0.040509
   108  C    0.013464
   109  C   -0.039904
   110  C   -0.032201
   111  N   -0.452028
   112  C    0.124766
   113  C   -0.194101
   114  C   -0.009033
   115  C    0.139445
   116  C    0.070676
   117  C    0.151149
   118  O   -0.215026
   119  C   -0.144292
   120  C    0.289249
   121  O   -0.219327
   122  O   -0.405865
   123  C    0.143378
   124  H   -0.011166
   125  H    0.021209
   126  H    0.001211
   127  H    0.028724
   128  H    0.029454
   129  H    0.028585
   130  H    0.059086
   131  H    0.036168
   132  H    0.041286
   133  H    0.036831
   134  H    0.058438
   135  H    0.059635
   136  H    0.054092
   137  H    0.057852
   138  H    0.036117
   139  H    0.065634
   140  H    0.039186
   141  H    0.055211
   142  H    0.050639
   143  H    0.044455
   144  H    0.052665
   145  H    0.038275
   146  H    0.049604
   147  H    0.034823
   148  H    0.019209
   149  H    0.041767
   150  H    0.039425
   151  H    0.036823
   152  H    0.060601
   153  H    0.027122
   154  H    0.060444
   155  H    0.091838
   156  H    0.068519
   157  H    0.050137
   158  H    0.052333
 Sum of Mulliken charges =  -0.00000

 Dipole moment (field-independent basis, Debye):
    X=             -5.5360    Y=              2.6426    Z=              2.5130  Tot=              6.6291
 Quadrupole moment (field-independent basis, Debye-Ang):
   XX=           -411.2587   YY=           -474.0965   ZZ=           -499.6319
   XY=            -44.1857   XZ=             64.7024   YZ=             30.2094

 Normal termination of Gaussian 16 at Sat Sep 18 19:57:04 2021.
