 Gaussian 16, Revision A.03,
 Gaussian 16:  ES64L-G16RevA.03 25-Dec-2016

 --------------------------------
 #p wB97XD/Def2SVP td=(nstates=5)
 --------------------------------

 --------------------------------
 TDDFT excited states in gaussian
 --------------------------------
 Symbolic Z-matrix:
 Charge =  0 Multiplicity = 1

                         Standard orientation:
 ---------------------------------------------------------------------
 Center     Atomic      Atomic             Coordinates (Angstroms)
 Number     Number       Type             X           Y           Z
 ---------------------------------------------------------------------
      1         12           0      -14.972110    0.310108   -0.204596
      2          6           0      -11.874518    1.896174   -0.768412
      3          6           0      -14.266600   -1.724377   -2.844726
      4          6           0      -17.559128   -1.686169    0.797238
      5          6           0      -15.163762    2.230071    2.791572
      6          7           0      -13.162719    0.019561   -1.577004
      7          6           0      -12.086843    0.841228   -1.755344
      8          6           0      -11.110097    0.301384   -2.814314
      9          6           0      -12.169561   -0.595890   -3.623608
     10          6           0      -13.280351   -0.781863   -2.620037
     11          6           0      -12.700400    0.017774   -4.946921
     12          6           0       -9.923956   -0.590329   -2.230109
     13          6           0       -8.638750   -0.722052   -3.032607
     14          1           0       -8.223959   -2.045963   -3.709167
     15          7           0      -15.899977   -1.496497   -0.910879
     16          6           0      -15.513761   -2.062415   -2.091046
     17          6           0      -16.413941   -3.050740   -2.492801
     18          6           0      -17.430261   -3.068262   -1.464713
     19          6           0      -17.001469   -2.088290   -0.427051
     20          6           0      -16.300842   -3.871711   -3.771716
     21          6           0      -18.636052   -3.978235   -1.528640
     22          8           0      -18.780079   -4.749689   -2.511915
     23          6           0      -19.805269   -3.949176   -0.482308
     24          7           0      -16.131411    0.327731    1.523200
     25          6           0      -17.191281   -0.603992    1.691662
     26          6           0      -18.088714   -0.162065    2.813987
     27          6           0      -17.219234    0.810778    3.639724
     28          6           0      -16.143587    1.227185    2.594525
     29          6           0      -19.414162    0.566990    2.497672
     30          6           0      -16.513123    0.084762    4.902417
     31          6           0      -17.305264   -0.060393    6.193033
     32          7           0      -13.837696    1.901434    0.698371
     33          6           0      -14.043419    2.576594    1.892128
     34          6           0      -13.021007    3.467916    2.157811
     35          6           0      -12.128797    3.286944    1.087101
     36          6           0      -12.667130    2.302072    0.241821
     37          6           0      -12.956490    4.379564    3.342390
     38          6           0      -10.989604    3.771110    0.507232
     39          8           0      -10.306178    4.731085    0.804173
     40          6           0      -10.651057    2.718682   -0.569431
     41          6           0       -9.465340    1.979060   -0.025543
     42          8           0       -9.457614    1.405361    1.018912
     43          8           0       -8.370014    2.130335   -0.877727
     44          6           0       -7.177332    1.589526   -0.324544
     45          1           0      -14.185684   -2.255718   -3.795549
     46          1           0      -18.508857   -2.157380    1.060562
     47          1           0      -15.363582    2.875933    3.648859
     48          1           0      -10.789354    1.070496   -3.516151
     49          1           0      -11.645709   -1.509630   -3.902872
     50          1           0      -12.080595   -0.473317   -5.697628
     51          1           0      -12.523850    1.091744   -5.005029
     52          1           0      -13.744460   -0.243490   -5.120266
     53          1           0      -10.249919   -1.623488   -2.109614
     54          1           0       -9.740113   -0.230559   -1.217518
     55          1           0       -7.859639   -0.432991   -2.325758
     56          1           0       -8.661157    0.049308   -3.802246
     57          1           0      -17.203466   -4.150987   -4.316235
     58          1           0      -15.731377   -4.706652   -3.364113
     59          1           0      -15.777800   -3.297208   -4.536254
     60          1           0      -20.290005   -2.973605   -0.507996
     61          1           0      -19.284825   -4.169414    0.449545
     62          1           0      -20.530521   -4.760030   -0.549009
     63          1           0      -18.272665   -1.046649    3.422855
     64          1           0      -17.787489    1.666892    4.003578
     65          1           0      -19.452364    1.612503    2.803016
     66          1           0      -20.271021   -0.095226    2.623354
     67          1           0      -19.404652    0.657307    1.411579
     68          1           0      -15.655272    0.743334    5.036837
     69          1           0      -16.165755   -0.912411    4.631424
     70          1           0      -17.284897   -1.103134    6.508704
     71          1           0      -18.337616    0.242855    6.016505
     72          1           0      -16.853021    0.511855    7.003453
     73          1           0      -11.962849    4.244362    3.768604
     74          1           0      -13.658379    4.098392    4.128471
     75          1           0      -13.073791    5.430173    3.076195
     76          1           0      -10.383009    3.247421   -1.483487
     77          1           0       -6.637700    2.368874    0.212829
     78          1           0       -6.437971    1.309328   -1.075798
     79          1           0       -7.372530    0.764013    0.357816
     80         12           0       14.086259   -1.061110   -0.212377
     81          6           0       14.725937    2.459424   -0.631241
     82          6           0       10.851206   -0.511541   -0.835438
     83          6           0       13.480884   -4.106773    1.047863
     84          6           0       17.409804   -1.349896    0.871555
     85          7           0       12.953033    0.751104   -0.616716
     86          6           0       13.413137    2.039947   -0.936212
     87          6           0       12.257534    2.931059   -1.532079
     88          6           0       11.039893    1.958160   -1.512503
     89          6           0       11.653016    0.624577   -1.008488
     90          6           0        9.838265    2.369339   -0.700085
     91          6           0       12.630801    3.556963   -2.980579
     92          6           0       12.460059    5.076428   -3.099833
     93          1           0       11.465381    5.520973   -4.235770
     94          7           0       12.402980   -2.214217   -0.061351
     95          6           0       11.155953   -1.832161   -0.354852
     96          6           0       10.188602   -2.897743   -0.086776
     97          6           0       10.972924   -3.915597    0.558013
     98          6           0       12.359685   -3.438125    0.557725
     99          6           0        8.759824   -2.793848   -0.409309
    100          6           0       10.364810   -5.200072    1.203876
    101          8           0       11.065134   -6.074610    1.685823
    102          6           0        8.893275   -5.461394    1.255562
    103          7           0       15.253884   -2.460402    0.775086
    104          6           0       14.785634   -3.731020    1.092034
    105          6           0       15.934466   -4.625613    1.663062
    106          6           0       17.229661   -3.825968    1.261357
    107          6           0       16.615937   -2.475721    0.891845
    108          6           0       15.823623   -5.095297    3.150180
    109          6           0       18.011191   -4.439040    0.067192
    110          6           0       19.518516   -4.430524    0.107395
    111          7           0       15.737489    0.263852    0.123464
    112          6           0       17.002467   -0.009626    0.560505
    113          6           0       17.845771    1.258287    0.433763
    114          6           0       17.010823    2.224485   -0.073241
    115          6           0       15.723418    1.594690   -0.179137
    116          6           0       19.329034    1.285546    0.724677
    117          6           0       16.865467    3.608619   -0.487416
    118          8           0       17.795828    4.441631   -0.482751
    119          6           0       15.273454    3.869622   -0.799341
    120          6           0       14.584029    4.812896    0.164232
    121          8           0       14.626651    4.613252    1.394346
    122          8           0       14.094249    5.957646   -0.465907
    123          6           0       13.820105    7.034474    0.478468
    124          1           0        9.804086   -0.428151   -1.133131
    125          1           0       13.204347   -5.110140    1.377360
    126          1           0       18.458735   -1.545733    1.105606
    127          1           0       12.188366    3.739637   -0.804664
    128          1           0       10.633059    2.009743   -2.523353
    129          1           0        9.981901    3.308549   -0.165729
    130          1           0        9.881884    1.605372    0.075417
    131          1           0        8.929588    2.470648   -1.294267
    132          1           0       11.967354    3.013452   -3.652710
    133          1           0       13.632036    3.229746   -3.259598
    134          1           0       13.461000    5.493209   -3.211683
    135          1           0       12.044983    5.463391   -2.168325
    136          1           0        8.010998   -2.937190    0.369047
    137          1           0        8.548763   -3.693847   -0.985730
    138          1           0        8.492535   -2.000764   -1.107991
    139          1           0        8.577652   -5.501249    0.212329
    140          1           0        8.436529   -4.573833    1.694313
    141          1           0        8.778025   -6.377196    1.833973
    142          1           0       15.885107   -5.525695    1.050222
    143          1           0       17.884216   -3.624797    2.109079
    144          1           0       14.828291   -4.773960    3.456192
    145          1           0       16.624767   -4.735158    3.794969
    146          1           0       15.732251   -6.179027    3.232733
    147          1           0       17.631230   -3.774336   -0.708391
    148          1           0       17.708654   -5.449747   -0.207511
    149          1           0       19.825011   -5.411550   -0.255765
    150          1           0       19.919841   -4.324476    1.115776
    151          1           0       19.832479   -3.736308   -0.672477
    152          1           0       19.608539    0.285961    1.057058
    153          1           0       19.493653    1.941788    1.578989
    154          1           0       19.865824    1.658058   -0.147552
    155          1           0       15.177908    4.196035   -1.834925
    156          1           0       14.488612    7.891896    0.414420
    157          1           0       13.797049    6.717732    1.521276
    158          1           0       12.813920    7.385517    0.250873
 ---------------------------------------------------------------------

 SCF Done:  E(RwB97XD) =  -4070.57274693     A.U. after   20 cycles

 Excitation energies and oscillator strengths:

 Excited State   1:      Singlet-A      1.6411 eV  755.50 nm  f=0.5301  <S**2>=0.000
     310 -> 316       -0.17657
     311 -> 313       -0.10215
     312 -> 314        0.67812
     310 <- 316       -0.11540
 This state for optimization and/or second-order correction.
 Total Energy, E(TD-HF/TD-DFT) =  -4070.51243818
 Copying the excited state density for this state as the 1-particle RhoCI density.

 Excited State   2:      Singlet-A      1.6463 eV  753.11 nm  f=0.2896  <S**2>=0.000
     309 -> 315        0.18914
     311 -> 313        0.67283
     312 -> 314        0.10275
     309 <- 315        0.11668

 Excited State   3:      Singlet-A      2.0912 eV  592.89 nm  f=0.1264  <S**2>=0.000
     309 -> 313        0.64853
     311 -> 315       -0.26307

 Excited State   4:      Singlet-A      2.2310 eV  555.74 nm  f=0.0893  <S**2>=0.000
     310 -> 314        0.62835
     312 -> 316        0.31480

 Excited State   5:      Singlet-A      3.4549 eV  358.87 nm  f=0.0000  <S**2>=0.000
     312 -> 313        0.70706

 The electronic state is 1-A.
 Alpha  occ. eigenvalues --  -46.96712 -46.94738 -19.31926 -19.30714 -19.25921
 Alpha  occ. eigenvalues --  -19.25812 -19.25062 -19.23524 -19.23230 -19.22981
 Alpha  occ. eigenvalues --  -14.47836 -14.47329 -14.47180 -14.46247 -14.44466
 Alpha  occ. eigenvalues --  -14.44301 -14.43927 -14.43878 -10.44711 -10.43635
 Alpha  occ. eigenvalues --  -10.40605 -10.39075 -10.38855 -10.37418 -10.36529
 Alpha  occ. eigenvalues --  -10.36427 -10.35744 -10.35664 -10.35471 -10.35052
 Alpha  occ. eigenvalues --  -10.34954 -10.34836 -10.34789 -10.34733 -10.34355
 Alpha  occ. eigenvalues --  -10.34347 -10.34111 -10.34036 -10.34033 -10.33762
 Alpha  occ. eigenvalues --  -10.33475 -10.33391 -10.33181 -10.33168 -10.33056
 Alpha  occ. eigenvalues --  -10.33008 -10.32639 -10.32534 -10.32426 -10.32425
 Alpha  occ. eigenvalues --  -10.32334 -10.32175 -10.32174 -10.32151 -10.32095
 Alpha  occ. eigenvalues --  -10.31959 -10.31917 -10.31768 -10.31733 -10.31707
 Alpha  occ. eigenvalues --  -10.31588 -10.31564 -10.31498 -10.31413 -10.31380
 Alpha  occ. eigenvalues --  -10.31288 -10.31259 -10.31006 -10.30993 -10.30545
 Alpha  occ. eigenvalues --  -10.30538 -10.30479 -10.30397 -10.30281 -10.30046
 Alpha  occ. eigenvalues --  -10.30017 -10.29994 -10.29849 -10.29836 -10.29816
 Alpha  occ. eigenvalues --  -10.29508 -10.29358 -10.29331 -10.29236 -10.29199
 Alpha  occ. eigenvalues --  -10.28253  -3.22482  -3.20812  -1.96063  -1.95591
 Alpha  occ. eigenvalues --   -1.95441  -1.94384  -1.93922  -1.93812  -1.19879
 Alpha  occ. eigenvalues --   -1.18521  -1.12336  -1.12282  -1.11812  -1.11338
 Alpha  occ. eigenvalues --   -1.10163  -1.09584  -1.07840  -1.06774  -1.06038
 Alpha  occ. eigenvalues --   -1.05922  -1.05326  -1.04631  -1.03961  -1.03907
 Alpha  occ. eigenvalues --   -0.96437  -0.94632  -0.90991  -0.90931  -0.90698
 Alpha  occ. eigenvalues --   -0.90612  -0.90599  -0.89918  -0.89584  -0.89282
 Alpha  occ. eigenvalues --   -0.89133  -0.89088  -0.88073  -0.87925  -0.86364
 Alpha  occ. eigenvalues --   -0.86188  -0.85591  -0.85552  -0.84903  -0.84613
 Alpha  occ. eigenvalues --   -0.83879  -0.83832  -0.83159  -0.82715  -0.82360
 Alpha  occ. eigenvalues --   -0.82190  -0.80379  -0.80080  -0.79532  -0.79369
 Alpha  occ. eigenvalues --   -0.78959  -0.78870  -0.78138  -0.77974  -0.77707
 Alpha  occ. eigenvalues --   -0.76647  -0.75668  -0.74454  -0.74302  -0.72945
 Alpha  occ. eigenvalues --   -0.71537  -0.71008  -0.70474  -0.70461  -0.70331
 Alpha  occ. eigenvalues --   -0.69831  -0.69227  -0.68675  -0.68322  -0.67384
 Alpha  occ. eigenvalues --   -0.67259  -0.66937  -0.66895  -0.66770  -0.66355
 Alpha  occ. eigenvalues --   -0.66302  -0.64882  -0.64589  -0.62570  -0.62249
 Alpha  occ. eigenvalues --   -0.62220  -0.61746  -0.61652  -0.61252  -0.61096
 Alpha  occ. eigenvalues --   -0.60882  -0.60498  -0.60339  -0.60146  -0.59315
 Alpha  occ. eigenvalues --   -0.58554  -0.58247  -0.57768  -0.57400  -0.57359
 Alpha  occ. eigenvalues --   -0.57138  -0.57050  -0.56846  -0.55874  -0.55702
 Alpha  occ. eigenvalues --   -0.55570  -0.55441  -0.55178  -0.55110  -0.54801
 Alpha  occ. eigenvalues --   -0.54584  -0.54536  -0.54356  -0.54278  -0.53850
 Alpha  occ. eigenvalues --   -0.53756  -0.53543  -0.53442  -0.53426  -0.53213
 Alpha  occ. eigenvalues --   -0.53179  -0.53059  -0.52853  -0.52771  -0.52603
 Alpha  occ. eigenvalues --   -0.52181  -0.52127  -0.51843  -0.51724  -0.51556
 Alpha  occ. eigenvalues --   -0.51400  -0.51335  -0.51064  -0.50995  -0.50796
 Alpha  occ. eigenvalues --   -0.50723  -0.50567  -0.50476  -0.50255  -0.50074
 Alpha  occ. eigenvalues --   -0.49936  -0.49863  -0.49341  -0.49217  -0.49179
 Alpha  occ. eigenvalues --   -0.49031  -0.48924  -0.48682  -0.48608  -0.48423
 Alpha  occ. eigenvalues --   -0.48404  -0.48312  -0.48030  -0.47952  -0.47886
 Alpha  occ. eigenvalues --   -0.47782  -0.47595  -0.47318  -0.47303  -0.47060
 Alpha  occ. eigenvalues --   -0.46731  -0.46572  -0.46497  -0.46316  -0.46068
 Alpha  occ. eigenvalues --   -0.45943  -0.45882  -0.45777  -0.45715  -0.45550
 Alpha  occ. eigenvalues --   -0.45346  -0.45229  -0.45143  -0.44961  -0.44951
 Alpha  occ. eigenvalues --   -0.44810  -0.44623  -0.44593  -0.44509  -0.44216
 Alpha  occ. eigenvalues --   -0.43722  -0.43629  -0.43516  -0.43353  -0.43236
 Alpha  occ. eigenvalues --   -0.43028  -0.42979  -0.42683  -0.42454  -0.42445
 Alpha  occ. eigenvalues --   -0.42256  -0.42087  -0.41433  -0.41421  -0.41024
 Alpha  occ. eigenvalues --   -0.40500  -0.40201  -0.39883  -0.39741  -0.39641
 Alpha  occ. eigenvalues --   -0.39482  -0.39422  -0.39208  -0.38975  -0.38698
 Alpha  occ. eigenvalues --   -0.38495  -0.38030  -0.37564  -0.37122  -0.37076
 Alpha  occ. eigenvalues --   -0.36430  -0.35732  -0.35156  -0.33716  -0.33703
 Alpha  occ. eigenvalues --   -0.33505  -0.32605  -0.32572  -0.32525  -0.32218
 Alpha  occ. eigenvalues --   -0.32038  -0.31933  -0.31695  -0.26295  -0.26092
 Alpha  occ. eigenvalues --   -0.23897  -0.22573
 Alpha virt. eigenvalues --   -0.08014  -0.06761  -0.00642   0.00599   0.01946
 Alpha virt. eigenvalues --    0.01981   0.04291   0.04507   0.04638   0.04892
 Alpha virt. eigenvalues --    0.05119   0.06682   0.07007   0.07370   0.07910

 Mulliken charges:
               1
     1  Mg   0.948712
     2  C    0.000513
     3  C   -0.064787
     4  C   -0.087386
     5  C   -0.085776
     6  N   -0.297887
     7  C   -0.038087
     8  C   -0.036652
     9  C   -0.151825
    10  C    0.082425
    11  C    0.029921
    12  C   -0.001089
    13  C   -0.097647
    14  H    0.043576
    15  N   -0.426070
    16  C    0.122571
    17  C   -0.157831
    18  C   -0.085147
    19  C    0.168993
    20  C    0.086499
    21  C    0.032098
    22  O   -0.271656
    23  C   -0.011352
    24  N   -0.428261
    25  C    0.087370
    26  C   -0.092111
    27  C   -0.113418
    28  C    0.082308
    29  C    0.055269
    30  C   -0.033223
    31  C   -0.022721
    32  N   -0.388544
    33  C    0.120836
    34  C   -0.174779
    35  C    0.038857
    36  C    0.121385
    37  C    0.098393
    38  C    0.025903
    39  O   -0.206430
    40  C   -0.074445
    41  C    0.254031
    42  O   -0.209698
    43  O   -0.358140
    44  C    0.118863
    45  H   -0.004388
    46  H   -0.015809
    47  H    0.010082
    48  H    0.028133
    49  H    0.041384
    50  H    0.039060
    51  H    0.042948
    52  H    0.043471
    53  H    0.044090
    54  H    0.047752
    55  H    0.049535
    56  H    0.043031
    57  H    0.069617
    58  H    0.065460
    59  H    0.029106
    60  H    0.067731
    61  H    0.050344
    62  H    0.051518
    63  H    0.031836
    64  H    0.027994
    65  H    0.049202
    66  H    0.044466
    67  H    0.015809
    68  H    0.024909
    69  H    0.036989
    70  H    0.036070
    71  H    0.032896
    72  H    0.043145
    73  H    0.055703
    74  H    0.023826
    75  H    0.063744
    76  H    0.047820
    77  H    0.048818
    78  H    0.048115
    79  H    0.062035
    80  Mg   0.976004
    81  C   -0.099657
    82  C   -0.080761
    83  C   -0.088148
    84  C   -0.101396
    85  N   -0.370383
    86  C   -0.011503
    87  C   -0.072336
    88  C   -0.107096
    89  C    0.104574
    90  C    0.024218
    91  C    0.006624
    92  C   -0.108932
    93  H    0.027739
    94  N   -0.454498
    95  C    0.113979
    96  C   -0.149657
    97  C   -0.076293
    98  C    0.117985
    99  C    0.069628
   100  C    0.031692
   101  O   -0.238347
   102  C    0.011525
   103  N   -0.401075
   104  C    0.093454
   105  C   -0.058205
   106  C   -0.103713
   107  C    0.063924
   108  C    0.035211
   109  C   -0.016672
   110  C   -0.026188
   111  N   -0.388589
   112  C    0.149131
   113  C   -0.228837
   114  C    0.015722
   115  C    0.154326
   116  C    0.098502
   117  C    0.146810
   118  O   -0.221190
   119  C   -0.037366
   120  C    0.292880
   121  O   -0.256279
   122  O   -0.367224
   123  C    0.121068
   124  H   -0.014055
   125  H    0.016117
   126  H   -0.003789
   127  H    0.041704
   128  H    0.034136
   129  H    0.028997
   130  H    0.041602
   131  H    0.042968
   132  H    0.031951
   133  H    0.037963
   134  H    0.064367
   135  H    0.054598
   136  H    0.046751
   137  H    0.028164
   138  H    0.042531
   139  H    0.049406
   140  H    0.052172
   141  H    0.067766
   142  H    0.030951
   143  H    0.029193
   144  H    0.038600
   145  H    0.045342
   146  H    0.035493
   147  H    0.029341
   148  H    0.034931
   149  H    0.028912
   150  H    0.041856
   151  H    0.043805
   152  H    0.023019
   153  H    0.059049
   154  H    0.067079
   155  H    0.058178
   156  H    0.063457
   157  H    0.072099
   158  H    0.044690
 Sum of Mulliken charges =  -0.00000

 Dipole moment (field-independent basis, Debye):
    X=             -4.2076    Y=             -0.6099    Z=             -2.4008  Tot=              4.8825
 Quadrupole moment (field-independent basis, Debye-Ang):
   XX=           -503.2796   YY=           -547.4723   ZZ=           -496.9914
   XY=            -68.0381   XZ=            -61.9290   YZ=             -4.5394

 Normal termination of Gaussian 16 at Sun Sep 19 12:25:08 2021.
