 Gaussian 16, Revision A.03,
 Gaussian 16:  ES64L-G16RevA.03 25-Dec-2016

 --------------------------------
 #p wB97XD/Def2SVP td=(nstates=5)
 --------------------------------

 --------------------------------
 TDDFT excited states in gaussian
 --------------------------------
 Symbolic Z-matrix:
 Charge =  0 Multiplicity = 1

                         Standard orientation:
 ---------------------------------------------------------------------
 Center     Atomic      Atomic             Coordinates (Angstroms)
 Number     Number       Type             X           Y           Z
 ---------------------------------------------------------------------
      1         12           0       25.791271    0.398428   -0.274627
      2          6           0       22.888496   -1.265647    0.236719
      3          6           0       27.561329   -2.284412    1.042191
      4          6           0       28.694020    2.065648   -0.780486
      5          6           0       24.012205    3.244220   -1.122822
      6          7           0       25.241501   -1.516202    0.407647
      7          6           0       23.993269   -2.019841    0.579849
      8          6           0       24.007419   -3.483016    0.938067
      9          6           0       25.478189   -3.711328    1.455966
     10          6           0       26.154367   -2.415108    0.900669
     11          6           0       25.750866   -4.008674    2.989587
     12          6           0       23.725935   -4.405837   -0.331943
     13          6           0       23.151145   -5.799252    0.059014
     14          1           0       23.451152   -6.448806    1.420345
     15          7           0       27.880882    0.015819    0.144318
     16          6           0       28.370993   -1.198149    0.693195
     17          6           0       29.798861   -1.138361    0.782152
     18          6           0       30.170219    0.152809    0.262609
     19          6           0       28.868363    0.780954   -0.162257
     20          6           0       30.668231   -2.258474    1.235222
     21          6           0       31.554890    0.774133    0.117606
     22          8           0       31.796435    1.963476   -0.242812
     23          6           0       32.782844   -0.059702    0.441720
     24          7           0       26.291210    2.377682   -0.795884
     25          6           0       27.579881    2.794289   -1.133431
     26          6           0       27.642990    4.137969   -1.915615
     27          6           0       26.044182    4.435311   -2.030422
     28          6           0       25.391111    3.307478   -1.318952
     29          6           0       28.422414    5.165138   -1.084433
     30          6           0       25.554533    4.653345   -3.431718
     31          6           0       24.843432    5.962705   -3.621116
     32          7           0       23.932799    1.008973   -0.335464
     33          6           0       23.293444    2.180210   -0.722374
     34          6           0       21.889619    2.027862   -0.617441
     35          6           0       21.634500    0.695002   -0.196667
     36          6           0       22.897196    0.068471   -0.136703
     37          6           0       20.819170    3.005206   -0.918859
     38          6           0       20.613429   -0.228344    0.247493
     39          8           0       19.413098   -0.162555    0.427321
     40          6           0       21.445188   -1.579001    0.472063
     41          6           0       20.995306   -2.327428    1.674834
     42          8           0       20.737157   -1.863476    2.756002
     43          8           0       20.848765   -3.643656    1.457402
     44          6           0       20.412440   -4.420784    2.652269
     45          1           0       27.998648   -3.097856    1.625087
     46          1           0       29.623740    2.637369   -0.812754
     47          1           0       23.378083    4.057132   -1.482502
     48          1           0       23.382975   -3.706006    1.803031
     49          1           0       25.920840   -4.521577    0.877498
     50          1           0       24.780531   -4.112682    3.475251
     51          1           0       26.350041   -3.289253    3.545477
     52          1           0       26.333658   -4.929258    3.026193
     53          1           0       24.689124   -4.461478   -0.839466
     54          1           0       23.007161   -3.878413   -0.959189
     55          1           0       23.525983   -6.434695   -0.743572
     56          1           0       22.078192   -5.744931   -0.123259
     57          1           0       30.894998   -3.016571    0.485512
     58          1           0       30.159014   -2.684606    2.098726
     59          1           0       31.579027   -1.921731    1.729464
     60          1           0       32.909353    0.005321    1.522292
     61          1           0       33.607131    0.456013   -0.050303
     62          1           0       32.695986   -1.108482    0.157240
     63          1           0       28.212036    3.930289   -2.821870
     64          1           0       25.826149    5.355517   -1.487355
     65          1           0       28.670699    4.864550   -0.066327
     66          1           0       27.917195    6.128371   -1.151332
     67          1           0       29.396726    5.255062   -1.565647
     68          1           0       24.817511    3.915788   -3.749652
     69          1           0       26.327545    4.596398   -4.198184
     70          1           0       25.194165    6.518630   -4.490149
     71          1           0       24.974648    6.614410   -2.757716
     72          1           0       23.787236    5.691797   -3.625945
     73          1           0       21.068016    4.054132   -0.755102
     74          1           0       20.118230    2.864457   -0.095570
     75          1           0       20.436532    2.840124   -1.926109
     76          1           0       21.062489   -2.107490   -0.401542
     77          1           0       19.345844   -4.304927    2.849936
     78          1           0       21.058437   -4.243473    3.512287
     79          1           0       20.554659   -5.480058    2.436833
     80         12           0      -26.117680   -0.292269    0.362629
     81          6           0      -22.814563   -1.345255   -0.277067
     82          6           0      -24.899621    1.511937    2.983381
     83          6           0      -29.135568    1.305302    0.509487
     84          6           0      -26.981202   -1.849627   -2.724275
     85          7           0      -24.025135    0.158365    1.175036
     86          6           0      -22.846441   -0.469696    0.891011
     87          6           0      -21.668715    0.110142    1.693278
     88          6           0      -22.530626    0.698970    2.915127
     89          6           0      -23.915790    0.796976    2.325798
     90          6           0      -22.527724   -0.151944    4.213382
     91          6           0      -20.860955    1.264560    0.946137
     92          6           0      -19.418822    1.532001    1.348422
     93          1           0      -18.996476    2.820379    2.086143
     94          7           0      -27.012621    1.220373    1.601413
     95          6           0      -26.354730    1.704321    2.694662
     96          6           0      -27.208110    2.458818    3.501504
     97          6           0      -28.489315    2.412370    2.833270
     98          6           0      -28.280409    1.655236    1.566756
     99          6           0      -26.810327    3.130654    4.810249
    100          6           0      -29.725596    3.074624    3.398156
    101          8           0      -29.655807    3.686207    4.495338
    102          6           0      -31.149775    2.957106    2.749599
    103          7           0      -27.749173   -0.316762   -0.928569
    104          6           0      -28.924741    0.420497   -0.621479
    105          6           0      -30.061346   -0.041910   -1.490161
    106          6           0      -29.372712   -0.737049   -2.684659
    107          6           0      -27.975964   -1.071309   -2.084481
    108          6           0      -31.106661   -1.031308   -0.927315
    109          6           0      -29.207230    0.248231   -3.958207
    110          6           0      -30.378192    0.397904   -4.917733
    111          7           0      -25.120235   -1.534150   -1.085611
    112          6           0      -25.598019   -2.090423   -2.262685
    113          6           0      -24.600154   -2.744025   -2.960852
    114          6           0      -23.449129   -2.531291   -2.182971
    115          6           0      -23.822280   -1.766640   -1.064785
    116          6           0      -24.789004   -3.483262   -4.247848
    117          6           0      -22.130317   -2.865515   -2.050860
    118          8           0      -21.451266   -3.643961   -2.690945
    119          6           0      -21.616247   -1.903040   -0.959625
    120          6           0      -20.775406   -0.901931   -1.694165
    121          8           0      -21.176066   -0.217682   -2.583743
    122          8           0      -19.457274   -0.951079   -1.237051
    123          6           0      -18.585695   -0.141732   -2.015691
    124          1           0      -24.596076    1.933693    3.944066
    125          1           0      -30.174801    1.624053    0.617918
    126          1           0      -27.351253   -2.415754   -3.581345
    127          1           0      -21.041073   -0.665074    2.131559
    128          1           0      -22.075276    1.653326    3.178169
    129          1           0      -21.775809    0.351768    4.821485
    130          1           0      -22.197036   -1.175340    4.036569
    131          1           0      -23.489075   -0.106590    4.725354
    132          1           0      -21.346065    2.228340    1.101013
    133          1           0      -20.958791    1.065600   -0.121298
    134          1           0      -18.870842    1.474128    0.406841
    135          1           0      -19.091703    0.684384    1.950404
    136          1           0      -27.524183    3.175641    5.633421
    137          1           0      -26.518163    4.097041    4.400016
    138          1           0      -25.999490    2.574775    5.281087
    139          1           0      -31.463715    1.913647    2.751911
    140          1           0      -30.985205    3.376014    1.757052
    141          1           0      -31.920414    3.609417    3.160121
    142          1           0      -30.546955    0.859939   -1.861511
    143          1           0      -29.904318   -1.633256   -3.004725
    144          1           0      -31.096218   -2.023173   -1.378855
    145          1           0      -32.041313   -0.525392   -0.684403
    146          1           0      -30.742641   -1.245364    0.077431
    147          1           0      -28.354229   -0.223390   -4.445709
    148          1           0      -28.931599    1.253010   -3.637420
    149          1           0      -30.600992    1.456786   -5.046192
    150          1           0      -31.250506   -0.106166   -4.500775
    151          1           0      -30.131192    0.016416   -5.908808
    152          1           0      -24.008906   -3.120955   -4.916759
    153          1           0      -25.734552   -3.243690   -4.735878
    154          1           0      -24.671768   -4.561594   -4.138979
    155          1           0      -21.003916   -2.478053   -0.265850
    156          1           0      -18.142199   -0.741653   -2.809895
    157          1           0      -17.692560    0.177691   -1.477334
    158          1           0      -19.096997    0.709035   -2.462854
 ---------------------------------------------------------------------

 SCF Done:  E(RwB97XD) =  -4070.58683351     A.U. after   20 cycles

 Excitation energies and oscillator strengths:

 Excited State   1:      Singlet-A      1.5874 eV  781.05 nm  f=0.3936  <S**2>=0.000
     309 -> 316       -0.17576
     312 -> 314        0.68654
     309 <- 316       -0.11663
 This state for optimization and/or second-order correction.
 Total Energy, E(TD-HF/TD-DFT) =  -4070.52849776
 Copying the excited state density for this state as the 1-particle RhoCI density.

 Excited State   2:      Singlet-A      1.6461 eV  753.18 nm  f=0.3988  <S**2>=0.000
     310 -> 315        0.19121
     311 -> 313        0.68053
     310 <- 315        0.11798

 Excited State   3:      Singlet-A      2.0912 eV  592.88 nm  f=0.1262  <S**2>=0.000
     310 -> 313        0.64853
     311 -> 315       -0.26303

 Excited State   4:      Singlet-A      2.1692 eV  571.57 nm  f=0.1095  <S**2>=0.000
     309 -> 314        0.63608
     312 -> 316        0.29408

 Excited State   5:      Singlet-A      3.1710 eV  390.99 nm  f=0.0098  <S**2>=0.000
     306 -> 313       -0.26121
     308 -> 313        0.61000
     308 -> 317       -0.13665

 The electronic state is 1-A.
 Alpha  occ. eigenvalues --  -46.96644 -46.93507 -19.30621 -19.30372 -19.25834
 Alpha  occ. eigenvalues --  -19.24282 -19.23695 -19.23553 -19.23159 -19.22918
 Alpha  occ. eigenvalues --  -14.47771 -14.47462 -14.47267 -14.46302 -14.44398
 Alpha  occ. eigenvalues --  -14.44111 -14.43812 -14.43404 -10.43549 -10.42418
 Alpha  occ. eigenvalues --  -10.39221 -10.39174 -10.39015 -10.37347 -10.36465
 Alpha  occ. eigenvalues --  -10.36359 -10.35815 -10.35683 -10.35382 -10.34986
 Alpha  occ. eigenvalues --  -10.34951 -10.34731 -10.34719 -10.34718 -10.34518
 Alpha  occ. eigenvalues --  -10.34279 -10.34122 -10.33972 -10.33898 -10.33331
 Alpha  occ. eigenvalues --  -10.33312 -10.33068 -10.32963 -10.32893 -10.32836
 Alpha  occ. eigenvalues --  -10.32467 -10.32369 -10.32361 -10.32306 -10.32189
 Alpha  occ. eigenvalues --  -10.32099 -10.32099 -10.32086 -10.32028 -10.31914
 Alpha  occ. eigenvalues --  -10.31909 -10.31893 -10.31860 -10.31810 -10.31760
 Alpha  occ. eigenvalues --  -10.31704 -10.31642 -10.31600 -10.31591 -10.31543
 Alpha  occ. eigenvalues --  -10.31523 -10.31488 -10.31292 -10.31143 -10.30680
 Alpha  occ. eigenvalues --  -10.30462 -10.30425 -10.30343 -10.30226 -10.29971
 Alpha  occ. eigenvalues --  -10.29956 -10.29785 -10.29711 -10.29631 -10.29499
 Alpha  occ. eigenvalues --  -10.29459 -10.29443 -10.29327 -10.29281 -10.28917
 Alpha  occ. eigenvalues --  -10.28187  -3.22415  -3.19757  -1.95995  -1.95524
 Alpha  occ. eigenvalues --   -1.95373  -1.93347  -1.92871  -1.92779  -1.19790
 Alpha  occ. eigenvalues --   -1.19478  -1.12387  -1.12253  -1.11734  -1.09625
 Alpha  occ. eigenvalues --   -1.09523  -1.09452  -1.07772  -1.06708  -1.06520
 Alpha  occ. eigenvalues --   -1.05972  -1.05603  -1.04728  -1.03900  -1.03424
 Alpha  occ. eigenvalues --   -0.96367  -0.95359  -0.91583  -0.90858  -0.90728
 Alpha  occ. eigenvalues --   -0.90625  -0.90555  -0.90446  -0.89596  -0.89519
 Alpha  occ. eigenvalues --   -0.89171  -0.89022  -0.88361  -0.87860  -0.86294
 Alpha  occ. eigenvalues --   -0.86237  -0.85722  -0.85526  -0.84826  -0.84380
 Alpha  occ. eigenvalues --   -0.83811  -0.83590  -0.83004  -0.82645  -0.82466
 Alpha  occ. eigenvalues --   -0.82296  -0.80309  -0.80013  -0.79709  -0.79302
 Alpha  occ. eigenvalues --   -0.79272  -0.78888  -0.78463  -0.77899  -0.77641
 Alpha  occ. eigenvalues --   -0.77157  -0.75602  -0.74878  -0.74235  -0.73816
 Alpha  occ. eigenvalues --   -0.71471  -0.71076  -0.70592  -0.70412  -0.70383
 Alpha  occ. eigenvalues --   -0.70144  -0.69158  -0.68681  -0.68245  -0.67788
 Alpha  occ. eigenvalues --   -0.67318  -0.67304  -0.66775  -0.66707  -0.66231
 Alpha  occ. eigenvalues --   -0.66084  -0.64798  -0.64329  -0.62498  -0.62333
 Alpha  occ. eigenvalues --   -0.62154  -0.61888  -0.61578  -0.61185  -0.61025
 Alpha  occ. eigenvalues --   -0.60938  -0.60366  -0.60081  -0.59966  -0.59721
 Alpha  occ. eigenvalues --   -0.58489  -0.58079  -0.57684  -0.57357  -0.57274
 Alpha  occ. eigenvalues --   -0.57157  -0.57071  -0.56988  -0.55859  -0.55802
 Alpha  occ. eigenvalues --   -0.55503  -0.55283  -0.55118  -0.54958  -0.54810
 Alpha  occ. eigenvalues --   -0.54729  -0.54521  -0.54457  -0.54365  -0.54212
 Alpha  occ. eigenvalues --   -0.54107  -0.53906  -0.53777  -0.53347  -0.53247
 Alpha  occ. eigenvalues --   -0.53145  -0.53085  -0.52783  -0.52542  -0.52238
 Alpha  occ. eigenvalues --   -0.52062  -0.52015  -0.51928  -0.51775  -0.51659
 Alpha  occ. eigenvalues --   -0.51599  -0.51329  -0.50946  -0.50927  -0.50797
 Alpha  occ. eigenvalues --   -0.50736  -0.50411  -0.50310  -0.50135  -0.49903
 Alpha  occ. eigenvalues --   -0.49863  -0.49754  -0.49271  -0.49256  -0.49149
 Alpha  occ. eigenvalues --   -0.49129  -0.48957  -0.48633  -0.48543  -0.48536
 Alpha  occ. eigenvalues --   -0.48338  -0.48300  -0.48252  -0.47966  -0.47841
 Alpha  occ. eigenvalues --   -0.47716  -0.47227  -0.47146  -0.46999  -0.46851
 Alpha  occ. eigenvalues --   -0.46711  -0.46659  -0.46508  -0.46476  -0.45996
 Alpha  occ. eigenvalues --   -0.45827  -0.45811  -0.45710  -0.45464  -0.45280
 Alpha  occ. eigenvalues --   -0.45208  -0.45166  -0.45122  -0.44889  -0.44546
 Alpha  occ. eigenvalues --   -0.44431  -0.44366  -0.44254  -0.44150  -0.43981
 Alpha  occ. eigenvalues --   -0.43840  -0.43442  -0.43331  -0.43286  -0.43167
 Alpha  occ. eigenvalues --   -0.42954  -0.42908  -0.42836  -0.42502  -0.42389
 Alpha  occ. eigenvalues --   -0.42325  -0.42278  -0.42198  -0.41924  -0.41349
 Alpha  occ. eigenvalues --   -0.40434  -0.40207  -0.39885  -0.39817  -0.39634
 Alpha  occ. eigenvalues --   -0.39573  -0.39171  -0.39124  -0.38986  -0.38888
 Alpha  occ. eigenvalues --   -0.38644  -0.38625  -0.37483  -0.37054  -0.36622
 Alpha  occ. eigenvalues --   -0.36208  -0.35665  -0.35432  -0.33684  -0.33649
 Alpha  occ. eigenvalues --   -0.32817  -0.32644  -0.32455  -0.32152  -0.32136
 Alpha  occ. eigenvalues --   -0.31974  -0.31756  -0.31631  -0.26233  -0.26230
 Alpha  occ. eigenvalues --   -0.23831  -0.22837
 Alpha virt. eigenvalues --   -0.07948  -0.07324  -0.00576   0.00295   0.02012
 Alpha virt. eigenvalues --    0.02167   0.04336   0.04570   0.04703   0.06123
 Alpha virt. eigenvalues --    0.06761   0.07437   0.07448   0.07849   0.08004

 Mulliken charges:
               1
     1  Mg   0.985594
     2  C    0.012685
     3  C   -0.095416
     4  C   -0.062411
     5  C   -0.128301
     6  N   -0.378408
     7  C   -0.008435
     8  C   -0.043323
     9  C   -0.122042
    10  C    0.057994
    11  C    0.021209
    12  C    0.005330
    13  C   -0.092525
    14  H    0.043462
    15  N   -0.389513
    16  C    0.163995
    17  C   -0.155406
    18  C   -0.073755
    19  C    0.099974
    20  C    0.064809
    21  C    0.052884
    22  O   -0.274730
    23  C   -0.022132
    24  N   -0.392195
    25  C    0.057977
    26  C   -0.092129
    27  C   -0.027200
    28  C    0.109099
    29  C    0.008994
    30  C   -0.008528
    31  C   -0.062964
    32  N   -0.527608
    33  C    0.189975
    34  C   -0.191382
    35  C   -0.054993
    36  C    0.141646
    37  C    0.072777
    38  C    0.153071
    39  O   -0.183118
    40  C   -0.107082
    41  C    0.224352
    42  O   -0.229912
    43  O   -0.358778
    44  C    0.140875
    45  H   -0.003552
    46  H    0.017258
    47  H   -0.016870
    48  H    0.024542
    49  H    0.035447
    50  H    0.042321
    51  H    0.048421
    52  H    0.037242
    53  H    0.035726
    54  H    0.041484
    55  H    0.044259
    56  H    0.060652
    57  H    0.073845
    58  H    0.034865
    59  H    0.031913
    60  H    0.066654
    61  H    0.059195
    62  H    0.050436
    63  H    0.056048
    64  H    0.035264
    65  H    0.060716
    66  H    0.037232
    67  H    0.041376
    68  H    0.033234
    69  H    0.028301
    70  H    0.043819
    71  H    0.022317
    72  H    0.037634
    73  H    0.026939
    74  H    0.061473
    75  H    0.068394
    76  H    0.069235
    77  H    0.070814
    78  H    0.058542
    79  H    0.040407
    80  Mg   0.948244
    81  C    0.000495
    82  C   -0.064737
    83  C   -0.087444
    84  C   -0.085805
    85  N   -0.297880
    86  C   -0.037912
    87  C   -0.036718
    88  C   -0.151762
    89  C    0.082266
    90  C    0.029878
    91  C   -0.001046
    92  C   -0.097744
    93  H    0.043807
    94  N   -0.425886
    95  C    0.122582
    96  C   -0.157837
    97  C   -0.085140
    98  C    0.168912
    99  C    0.086391
   100  C    0.032040
   101  O   -0.271669
   102  C   -0.011467
   103  N   -0.428241
   104  C    0.087354
   105  C   -0.091905
   106  C   -0.113538
   107  C    0.082471
   108  C    0.055249
   109  C   -0.033185
   110  C   -0.022712
   111  N   -0.388415
   112  C    0.120823
   113  C   -0.174829
   114  C    0.038971
   115  C    0.121318
   116  C    0.098367
   117  C    0.025958
   118  O   -0.206331
   119  C   -0.074460
   120  C    0.254006
   121  O   -0.209725
   122  O   -0.358078
   123  C    0.118649
   124  H   -0.004322
   125  H   -0.015917
   126  H    0.009949
   127  H    0.028221
   128  H    0.041480
   129  H    0.039169
   130  H    0.042962
   131  H    0.043381
   132  H    0.044043
   133  H    0.047746
   134  H    0.049689
   135  H    0.043090
   136  H    0.069594
   137  H    0.065479
   138  H    0.029152
   139  H    0.067707
   140  H    0.050353
   141  H    0.051435
   142  H    0.031762
   143  H    0.027911
   144  H    0.049142
   145  H    0.044384
   146  H    0.015817
   147  H    0.024913
   148  H    0.037007
   149  H    0.036024
   150  H    0.032841
   151  H    0.043088
   152  H    0.055735
   153  H    0.023753
   154  H    0.063700
   155  H    0.047919
   156  H    0.048947
   157  H    0.048485
   158  H    0.062045
 Sum of Mulliken charges =  -0.00000

 Dipole moment (field-independent basis, Debye):
    X=              1.1639    Y=             -4.1158    Z=             -1.6293  Tot=              4.5770
 Quadrupole moment (field-independent basis, Debye-Ang):
   XX=           -302.3750   YY=           -493.5914   ZZ=           -511.7402
   XY=            -67.4594   XZ=             -5.8522   YZ=            -33.7462

 Normal termination of Gaussian 16 at Sun Sep 19 23:11:19 2021.
