 Gaussian 16, Revision A.03,
 Gaussian 16:  ES64L-G16RevA.03 25-Dec-2016

 --------------------------------
 #p wB97XD/Def2SVP td=(nstates=5)
 --------------------------------

 --------------------------------
 TDDFT excited states in gaussian
 --------------------------------
 Symbolic Z-matrix:
 Charge =  0 Multiplicity = 1

                         Standard orientation:
 ---------------------------------------------------------------------
 Center     Atomic      Atomic             Coordinates (Angstroms)
 Number     Number       Type             X           Y           Z
 ---------------------------------------------------------------------
      1         12           0      -27.319302   -0.551634   -0.255645
      2          6           0      -25.870948    2.434009   -1.185290
      3          6           0      -28.497577    1.044046    2.532279
      4          6           0      -28.494170   -3.533524    0.808509
      5          6           0      -25.594541   -2.183016   -2.795904
      6          7           0      -27.030147    1.535844    0.592734
      7          6           0      -26.606836    2.574654   -0.018153
      8          6           0      -26.792513    3.986457    0.743895
      9          6           0      -27.387375    3.427690    2.096497
     10          6           0      -27.599386    1.869224    1.792349
     11          6           0      -26.409352    3.551912    3.379123
     12          6           0      -27.732874    5.039491    0.012358
     13          6           0      -27.414356    6.564123    0.208980
     14          1           0      -26.414117    6.910063    1.270334
     15          7           0      -28.388781   -1.142849    1.346658
     16          6           0      -28.890084   -0.301817    2.416487
     17          6           0      -29.687795   -1.147192    3.298691
     18          6           0      -29.603901   -2.497167    2.875628
     19          6           0      -28.843817   -2.434672    1.606776
     20          6           0      -30.416966   -0.471106    4.403436
     21          6           0      -30.238363   -3.785685    3.449601
     22          8           0      -30.022205   -4.898435    3.071075
     23          6           0      -31.079269   -3.582150    4.726128
     24          7           0      -27.028339   -2.630590   -0.798479
     25          6           0      -27.587229   -3.659233   -0.243672
     26          6           0      -26.999890   -4.994464   -0.782583
     27          6           0      -26.160944   -4.561287   -2.008696
     28          6           0      -26.260271   -3.021272   -1.902634
     29          6           0      -26.186894   -5.723327    0.308422
     30          6           0      -26.690305   -5.173549   -3.341769
     31          6           0      -26.442964   -6.681775   -3.506860
     32          7           0      -25.980902   -0.021278   -1.733513
     33          6           0      -25.450687   -0.791390   -2.753337
     34          6           0      -24.699012    0.103084   -3.593768
     35          6           0      -24.767607    1.413123   -3.031979
     36          6           0      -25.614786    1.226652   -1.905786
     37          6           0      -23.963303   -0.284946   -4.740771
     38          6           0      -24.441202    2.798161   -3.154268
     39          8           0      -23.674719    3.355444   -3.995409
     40          6           0      -25.062351    3.481416   -1.874749
     41          6           0      -23.971903    4.073578   -1.129730
     42          8           0      -23.239600    3.454493   -0.358227
     43          8           0      -23.837343    5.365854   -1.569547
     44          6           0      -22.600818    6.016560   -1.087150
     45          1           0      -28.865094    1.519536    3.443530
     46          1           0      -28.927337   -4.456934    1.200291
     47          1           0      -25.131897   -2.731998   -3.619287
     48          1           0      -25.768016    4.326260    0.897808
     49          1           0      -28.303439    3.960504    2.350745
     50          1           0      -25.390457    3.680554    3.012773
     51          1           0      -26.474733    2.644564    3.979379
     52          1           0      -26.619065    4.369028    4.070142
     53          1           0      -28.713766    4.847700    0.446478
     54          1           0      -27.997451    4.815890   -1.021705
     55          1           0      -28.293737    7.173573    0.416859
     56          1           0      -26.945125    6.946860   -0.697398
     57          1           0      -29.768138   -0.342988    5.270344
     58          1           0      -31.390762   -0.916734    4.606997
     59          1           0      -30.684152    0.521243    4.040953
     60          1           0      -32.053766   -3.121835    4.560173
     61          1           0      -30.414055   -2.957085    5.320993
     62          1           0      -31.248013   -4.472651    5.330897
     63          1           0      -27.894851   -5.534469   -1.090756
     64          1           0      -25.115593   -4.823812   -1.846317
     65          1           0      -25.784373   -5.091536    1.100506
     66          1           0      -25.269383   -6.231674    0.010158
     67          1           0      -26.874953   -6.450306    0.739809
     68          1           0      -26.173263   -4.698204   -4.174174
     69          1           0      -27.755956   -4.966045   -3.444612
     70          1           0      -26.013297   -7.048058   -2.574473
     71          1           0      -25.601768   -6.826850   -4.184848
     72          1           0      -27.250991   -7.312244   -3.877161
     73          1           0      -24.628541   -0.965449   -5.272394
     74          1           0      -23.039150   -0.833576   -4.559720
     75          1           0      -23.648846    0.615103   -5.270103
     76          1           0      -25.675750    4.276512   -2.299432
     77          1           0      -21.776009    5.484882   -1.562442
     78          1           0      -22.572368    6.082113    0.000001
     79          1           0      -22.606309    7.038825   -1.465685
     80         12           0       27.211981   -0.668786    0.073167
     81          6           0       25.453027    2.243931    1.119225
     82          6           0       29.115654    1.323338   -1.983544
     83          6           0       28.687986   -3.485426   -0.825069
     84          6           0       24.832593   -2.676027    1.870058
     85          7           0       27.244182    1.596994   -0.456036
     86          6           0       26.481284    2.539617    0.208616
     87          6           0       26.944204    3.934799   -0.334741
     88          6           0       28.130542    3.636174   -1.397951
     89          6           0       28.153665    2.108460   -1.284616
     90          6           0       27.937926    4.220432   -2.812880
     91          6           0       27.269104    5.054630    0.738203
     92          6           0       26.463499    6.316242    0.626022
     93          1           0       25.883005    6.824231   -0.667336
     94          7           0       28.852006   -1.030437   -1.188583
     95          6           0       29.470144   -0.078761   -1.936923
     96          6           0       30.618167   -0.722411   -2.521995
     97          6           0       30.463174   -2.106738   -2.293439
     98          6           0       29.270046   -2.314969   -1.410022
     99          6           0       31.611549    0.094188   -3.365690
    100          6           0       31.246980   -3.220079   -2.919776
    101          8           0       30.943286   -4.422230   -2.733092
    102          6           0       32.373889   -2.894812   -3.828467
    103          7           0       26.721710   -2.802039    0.456598
    104          6           0       27.526342   -3.716499    0.039506
    105          6           0       27.214089   -5.237737    0.503728
    106          6           0       25.963205   -4.954157    1.349320
    107          6           0       25.813885   -3.456207    1.243352
    108          6           0       26.980494   -6.138182   -0.764251
    109          6           0       25.994088   -5.432988    2.843323
    110          6           0       26.902023   -4.633343    3.807661
    111          7           0       25.484455   -0.318471    1.109473
    112          6           0       24.633168   -1.250336    1.748656
    113          6           0       23.608193   -0.493477    2.480309
    114          6           0       23.898424    0.875558    2.267304
    115          6           0       25.081974    0.934459    1.456468
    116          6           0       22.471429   -1.114752    3.345982
    117          6           0       23.463723    2.127394    2.599682
    118          8           0       22.505712    2.517528    3.235449
    119          6           0       24.460652    3.120419    1.939597
    120          6           0       23.708252    4.061866    1.142918
    121          8           0       23.390462    3.890423   -0.039364
    122          8           0       23.196189    5.072287    1.965529
    123          6           0       22.249051    5.991128    1.286747
    124          1           0       29.604698    1.788864   -2.842229
    125          1           0       29.081135   -4.407527   -1.258409
    126          1           0       24.085985   -3.237720    2.435245
    127          1           0       25.992366    4.256034   -0.755744
    128          1           0       29.041238    4.122930   -1.051791
    129          1           0       28.786531    4.847353   -3.089611
    130          1           0       27.020797    4.781286   -2.992130
    131          1           0       27.903933    3.339799   -3.454313
    132          1           0       28.328918    5.307795    0.703758
    133          1           0       27.007698    4.612891    1.699813
    134          1           0       27.167537    7.139735    0.750750
    135          1           0       25.683797    6.281204    1.386079
    136          1           0       31.515018    1.165964   -3.190740
    137          1           0       31.453336   -0.115141   -4.422858
    138          1           0       32.591433   -0.255471   -3.042219
    139          1           0       33.073717   -2.284948   -3.257113
    140          1           0       32.041912   -2.291014   -4.673920
    141          1           0       32.804698   -3.803517   -4.246965
    142          1           0       28.018643   -5.637325    1.121572
    143          1           0       25.077912   -5.301865    0.816422
    144          1           0       26.572599   -5.503434   -1.550852
    145          1           0       26.221226   -6.880805   -0.516522
    146          1           0       27.836898   -6.670216   -1.179313
    147          1           0       26.149186   -6.510739    2.882062
    148          1           0       24.974411   -5.375878    3.222951
    149          1           0       27.808378   -4.201685    3.384372
    150          1           0       27.107163   -5.260403    4.676048
    151          1           0       26.267711   -3.833117    4.188640
    152          1           0       22.396158   -0.669652    4.338165
    153          1           0       22.543757   -2.197713    3.439767
    154          1           0       21.510477   -0.755721    2.976656
    155          1           0       24.892338    3.606793    2.813730
    156          1           0       21.318658    5.475734    1.049706
    157          1           0       22.603992    6.382085    0.333880
    158          1           0       22.198729    6.888266    1.904004
 ---------------------------------------------------------------------

 SCF Done:  E(RwB97XD) =  -4070.62245950     A.U. after   19 cycles

 Excitation energies and oscillator strengths:

 Excited State   1:      Singlet-A      1.7177 eV  721.79 nm  f=0.3889  <S**2>=0.000
     309 -> 315        0.19145
     311 -> 313        0.67977
     309 <- 315        0.11528
 This state for optimization and/or second-order correction.
 Total Energy, E(TD-HF/TD-DFT) =  -4070.55933422
 Copying the excited state density for this state as the 1-particle RhoCI density.

 Excited State   2:      Singlet-A      1.7222 eV  719.94 nm  f=0.3653  <S**2>=0.000
     310 -> 316       -0.20369
     312 -> 314        0.67744
     310 <- 316       -0.11864

 Excited State   3:      Singlet-A      2.1591 eV  574.24 nm  f=0.1016  <S**2>=0.000
     309 -> 313        0.63929
     311 -> 315       -0.28253

 Excited State   4:      Singlet-A      2.1613 eV  573.65 nm  f=0.1129  <S**2>=0.000
     310 -> 314        0.64073
     312 -> 316        0.28333

 Excited State   5:      Singlet-A      3.4549 eV  358.86 nm  f=0.0015  <S**2>=0.000
     304 -> 314       -0.28057
     304 -> 317       -0.15397
     304 -> 319        0.10011
     305 -> 314        0.39280
     305 -> 317        0.30059
     305 -> 319       -0.19509
     308 -> 314        0.27297

 The electronic state is 1-A.
 Alpha  occ. eigenvalues --  -46.96136 -46.94715 -19.29975 -19.29420 -19.25175
 Alpha  occ. eigenvalues --  -19.24203 -19.24155 -19.23865 -19.23257 -19.22479
 Alpha  occ. eigenvalues --  -14.47251 -14.46766 -14.46441 -14.46079 -14.44365
 Alpha  occ. eigenvalues --  -14.44308 -14.44221 -14.43470 -10.42384 -10.42347
 Alpha  occ. eigenvalues --  -10.40242 -10.39077 -10.38749 -10.37188 -10.35973
 Alpha  occ. eigenvalues --  -10.35904 -10.35796 -10.35573 -10.35089 -10.35040
 Alpha  occ. eigenvalues --  -10.34955 -10.34782 -10.34735 -10.34475 -10.34437
 Alpha  occ. eigenvalues --  -10.34410 -10.34279 -10.34136 -10.33784 -10.33597
 Alpha  occ. eigenvalues --  -10.33590 -10.33123 -10.33034 -10.32976 -10.32871
 Alpha  occ. eigenvalues --  -10.32853 -10.32699 -10.32424 -10.32215 -10.32168
 Alpha  occ. eigenvalues --  -10.32111 -10.32105 -10.32094 -10.32050 -10.31954
 Alpha  occ. eigenvalues --  -10.31892 -10.31818 -10.31704 -10.31661 -10.31612
 Alpha  occ. eigenvalues --  -10.31556 -10.31454 -10.31418 -10.31174 -10.31139
 Alpha  occ. eigenvalues --  -10.31136 -10.31124 -10.31120 -10.31116 -10.31004
 Alpha  occ. eigenvalues --  -10.30640 -10.30496 -10.30455 -10.30252 -10.30201
 Alpha  occ. eigenvalues --  -10.30139 -10.30000 -10.29859 -10.29782 -10.29662
 Alpha  occ. eigenvalues --  -10.29494 -10.29348 -10.29171 -10.28438 -10.28430
 Alpha  occ. eigenvalues --  -10.27814  -3.21941  -3.20758  -1.95540  -1.95093
 Alpha  occ. eigenvalues --   -1.94862  -1.94342  -1.93889  -1.93731  -1.17640
 Alpha  occ. eigenvalues --   -1.16429  -1.14736  -1.11385  -1.10719  -1.09365
 Alpha  occ. eigenvalues --   -1.08912  -1.08430  -1.08112  -1.07365  -1.06273
 Alpha  occ. eigenvalues --   -1.05758  -1.05441  -1.05055  -1.03657  -1.02912
 Alpha  occ. eigenvalues --   -0.94460  -0.94200  -0.91580  -0.91165  -0.90257
 Alpha  occ. eigenvalues --   -0.90243  -0.89691  -0.89651  -0.89358  -0.89216
 Alpha  occ. eigenvalues --   -0.88863  -0.88765  -0.88687  -0.87388  -0.86204
 Alpha  occ. eigenvalues --   -0.85821  -0.85316  -0.85207  -0.84421  -0.84193
 Alpha  occ. eigenvalues --   -0.84177  -0.83617  -0.82957  -0.82579  -0.82211
 Alpha  occ. eigenvalues --   -0.82011  -0.80504  -0.80315  -0.79450  -0.79266
 Alpha  occ. eigenvalues --   -0.78325  -0.78258  -0.77631  -0.77597  -0.76924
 Alpha  occ. eigenvalues --   -0.76738  -0.74477  -0.74160  -0.73520  -0.73413
 Alpha  occ. eigenvalues --   -0.72337  -0.71282  -0.71006  -0.70702  -0.70130
 Alpha  occ. eigenvalues --   -0.69791  -0.68974  -0.68917  -0.67719  -0.67278
 Alpha  occ. eigenvalues --   -0.67230  -0.66870  -0.66737  -0.66568  -0.66193
 Alpha  occ. eigenvalues --   -0.66046  -0.63505  -0.63363  -0.62253  -0.62015
 Alpha  occ. eigenvalues --   -0.61467  -0.61336  -0.61053  -0.60588  -0.60234
 Alpha  occ. eigenvalues --   -0.60077  -0.59853  -0.59823  -0.59595  -0.59497
 Alpha  occ. eigenvalues --   -0.58198  -0.57969  -0.57958  -0.57559  -0.57183
 Alpha  occ. eigenvalues --   -0.57134  -0.56889  -0.56417  -0.55856  -0.55461
 Alpha  occ. eigenvalues --   -0.55284  -0.55203  -0.55087  -0.54916  -0.54880
 Alpha  occ. eigenvalues --   -0.54773  -0.54653  -0.54471  -0.53982  -0.53954
 Alpha  occ. eigenvalues --   -0.53772  -0.53446  -0.53218  -0.53207  -0.53043
 Alpha  occ. eigenvalues --   -0.52821  -0.52697  -0.52625  -0.52432  -0.52330
 Alpha  occ. eigenvalues --   -0.51724  -0.51455  -0.51290  -0.51170  -0.51111
 Alpha  occ. eigenvalues --   -0.51033  -0.50934  -0.50810  -0.50765  -0.50497
 Alpha  occ. eigenvalues --   -0.50457  -0.50345  -0.50099  -0.49946  -0.49859
 Alpha  occ. eigenvalues --   -0.49725  -0.49672  -0.49406  -0.49208  -0.48941
 Alpha  occ. eigenvalues --   -0.48629  -0.48544  -0.48522  -0.48421  -0.48338
 Alpha  occ. eigenvalues --   -0.48122  -0.48075  -0.47929  -0.47713  -0.47507
 Alpha  occ. eigenvalues --   -0.47405  -0.47045  -0.46813  -0.46737  -0.46468
 Alpha  occ. eigenvalues --   -0.46282  -0.46178  -0.46097  -0.46050  -0.45711
 Alpha  occ. eigenvalues --   -0.45710  -0.45639  -0.45431  -0.45378  -0.45137
 Alpha  occ. eigenvalues --   -0.45114  -0.44855  -0.44652  -0.44643  -0.44526
 Alpha  occ. eigenvalues --   -0.44358  -0.44246  -0.44184  -0.43764  -0.43716
 Alpha  occ. eigenvalues --   -0.43627  -0.43600  -0.43531  -0.43361  -0.43354
 Alpha  occ. eigenvalues --   -0.43163  -0.43061  -0.43003  -0.42496  -0.42471
 Alpha  occ. eigenvalues --   -0.42085  -0.41970  -0.41674  -0.41664  -0.41239
 Alpha  occ. eigenvalues --   -0.40992  -0.40105  -0.39860  -0.39502  -0.39021
 Alpha  occ. eigenvalues --   -0.38866  -0.38630  -0.38523  -0.38415  -0.38204
 Alpha  occ. eigenvalues --   -0.38010  -0.37436  -0.36260  -0.35889  -0.35840
 Alpha  occ. eigenvalues --   -0.35586  -0.35529  -0.35291  -0.33789  -0.33519
 Alpha  occ. eigenvalues --   -0.33317  -0.33174  -0.32497  -0.32411  -0.32240
 Alpha  occ. eigenvalues --   -0.31914  -0.31637  -0.31274  -0.25719  -0.25564
 Alpha  occ. eigenvalues --   -0.23047  -0.23024
 Alpha virt. eigenvalues --   -0.06866  -0.06735   0.00150   0.00253   0.02057
 Alpha virt. eigenvalues --    0.02219   0.04232   0.04452   0.05710   0.05732
 Alpha virt. eigenvalues --    0.07251   0.07685   0.08134   0.08320   0.09166

 Mulliken charges:
               1
     1  Mg   0.972760
     2  C    0.036575
     3  C   -0.076517
     4  C   -0.083520
     5  C   -0.099875
     6  N   -0.274820
     7  C   -0.097021
     8  C   -0.014443
     9  C   -0.137555
    10  C    0.065940
    11  C    0.000622
    12  C    0.023654
    13  C   -0.131700
    14  H    0.035242
    15  N   -0.531972
    16  C    0.160542
    17  C   -0.146816
    18  C   -0.099966
    19  C    0.147743
    20  C    0.050283
    21  C    0.084675
    22  O   -0.192570
    23  C   -0.045168
    24  N   -0.332500
    25  C    0.040124
    26  C   -0.054347
    27  C   -0.067593
    28  C    0.054743
    29  C    0.016551
    30  C   -0.022562
    31  C   -0.039118
    32  N   -0.427532
    33  C    0.163714
    34  C   -0.180234
    35  C    0.016076
    36  C    0.116569
    37  C    0.057361
    38  C    0.086211
    39  O   -0.253843
    40  C   -0.075607
    41  C    0.268054
    42  O   -0.262119
    43  O   -0.366910
    44  C    0.144974
    45  H   -0.003057
    46  H    0.012715
    47  H   -0.006267
    48  H    0.049185
    49  H    0.040256
    50  H    0.048199
    51  H    0.038270
    52  H    0.039845
    53  H    0.016282
    54  H    0.039522
    55  H    0.057644
    56  H    0.064718
    57  H    0.067849
    58  H    0.043811
    59  H    0.042657
    60  H    0.070862
    61  H    0.053239
    62  H    0.049651
    63  H    0.038201
    64  H    0.035347
    65  H    0.043617
    66  H    0.034041
    67  H    0.050524
    68  H    0.028772
    69  H    0.032079
    70  H    0.024464
    71  H    0.026130
    72  H    0.050546
    73  H    0.038265
    74  H    0.050056
    75  H    0.057934
    76  H    0.063338
    77  H    0.068114
    78  H    0.056066
    79  H    0.049021
    80  Mg   0.949205
    81  C    0.012567
    82  C   -0.090528
    83  C   -0.048268
    84  C   -0.087852
    85  N   -0.314568
    86  C   -0.013076
    87  C   -0.056070
    88  C   -0.105070
    89  C    0.077754
    90  C    0.018423
    91  C    0.000048
    92  C   -0.139713
    93  H    0.031652
    94  N   -0.486277
    95  C    0.140077
    96  C   -0.180345
    97  C   -0.072306
    98  C    0.161198
    99  C    0.073063
   100  C    0.036491
   101  O   -0.261898
   102  C    0.006525
   103  N   -0.272074
   104  C    0.015758
   105  C   -0.109973
   106  C    0.029152
   107  C   -0.039973
   108  C   -0.003662
   109  C   -0.032757
   110  C   -0.036130
   111  N   -0.476727
   112  C    0.148472
   113  C   -0.175954
   114  C    0.006771
   115  C    0.138751
   116  C    0.087136
   117  C    0.031567
   118  O   -0.201437
   119  C   -0.063148
   120  C    0.267163
   121  O   -0.263276
   122  O   -0.379083
   123  C    0.150050
   124  H    0.007859
   125  H    0.029020
   126  H   -0.009073
   127  H    0.057312
   128  H    0.044906
   129  H    0.035045
   130  H    0.051819
   131  H    0.033487
   132  H    0.031603
   133  H    0.036306
   134  H    0.048477
   135  H    0.062308
   136  H    0.047794
   137  H    0.064169
   138  H    0.046263
   139  H    0.050909
   140  H    0.050386
   141  H    0.058511
   142  H    0.052372
   143  H    0.036489
   144  H    0.045581
   145  H    0.037065
   146  H    0.064058
   147  H    0.030890
   148  H    0.025075
   149  H    0.049781
   150  H    0.041205
   151  H    0.038648
   152  H    0.043741
   153  H    0.031540
   154  H    0.051173
   155  H    0.073526
   156  H    0.064670
   157  H    0.041698
   158  H    0.053729
 Sum of Mulliken charges =  -0.00000

 Dipole moment (field-independent basis, Debye):
    X=              0.6669    Y=              0.0621    Z=              1.8399  Tot=              1.9580
 Quadrupole moment (field-independent basis, Debye-Ang):
   XX=            -55.4783   YY=           -475.3310   ZZ=           -503.8016
   XY=             -6.3392   XZ=           -107.4046   YZ=              6.0517

 Normal termination of Gaussian 16 at Mon Sep 20 09:43:30 2021.
