 Gaussian 16, Revision A.03,
 Gaussian 16:  ES64L-G16RevA.03 25-Dec-2016

 --------------------------------
 #p wB97XD/Def2SVP td=(nstates=5)
 --------------------------------

 --------------------------------
 TDDFT excited states in gaussian
 --------------------------------
 Symbolic Z-matrix:
 Charge =  0 Multiplicity = 1

                         Standard orientation:
 ---------------------------------------------------------------------
 Center     Atomic      Atomic             Coordinates (Angstroms)
 Number     Number       Type             X           Y           Z
 ---------------------------------------------------------------------
      1         12           0        9.249449   -0.423295   -0.091816
      2          6           0        7.260914    2.461583   -0.117386
      3          6           0       12.087356    1.663635    0.264556
      4          6           0       11.228018   -3.164180   -0.411654
      5          6           0        6.513920   -2.235770   -1.165520
      6          7           0        9.558513    1.749890    0.214227
      7          6           0        8.534240    2.692694    0.340648
      8          6           0        9.111002    3.992621    1.008632
      9          6           0       10.619895    3.721486    1.016382
     10          6           0       10.787980    2.284827    0.409580
     11          6           0       11.366799    4.793113    0.177343
     12          6           0        8.450014    4.174398    2.369532
     13          6           0        8.316224    5.586339    2.916077
     14          1           0        9.123400    6.714132    2.234212
     15          7           0       11.356272   -0.761293   -0.069528
     16          6           0       12.348129    0.229739    0.057537
     17          6           0       13.672882   -0.361186   -0.014846
     18          6           0       13.499901   -1.795372   -0.144538
     19          6           0       11.985098   -1.954590   -0.234206
     20          6           0       14.977927    0.410017    0.220401
     21          6           0       14.518127   -2.918393   -0.192258
     22          8           0       14.150522   -4.081720   -0.288375
     23          6           0       15.936212   -2.602671    0.092551
     24          7           0        8.866236   -2.445913   -0.647072
     25          6           0        9.840291   -3.397358   -0.609953
     26          6           0        9.211668   -4.798523   -0.828128
     27          6           0        7.668633   -4.523048   -1.010087
     28          6           0        7.616539   -2.983859   -0.829437
     29          6           0        9.866403   -5.497498   -2.033065
     30          6           0        6.753972   -5.207417    0.040222
     31          6           0        6.113985   -6.444251   -0.582652
     32          7           0        7.276492   -0.044965   -0.676582
     33          6           0        6.282419   -0.830014   -1.157726
     34          6           0        5.180622    0.065065   -1.587428
     35          6           0        5.457713    1.315168   -1.116880
     36          6           0        6.776266    1.197732   -0.607739
     37          6           0        3.919751   -0.482695   -2.234651
     38          6           0        4.976688    2.691484   -0.937117
     39          8           0        3.918112    3.194238   -1.294182
     40          6           0        6.095929    3.416567   -0.215087
     41          6           0        6.334664    4.643297   -0.991787
     42          8           0        6.945845    4.810924   -2.055787
     43          8           0        5.666482    5.670277   -0.357045
     44          6           0        5.710439    6.967727   -0.995653
     45          1           0       12.929262    2.331758    0.456412
     46          1           0       11.925838   -4.004004   -0.395340
     47          1           0        5.725429   -2.862162   -1.588036
     48          1           0        8.815439    4.738595    0.269895
     49          1           0       10.950341    3.914732    2.036905
     50          1           0       11.806913    4.426068   -0.750001
     51          1           0       12.282331    5.017553    0.723902
     52          1           0       10.723917    5.633227   -0.084638
     53          1           0        9.011905    3.511556    3.028277
     54          1           0        7.465629    3.708394    2.346298
     55          1           0        8.539270    5.568082    3.982001
     56          1           0        7.243165    5.750110    2.810909
     57          1           0       14.846672    1.489748    0.293995
     58          1           0       15.672592    0.221350   -0.599191
     59          1           0       15.476744   -0.011526    1.092291
     60          1           0       16.015918   -2.270313    1.127880
     61          1           0       16.362361   -1.972201   -0.687800
     62          1           0       16.560478   -3.496143    0.078570
     63          1           0        9.449430   -5.403566    0.046497
     64          1           0        7.457902   -4.774529   -2.050356
     65          1           0        9.200841   -5.809156   -2.837527
     66          1           0       10.228671   -6.395175   -1.532484
     67          1           0       10.601960   -4.893685   -2.563798
     68          1           0        5.862425   -4.604404    0.213243
     69          1           0        7.270062   -5.482341    0.960292
     70          1           0        6.260888   -7.215892    0.172898
     71          1           0        6.657195   -6.847823   -1.436799
     72          1           0        5.057326   -6.349134   -0.834254
     73          1           0        3.978598   -1.519546   -2.566693
     74          1           0        3.592555    0.113250   -3.085764
     75          1           0        3.151218   -0.562748   -1.465045
     76          1           0        5.751541    3.631445    0.795987
     77          1           0        5.415343    6.831884   -2.036432
     78          1           0        6.696748    7.431659   -0.972366
     79          1           0        4.820904    7.481003   -0.632027
     80         12           0       -8.818986   -1.047688    0.499984
     81          6           0      -10.062552    2.184231   -0.509004
     82          6           0       -6.804850    0.651836    2.813467
     83          6           0       -7.761753   -3.985323    1.516083
     84          6           0      -10.670490   -2.514175   -2.077317
     85          7           0       -8.490588    1.228539    1.036493
     86          6           0       -9.240247    2.297573    0.659097
     87          6           0       -8.985088    3.510822    1.538511
     88          6           0       -7.660672    3.102799    2.395580
     89          6           0       -7.621468    1.585139    2.054247
     90          6           0       -6.388197    3.921789    2.063532
     91          6           0      -10.217058    3.879955    2.432139
     92          6           0      -10.724177    5.332419    2.237583
     93          1           0      -10.576124    6.265877    3.572960
     94          7           0       -7.515479   -1.573481    1.922537
     95          6           0       -6.715814   -0.765724    2.800160
     96          6           0       -5.867224   -1.559009    3.720549
     97          6           0       -6.217690   -2.898787    3.350840
     98          6           0       -7.187027   -2.854669    2.243219
     99          6           0       -4.892655   -0.971155    4.743103
    100          6           0       -5.663029   -4.171388    3.867628
    101          8           0       -6.148772   -5.284223    3.696139
    102          6           0       -4.450745   -4.096277    4.816541
    103          7           0       -9.305400   -2.937907   -0.074921
    104          6           0       -8.707492   -4.016860    0.479963
    105          6           0       -8.966592   -5.287649   -0.280490
    106          6           0       -9.934464   -4.866402   -1.413532
    107          6           0      -10.045614   -3.344684   -1.168383
    108          6           0       -7.721305   -6.027524   -0.722053
    109          6           0      -11.390510   -5.600146   -1.232932
    110          6           0      -11.930054   -6.422183   -2.525765
    111          7           0       -9.906647   -0.321222   -1.176446
    112          6           0      -10.671059   -1.085598   -2.090585
    113          6           0      -11.426493   -0.149689   -2.931142
    114          6           0      -11.303063    1.084053   -2.239530
    115          6           0      -10.296823    0.951636   -1.281449
    116          6           0      -12.231226   -0.404757   -4.202040
    117          6           0      -11.637181    2.528426   -2.390935
    118          8           0      -12.295179    3.217329   -3.219125
    119          6           0      -10.923022    3.239378   -1.177092
    120          6           0      -10.113578    4.385725   -1.707684
    121          8           0       -9.415207    4.326867   -2.679900
    122          8           0      -10.392378    5.514003   -0.987473
    123          6           0       -9.902565    6.748053   -1.652121
    124          1           0       -6.104719    1.232688    3.417180
    125          1           0       -7.447261   -4.990748    1.804633
    126          1           0      -11.286360   -2.952980   -2.864801
    127          1           0       -8.708538    4.318692    0.860993
    128          1           0       -7.827250    3.155362    3.471829
    129          1           0       -5.624021    3.286981    1.614070
    130          1           0       -5.994412    4.395644    2.963637
    131          1           0       -6.535014    4.789049    1.419744
    132          1           0       -9.990995    3.776557    3.493731
    133          1           0      -11.073510    3.239311    2.220299
    134          1           0      -11.805032    5.394712    2.108533
    135          1           0      -10.329543    5.849157    1.363306
    136          1           0       -5.030249    0.075940    5.014688
    137          1           0       -3.835362   -1.106035    4.515197
    138          1           0       -5.066506   -1.545409    5.653667
    139          1           0       -3.598774   -3.644359    4.308662
    140          1           0       -4.190095   -5.069225    5.234483
    141          1           0       -4.727477   -3.462887    5.659340
    142          1           0       -9.424980   -6.000666    0.406108
    143          1           0       -9.496676   -5.045894   -2.395040
    144          1           0       -7.535746   -6.941933   -0.157891
    145          1           0       -6.786566   -5.484915   -0.581308
    146          1           0       -7.818650   -6.239008   -1.787101
    147          1           0      -12.198829   -4.920300   -0.965594
    148          1           0      -11.390647   -6.333307   -0.426781
    149          1           0      -11.043929   -6.633894   -3.124471
    150          1           0      -12.664280   -5.849492   -3.093862
    151          1           0      -12.288100   -7.412502   -2.245601
    152          1           0      -13.079514    0.273075   -4.295162
    153          1           0      -12.706732   -1.380210   -4.093223
    154          1           0      -11.468802   -0.436777   -4.980495
    155          1           0      -11.723385    3.691576   -0.591947
    156          1           0       -8.841136    6.607039   -1.855142
    157          1           0       -9.972948    7.501127   -0.867400
    158          1           0      -10.348837    7.057251   -2.597247
 ---------------------------------------------------------------------

 SCF Done:  E(RwB97XD) =  -4070.59472534     A.U. after   20 cycles

 Excitation energies and oscillator strengths:

 Excited State   1:      Singlet-A      1.6132 eV  768.56 nm  f=0.5802  <S**2>=0.000
     310 -> 315        0.17972
     311 -> 313        0.63665
     312 -> 314        0.24626
     310 <- 315        0.11300
 This state for optimization and/or second-order correction.
 Total Energy, E(TD-HF/TD-DFT) =  -4070.53544152
 Copying the excited state density for this state as the 1-particle RhoCI density.

 Excited State   2:      Singlet-A      1.6282 eV  761.48 nm  f=0.1973  <S**2>=0.000
     309 -> 316       -0.16732
     311 -> 313       -0.24470
     312 -> 314        0.63886
     309 <- 316       -0.10593

 Excited State   3:      Singlet-A      2.1189 eV  585.14 nm  f=0.1099  <S**2>=0.000
     310 -> 313        0.64387
     311 -> 315       -0.27890

 Excited State   4:      Singlet-A      2.1424 eV  578.72 nm  f=0.1303  <S**2>=0.000
     309 -> 314        0.64157
     312 -> 316        0.27611

 Excited State   5:      Singlet-A      3.4086 eV  363.73 nm  f=0.0000  <S**2>=0.000
     312 -> 313        0.70676

 The electronic state is 1-A.
 Alpha  occ. eigenvalues --  -46.95544 -46.94752 -19.30734 -19.29772 -19.24820
 Alpha  occ. eigenvalues --  -19.24527 -19.24410 -19.24358 -19.23939 -19.23633
 Alpha  occ. eigenvalues --  -14.47132 -14.46880 -14.46415 -14.46395 -14.45266
 Alpha  occ. eigenvalues --  -14.44843 -14.43839 -14.43720 -10.43297 -10.42521
 Alpha  occ. eigenvalues --  -10.39558 -10.39480 -10.39070 -10.39048 -10.36172
 Alpha  occ. eigenvalues --  -10.35793 -10.35586 -10.35536 -10.35516 -10.35403
 Alpha  occ. eigenvalues --  -10.35360 -10.35200 -10.35182 -10.34816 -10.34804
 Alpha  occ. eigenvalues --  -10.34778 -10.34750 -10.34673 -10.34123 -10.33869
 Alpha  occ. eigenvalues --  -10.33865 -10.33377 -10.33182 -10.33121 -10.32986
 Alpha  occ. eigenvalues --  -10.32846 -10.32811 -10.32624 -10.32585 -10.32520
 Alpha  occ. eigenvalues --  -10.32433 -10.32420 -10.32377 -10.32330 -10.32259
 Alpha  occ. eigenvalues --  -10.32132 -10.31921 -10.31912 -10.31902 -10.31851
 Alpha  occ. eigenvalues --  -10.31750 -10.31720 -10.31683 -10.31675 -10.31537
 Alpha  occ. eigenvalues --  -10.31171 -10.31114 -10.31076 -10.30827 -10.30613
 Alpha  occ. eigenvalues --  -10.30608 -10.30464 -10.30416 -10.30291 -10.30283
 Alpha  occ. eigenvalues --  -10.30086 -10.29893 -10.29835 -10.29658 -10.29484
 Alpha  occ. eigenvalues --  -10.29405 -10.29273 -10.29192 -10.29099 -10.28879
 Alpha  occ. eigenvalues --  -10.28842  -3.21394  -3.20828  -1.94994  -1.94473
 Alpha  occ. eigenvalues --   -1.94417  -1.94394  -1.93952  -1.93817  -1.18985
 Alpha  occ. eigenvalues --   -1.18042  -1.12793  -1.12308  -1.12139  -1.10739
 Alpha  occ. eigenvalues --   -1.09176  -1.09135  -1.06386  -1.05877  -1.05159
 Alpha  occ. eigenvalues --   -1.04879  -1.04731  -1.04522  -1.03957  -1.03786
 Alpha  occ. eigenvalues --   -0.95418  -0.93427  -0.91217  -0.90710  -0.90509
 Alpha  occ. eigenvalues --   -0.90275  -0.89990  -0.89875  -0.89259  -0.89122
 Alpha  occ. eigenvalues --   -0.88886  -0.88832  -0.87602  -0.87441  -0.86342
 Alpha  occ. eigenvalues --   -0.85835  -0.85825  -0.84955  -0.84714  -0.84411
 Alpha  occ. eigenvalues --   -0.83596  -0.83251  -0.82926  -0.82505  -0.82078
 Alpha  occ. eigenvalues --   -0.81618  -0.80984  -0.80179  -0.79273  -0.78919
 Alpha  occ. eigenvalues --   -0.78799  -0.78585  -0.77940  -0.77833  -0.77065
 Alpha  occ. eigenvalues --   -0.76567  -0.74597  -0.74442  -0.73289  -0.73072
 Alpha  occ. eigenvalues --   -0.71129  -0.71058  -0.70571  -0.70483  -0.69963
 Alpha  occ. eigenvalues --   -0.69419  -0.69172  -0.69003  -0.67735  -0.67481
 Alpha  occ. eigenvalues --   -0.67405  -0.66925  -0.66735  -0.66296  -0.65975
 Alpha  occ. eigenvalues --   -0.65906  -0.64220  -0.64199  -0.62744  -0.62236
 Alpha  occ. eigenvalues --   -0.61689  -0.61149  -0.61112  -0.60842  -0.60623
 Alpha  occ. eigenvalues --   -0.60424  -0.60220  -0.59807  -0.59730  -0.59016
 Alpha  occ. eigenvalues --   -0.58050  -0.57935  -0.57803  -0.57144  -0.57107
 Alpha  occ. eigenvalues --   -0.56821  -0.56807  -0.56353  -0.55635  -0.55608
 Alpha  occ. eigenvalues --   -0.55576  -0.55407  -0.55330  -0.55225  -0.54944
 Alpha  occ. eigenvalues --   -0.54841  -0.54541  -0.54409  -0.54044  -0.53904
 Alpha  occ. eigenvalues --   -0.53750  -0.53501  -0.53405  -0.53234  -0.53196
 Alpha  occ. eigenvalues --   -0.52781  -0.52651  -0.52403  -0.52315  -0.51911
 Alpha  occ. eigenvalues --   -0.51869  -0.51788  -0.51645  -0.51591  -0.51317
 Alpha  occ. eigenvalues --   -0.51302  -0.51276  -0.51068  -0.51045  -0.50652
 Alpha  occ. eigenvalues --   -0.50627  -0.50152  -0.50098  -0.49929  -0.49879
 Alpha  occ. eigenvalues --   -0.49842  -0.49430  -0.49430  -0.49301  -0.49188
 Alpha  occ. eigenvalues --   -0.48882  -0.48727  -0.48669  -0.48388  -0.48363
 Alpha  occ. eigenvalues --   -0.48044  -0.48016  -0.47909  -0.47775  -0.47369
 Alpha  occ. eigenvalues --   -0.47253  -0.46995  -0.46786  -0.46783  -0.46623
 Alpha  occ. eigenvalues --   -0.46571  -0.46468  -0.46395  -0.46241  -0.46215
 Alpha  occ. eigenvalues --   -0.45927  -0.45687  -0.45625  -0.45608  -0.45437
 Alpha  occ. eigenvalues --   -0.45224  -0.45157  -0.45061  -0.44886  -0.44704
 Alpha  occ. eigenvalues --   -0.44658  -0.44427  -0.44338  -0.44089  -0.43915
 Alpha  occ. eigenvalues --   -0.43830  -0.43515  -0.43386  -0.43278  -0.43142
 Alpha  occ. eigenvalues --   -0.43093  -0.42599  -0.42515  -0.42394  -0.42279
 Alpha  occ. eigenvalues --   -0.41982  -0.41972  -0.41215  -0.40914  -0.40426
 Alpha  occ. eigenvalues --   -0.40388  -0.40058  -0.39990  -0.39982  -0.39770
 Alpha  occ. eigenvalues --   -0.39333  -0.39207  -0.38699  -0.38408  -0.38400
 Alpha  occ. eigenvalues --   -0.37849  -0.37402  -0.36520  -0.36391  -0.36267
 Alpha  occ. eigenvalues --   -0.36140  -0.35140  -0.34962  -0.33758  -0.33631
 Alpha  occ. eigenvalues --   -0.33596  -0.33484  -0.32888  -0.32545  -0.32485
 Alpha  occ. eigenvalues --   -0.32369  -0.32260  -0.31390  -0.25815  -0.25708
 Alpha  occ. eigenvalues --   -0.23002  -0.22828
 Alpha virt. eigenvalues --   -0.07237  -0.07103   0.00182   0.00375   0.02142
 Alpha virt. eigenvalues --    0.02275   0.03902   0.04254   0.05427   0.06670
 Alpha virt. eigenvalues --    0.06896   0.07291   0.07678   0.07847   0.08025

 Mulliken charges:
               1
     1  Mg   0.955576
     2  C   -0.016261
     3  C   -0.071880
     4  C   -0.061314
     5  C   -0.075510
     6  N   -0.370225
     7  C   -0.076485
     8  C   -0.019218
     9  C   -0.128350
    10  C    0.112631
    11  C    0.004163
    12  C    0.005773
    13  C   -0.087401
    14  H    0.044515
    15  N   -0.442688
    16  C    0.155575
    17  C   -0.170598
    18  C   -0.084649
    19  C    0.094739
    20  C    0.080089
    21  C    0.059069
    22  O   -0.231231
    23  C   -0.015756
    24  N   -0.372833
    25  C    0.091493
    26  C   -0.107514
    27  C   -0.062824
    28  C    0.055335
    29  C    0.008965
    30  C    0.009715
    31  C   -0.064318
    32  N   -0.405405
    33  C    0.114391
    34  C   -0.207969
    35  C   -0.016211
    36  C    0.137244
    37  C    0.069744
    38  C    0.119531
    39  O   -0.197104
    40  C   -0.032884
    41  C    0.261275
    42  O   -0.260423
    43  O   -0.369166
    44  C    0.150780
    45  H   -0.002496
    46  H    0.022868
    47  H   -0.004907
    48  H    0.035292
    49  H    0.041249
    50  H    0.033397
    51  H    0.028525
    52  H    0.050230
    53  H    0.018763
    54  H    0.026016
    55  H    0.050587
    56  H    0.056517
    57  H    0.044978
    58  H    0.041866
    59  H    0.050672
    60  H    0.068921
    61  H    0.058769
    62  H    0.045034
    63  H    0.042171
    64  H    0.041411
    65  H    0.028624
    66  H    0.042479
    67  H    0.055250
    68  H    0.035320
    69  H    0.040763
    70  H    0.024707
    71  H    0.026725
    72  H    0.047277
    73  H    0.018106
    74  H    0.060784
    75  H    0.048898
    76  H    0.081471
    77  H    0.045188
    78  H    0.059259
    79  H    0.052900
    80  Mg   0.990655
    81  C   -0.017150
    82  C   -0.078268
    83  C   -0.086610
    84  C   -0.079905
    85  N   -0.298124
    86  C   -0.019852
    87  C   -0.052801
    88  C   -0.107392
    89  C    0.011200
    90  C    0.015548
    91  C    0.042951
    92  C   -0.138882
    93  H   -0.009950
    94  N   -0.512257
    95  C    0.177433
    96  C   -0.130133
    97  C   -0.071210
    98  C    0.182128
    99  C    0.070373
   100  C    0.029572
   101  O   -0.237003
   102  C   -0.016457
   103  N   -0.420554
   104  C    0.093841
   105  C   -0.078804
   106  C   -0.074233
   107  C    0.102024
   108  C    0.012782
   109  C   -0.031714
   110  C   -0.079615
   111  N   -0.424302
   112  C    0.112460
   113  C   -0.186373
   114  C   -0.110984
   115  C    0.145635
   116  C    0.092669
   117  C    0.193704
   118  O   -0.247744
   119  C   -0.086807
   120  C    0.237255
   121  O   -0.214563
   122  O   -0.372338
   123  C    0.133617
   124  H   -0.004031
   125  H    0.020566
   126  H   -0.003477
   127  H    0.041843
   128  H    0.042612
   129  H    0.049492
   130  H    0.034522
   131  H    0.041691
   132  H    0.048906
   133  H    0.045958
   134  H    0.054517
   135  H    0.060544
   136  H    0.047129
   137  H    0.063200
   138  H    0.044366
   139  H    0.052824
   140  H    0.053127
   141  H    0.038382
   142  H    0.045991
   143  H    0.048452
   144  H    0.039889
   145  H    0.042129
   146  H    0.029050
   147  H    0.043005
   148  H    0.034451
   149  H    0.027491
   150  H    0.051969
   151  H    0.040704
   152  H    0.063799
   153  H    0.026232
   154  H    0.068861
   155  H    0.066916
   156  H    0.050747
   157  H    0.051931
   158  H    0.076387
 Sum of Mulliken charges =  -0.00000

 Dipole moment (field-independent basis, Debye):
    X=              6.1888    Y=             -0.8196    Z=              7.6395  Tot=              9.8658
 Quadrupole moment (field-independent basis, Debye-Ang):
   XX=           -487.0279   YY=           -490.4545   ZZ=           -515.1431
   XY=             43.0036   XZ=              5.0092   YZ=             40.5256

 Normal termination of Gaussian 16 at Mon Sep 20 00:26:00 2021.
