 Gaussian 16, Revision A.03,
 Gaussian 16:  ES64L-G16RevA.03 25-Dec-2016

 --------------------------------
 #p wB97XD/Def2SVP td=(nstates=5)
 --------------------------------

 --------------------------------
 TDDFT excited states in gaussian
 --------------------------------
 Symbolic Z-matrix:
 Charge =  0 Multiplicity = 1

                         Standard orientation:
 ---------------------------------------------------------------------
 Center     Atomic      Atomic             Coordinates (Angstroms)
 Number     Number       Type             X           Y           Z
 ---------------------------------------------------------------------
      1         12           0       16.438545   -0.611181    0.355540
      2          6           0       15.261999    2.423224   -1.184045
      3          6           0       17.569156    1.327824    2.927664
      4          6           0       17.796574   -3.399602    1.633013
      5          6           0       15.665290   -2.253654   -2.517702
      6          7           0       16.355115    1.717177    0.834539
      7          6           0       15.780785    2.672604    0.047306
      8          6           0       15.775960    3.934067    0.824498
      9          6           0       16.633215    3.641335    2.086953
     10          6           0       16.958008    2.125621    1.988990
     11          6           0       17.945269    4.488379    2.108990
     12          6           0       14.417214    4.501595    1.150803
     13          6           0       14.318677    5.902295    1.733275
     14          1           0       13.363102    6.821020    1.095506
     15          7           0       17.419013   -0.994490    2.075449
     16          6           0       17.896084   -0.020507    2.995528
     17          6           0       18.477925   -0.764650    4.128367
     18          6           0       18.608287   -2.081002    3.693481
     19          6           0       17.973261   -2.194393    2.367948
     20          6           0       18.970001   -0.048079    5.368482
     21          6           0       19.201794   -3.305180    4.423591
     22          8           0       19.475900   -4.384814    3.866835
     23          6           0       19.421614   -3.172468    5.875284
     24          7           0       16.769242   -2.578721   -0.357720
     25          6           0       17.320328   -3.573713    0.306662
     26          6           0       17.389543   -4.895819   -0.505934
     27          6           0       16.489077   -4.545561   -1.692602
     28          6           0       16.256568   -3.065055   -1.495715
     29          6           0       18.857915   -5.233077   -0.933148
     30          6           0       15.195053   -5.317306   -1.820233
     31          6           0       14.808987   -5.788573   -3.233553
     32          7           0       15.554595   -0.055834   -1.418126
     33          6           0       15.297531   -0.867976   -2.500996
     34          6           0       14.591512   -0.120848   -3.585246
     35          6           0       14.619773    1.148538   -3.043824
     36          6           0       15.238346    1.172015   -1.787993
     37          6           0       13.920804   -0.661056   -4.807262
     38          6           0       14.219572    2.516891   -3.336952
     39          8           0       13.608406    2.923274   -4.318804
     40          6           0       14.612038    3.420029   -2.145247
     41          6           0       15.332709    4.537905   -2.698884
     42          8           0       16.517574    4.541893   -3.111441
     43          8           0       14.603818    5.680595   -2.566811
     44          6           0       15.253359    6.950505   -2.807905
     45          1           0       17.859869    1.921845    3.796321
     46          1           0       18.375551   -4.263776    1.964878
     47          1           0       15.675116   -2.808589   -3.457928
     48          1           0       16.312741    4.619516    0.169968
     49          1           0       16.098515    3.857442    3.012045
     50          1           0       18.260674    5.087124    2.964047
     51          1           0       17.822491    5.185389    1.280163
     52          1           0       18.842893    3.958420    1.789246
     53          1           0       13.919352    3.913826    1.922196
     54          1           0       13.694343    4.309223    0.358474
     55          1           0       15.281512    6.408509    1.682746
     56          1           0       13.833166    5.774080    2.700367
     57          1           0       19.955464   -0.366059    5.708214
     58          1           0       18.296444   -0.124650    6.221799
     59          1           0       19.131567    1.023151    5.245712
     60          1           0       18.500599   -2.808168    6.330607
     61          1           0       20.199830   -2.411442    5.921212
     62          1           0       19.581380   -4.181419    6.253753
     63          1           0       16.956220   -5.665518    0.133648
     64          1           0       16.945937   -4.618638   -2.679123
     65          1           0       18.991413   -5.149121   -2.011274
     66          1           0       19.113350   -6.264864   -0.691701
     67          1           0       19.480507   -4.496336   -0.425284
     68          1           0       14.351551   -4.764255   -1.408252
     69          1           0       15.260966   -6.068133   -1.033489
     70          1           0       14.205152   -6.686857   -3.108564
     71          1           0       15.665111   -5.881296   -3.902513
     72          1           0       14.230082   -4.934814   -3.585154
     73          1           0       12.838085   -0.753928   -4.720398
     74          1           0       14.475662   -1.563767   -5.061300
     75          1           0       14.208473   -0.056606   -5.668383
     76          1           0       13.668334    3.855108   -1.816386
     77          1           0       16.329325    6.887092   -2.972479
     78          1           0       14.998707    7.666683   -2.027139
     79          1           0       14.869309    7.442348   -3.701987
     80         12           0      -16.141586   -0.872377   -0.080858
     81          6           0      -18.168592    1.788842    1.034191
     82          6           0      -13.823248    1.438880   -1.127192
     83          6           0      -14.187490   -3.345737   -1.240391
     84          6           0      -18.759403   -3.128201    0.468214
     85          7           0      -16.037403    1.303313    0.110983
     86          6           0      -16.881017    2.224696    0.567226
     87          6           0      -16.404808    3.690623    0.497588
     88          6           0      -15.150615    3.439724   -0.472083
     89          6           0      -15.016089    1.938135   -0.541256
     90          6           0      -15.309783    4.053106   -1.842032
     91          6           0      -15.974644    4.324824    1.933665
     92          6           0      -16.122362    5.848269    1.986036
     93          1           0      -17.124168    6.351864    3.056852
     94          7           0      -14.157519   -0.984509   -0.920401
     95          6           0      -13.392711    0.139967   -1.318159
     96          6           0      -12.069239   -0.348607   -1.633514
     97          6           0      -12.133387   -1.738964   -1.653229
     98          6           0      -13.524512   -2.108419   -1.243268
     99          6           0      -10.928156    0.538195   -2.094981
    100          6           0      -11.081435   -2.787998   -1.931949
    101          8           0      -11.351670   -3.947085   -1.810230
    102          6           0       -9.673533   -2.427334   -2.287299
    103          7           0      -16.476251   -2.897816   -0.539855
    104          6           0      -15.484732   -3.742797   -0.945587
    105          6           0      -16.102268   -5.168753   -0.953144
    106          6           0      -17.230966   -5.145041    0.061944
    107          6           0      -17.569702   -3.636567    0.011569
    108          6           0      -16.674841   -5.464368   -2.338645
    109          6           0      -16.865991   -5.649675    1.408846
    110          6           0      -15.587030   -5.170872    2.050013
    111          7           0      -18.069948   -0.766572    0.635352
    112          6           0      -19.036441   -1.740398    0.802787
    113          6           0      -20.242787   -1.118053    1.369821
    114          6           0      -19.920354    0.244760    1.491709
    115          6           0      -18.635130    0.399242    1.048635
    116          6           0      -21.509777   -1.792387    1.676339
    117          6           0      -20.342332    1.512698    2.023842
    118          8           0      -21.402834    1.844991    2.630377
    119          6           0      -19.159592    2.558183    1.753407
    120          6           0      -19.736762    3.632644    0.868685
    121          8           0      -20.377884    3.392186   -0.111031
    122          8           0      -19.419264    4.967599    1.238840
    123          6           0      -19.709141    6.000852    0.198560
    124          1           0      -13.098562    2.158126   -1.512948
    125          1           0      -13.626222   -4.162722   -1.699407
    126          1           0      -19.548446   -3.793859    0.824998
    127          1           0      -17.206790    4.326018    0.119758
    128          1           0      -14.318250    3.908460    0.054303
    129          1           0      -14.774751    5.002140   -1.811748
    130          1           0      -16.351156    4.121933   -2.157237
    131          1           0      -14.690420    3.424008   -2.481267
    132          1           0      -14.930344    4.091061    2.143080
    133          1           0      -16.538198    3.859676    2.742709
    134          1           0      -16.412139    6.071622    0.959066
    135          1           0      -15.162508    6.350115    2.106732
    136          1           0      -11.216322    1.535855   -1.765891
    137          1           0      -11.023045    0.505107   -3.179965
    138          1           0       -9.974070    0.255419   -1.649702
    139          1           0       -9.335749   -2.059298   -1.318358
    140          1           0       -9.580657   -1.626672   -3.020569
    141          1           0       -9.126378   -3.312201   -2.614270
    142          1           0      -15.401236   -5.980162   -0.760608
    143          1           0      -18.098238   -5.754200   -0.190571
    144          1           0      -17.749667   -5.394787   -2.506316
    145          1           0      -16.361313   -6.472478   -2.609585
    146          1           0      -16.188618   -4.796859   -3.050978
    147          1           0      -16.870049   -6.739153    1.449857
    148          1           0      -17.689902   -5.319706    2.041337
    149          1           0      -15.895596   -4.553648    2.894257
    150          1           0      -14.829443   -4.586955    1.526484
    151          1           0      -15.080858   -6.035818    2.478392
    152          1           0      -21.986409   -2.061358    0.733754
    153          1           0      -22.053761   -1.059816    2.272489
    154          1           0      -21.344660   -2.731526    2.206117
    155          1           0      -18.842329    2.872259    2.747963
    156          1           0      -20.775401    6.225761    0.176044
    157          1           0      -19.390853    5.704483   -0.801959
    158          1           0      -19.282244    6.987834    0.374362
 ---------------------------------------------------------------------

 SCF Done:  E(RwB97XD) =  -4070.61369829     A.U. after   19 cycles

 Excitation energies and oscillator strengths:

 Excited State   1:      Singlet-A      1.6528 eV  750.14 nm  f=0.3737  <S**2>=0.000
     309 -> 316        0.17770
     311 -> 313        0.68512
     309 <- 316        0.11372
 This state for optimization and/or second-order correction.
 Total Energy, E(TD-HF/TD-DFT) =  -4070.55295882
 Copying the excited state density for this state as the 1-particle RhoCI density.

 Excited State   2:      Singlet-A      1.6935 eV  732.10 nm  f=0.3733  <S**2>=0.000
     310 -> 315        0.20444
     312 -> 314        0.67899
     310 <- 315        0.12249

 Excited State   3:      Singlet-A      2.1347 eV  580.79 nm  f=0.1145  <S**2>=0.000
     309 -> 313        0.64473
     311 -> 316       -0.27145

 Excited State   4:      Singlet-A      2.2627 eV  547.95 nm  f=0.0702  <S**2>=0.000
     310 -> 314        0.61591
     312 -> 315       -0.33994

 Excited State   5:      Singlet-A      3.3780 eV  367.04 nm  f=0.0298  <S**2>=0.000
     299 -> 313       -0.15997
     306 -> 313        0.38374
     307 -> 313       -0.36682
     308 -> 313        0.34655
     311 -> 316       -0.19168

 The electronic state is 1-A.
 Alpha  occ. eigenvalues --  -46.94953 -46.94919 -19.30488 -19.29713 -19.24935
 Alpha  occ. eigenvalues --  -19.24147 -19.24147 -19.23903 -19.23755 -19.23274
 Alpha  occ. eigenvalues --  -14.48033 -14.46547 -14.45930 -14.45786 -14.44468
 Alpha  occ. eigenvalues --  -14.44343 -14.44266 -14.43623 -10.43236 -10.43078
 Alpha  occ. eigenvalues --  -10.39292 -10.39182 -10.38753 -10.38561 -10.35946
 Alpha  occ. eigenvalues --  -10.35449 -10.35366 -10.35099 -10.35063 -10.35037
 Alpha  occ. eigenvalues --  -10.34869 -10.34754 -10.34678 -10.34660 -10.34637
 Alpha  occ. eigenvalues --  -10.34538 -10.34516 -10.34514 -10.34161 -10.33660
 Alpha  occ. eigenvalues --  -10.33343 -10.33272 -10.32955 -10.32781 -10.32622
 Alpha  occ. eigenvalues --  -10.32518 -10.32453 -10.32320 -10.32319 -10.32310
 Alpha  occ. eigenvalues --  -10.32248 -10.32245 -10.32215 -10.32186 -10.32106
 Alpha  occ. eigenvalues --  -10.32098 -10.31798 -10.31702 -10.31567 -10.31506
 Alpha  occ. eigenvalues --  -10.31336 -10.31183 -10.31177 -10.31150 -10.31140
 Alpha  occ. eigenvalues --  -10.31105 -10.31039 -10.30705 -10.30617 -10.30495
 Alpha  occ. eigenvalues --  -10.30310 -10.30298 -10.30170 -10.30027 -10.29919
 Alpha  occ. eigenvalues --  -10.29912 -10.29905 -10.29841 -10.29664 -10.29636
 Alpha  occ. eigenvalues --  -10.29296 -10.28959 -10.28920 -10.28722 -10.28389
 Alpha  occ. eigenvalues --  -10.28278  -3.20956  -3.20886  -1.94556  -1.94499
 Alpha  occ. eigenvalues --   -1.94074  -1.93987  -1.93937  -1.93873  -1.18392
 Alpha  occ. eigenvalues --   -1.17731  -1.14379  -1.11796  -1.11349  -1.09567
 Alpha  occ. eigenvalues --   -1.08845  -1.08238  -1.07843  -1.07319  -1.06692
 Alpha  occ. eigenvalues --   -1.05634  -1.05165  -1.04920  -1.04311  -1.03761
 Alpha  occ. eigenvalues --   -0.95238  -0.94917  -0.92023  -0.91994  -0.91321
 Alpha  occ. eigenvalues --   -0.91268  -0.90771  -0.90490  -0.89810  -0.89615
 Alpha  occ. eigenvalues --   -0.89082  -0.88850  -0.88654  -0.88108  -0.86706
 Alpha  occ. eigenvalues --   -0.86613  -0.86030  -0.85424  -0.84895  -0.84600
 Alpha  occ. eigenvalues --   -0.84584  -0.84427  -0.83275  -0.83045  -0.82939
 Alpha  occ. eigenvalues --   -0.81868  -0.80927  -0.80707  -0.79722  -0.79452
 Alpha  occ. eigenvalues --   -0.79257  -0.79005  -0.78560  -0.78211  -0.77257
 Alpha  occ. eigenvalues --   -0.76940  -0.75065  -0.74430  -0.74004  -0.73310
 Alpha  occ. eigenvalues --   -0.71610  -0.71529  -0.71303  -0.70847  -0.70120
 Alpha  occ. eigenvalues --   -0.69820  -0.69097  -0.68605  -0.68402  -0.67782
 Alpha  occ. eigenvalues --   -0.67449  -0.67186  -0.66962  -0.66643  -0.66205
 Alpha  occ. eigenvalues --   -0.65337  -0.64615  -0.63755  -0.62465  -0.62419
 Alpha  occ. eigenvalues --   -0.61976  -0.61909  -0.61569  -0.61152  -0.60958
 Alpha  occ. eigenvalues --   -0.60837  -0.60540  -0.60443  -0.59701  -0.59596
 Alpha  occ. eigenvalues --   -0.58547  -0.58422  -0.57777  -0.57758  -0.57597
 Alpha  occ. eigenvalues --   -0.56705  -0.56450  -0.56447  -0.56038  -0.56005
 Alpha  occ. eigenvalues --   -0.55942  -0.55902  -0.55676  -0.55600  -0.55489
 Alpha  occ. eigenvalues --   -0.55202  -0.54988  -0.54960  -0.54360  -0.53987
 Alpha  occ. eigenvalues --   -0.53874  -0.53812  -0.53717  -0.53625  -0.53450
 Alpha  occ. eigenvalues --   -0.53205  -0.52795  -0.52747  -0.52625  -0.52523
 Alpha  occ. eigenvalues --   -0.52295  -0.52198  -0.51941  -0.51915  -0.51663
 Alpha  occ. eigenvalues --   -0.51626  -0.51544  -0.51083  -0.51080  -0.51031
 Alpha  occ. eigenvalues --   -0.50678  -0.50390  -0.50340  -0.50271  -0.50156
 Alpha  occ. eigenvalues --   -0.49954  -0.49833  -0.49684  -0.49587  -0.49368
 Alpha  occ. eigenvalues --   -0.49239  -0.49091  -0.49051  -0.48671  -0.48542
 Alpha  occ. eigenvalues --   -0.48274  -0.48234  -0.48044  -0.47800  -0.47587
 Alpha  occ. eigenvalues --   -0.47462  -0.47333  -0.47168  -0.47113  -0.47088
 Alpha  occ. eigenvalues --   -0.46916  -0.46540  -0.46237  -0.46089  -0.45953
 Alpha  occ. eigenvalues --   -0.45912  -0.45705  -0.45649  -0.45442  -0.45410
 Alpha  occ. eigenvalues --   -0.45140  -0.45134  -0.45040  -0.44777  -0.44543
 Alpha  occ. eigenvalues --   -0.44467  -0.44427  -0.44402  -0.44058  -0.43752
 Alpha  occ. eigenvalues --   -0.43748  -0.43724  -0.43581  -0.43495  -0.43286
 Alpha  occ. eigenvalues --   -0.43055  -0.42957  -0.42897  -0.42839  -0.42289
 Alpha  occ. eigenvalues --   -0.42164  -0.42122  -0.41886  -0.41655  -0.41424
 Alpha  occ. eigenvalues --   -0.40785  -0.40312  -0.39918  -0.39685  -0.39299
 Alpha  occ. eigenvalues --   -0.39287  -0.39092  -0.38382  -0.38227  -0.38101
 Alpha  occ. eigenvalues --   -0.37987  -0.37747  -0.36627  -0.36506  -0.35960
 Alpha  occ. eigenvalues --   -0.35571  -0.35409  -0.35243  -0.33911  -0.33854
 Alpha  occ. eigenvalues --   -0.33376  -0.33060  -0.32832  -0.32612  -0.32514
 Alpha  occ. eigenvalues --   -0.32339  -0.32149  -0.31454  -0.26081  -0.26080
 Alpha  occ. eigenvalues --   -0.23211  -0.22800
 Alpha virt. eigenvalues --   -0.07301  -0.06585   0.00023   0.00181   0.02476
 Alpha virt. eigenvalues --    0.02712   0.04293   0.04544   0.06050   0.06256
 Alpha virt. eigenvalues --    0.06602   0.07142   0.07713   0.08053   0.08087

 Mulliken charges:
               1
     1  Mg   0.974722
     2  C    0.002900
     3  C   -0.074086
     4  C   -0.058917
     5  C   -0.108733
     6  N   -0.330642
     7  C   -0.063376
     8  C    0.015678
     9  C   -0.121782
    10  C    0.063782
    11  C    0.011222
    12  C    0.011799
    13  C   -0.119918
    14  H    0.035158
    15  N   -0.515997
    16  C    0.190083
    17  C   -0.128783
    18  C   -0.091685
    19  C    0.167340
    20  C    0.036484
    21  C    0.055230
    22  O   -0.254696
    23  C    0.008698
    24  N   -0.326284
    25  C   -0.014283
    26  C   -0.059990
    27  C   -0.104936
    28  C    0.037714
    29  C    0.034207
    30  C    0.005239
    31  C   -0.035288
    32  N   -0.421222
    33  C    0.133016
    34  C   -0.209187
    35  C   -0.009067
    36  C    0.152766
    37  C    0.108937
    38  C    0.073395
    39  O   -0.209317
    40  C   -0.032096
    41  C    0.264678
    42  O   -0.283571
    43  O   -0.351534
    44  C    0.134891
    45  H   -0.012334
    46  H    0.030728
    47  H    0.003583
    48  H    0.033979
    49  H    0.037500
    50  H    0.041070
    51  H    0.017675
    52  H    0.035995
    53  H    0.014220
    54  H    0.025634
    55  H    0.056668
    56  H    0.056670
    57  H    0.040472
    58  H    0.054051
    59  H    0.039034
    60  H    0.053137
    61  H    0.060481
    62  H    0.061998
    63  H    0.043804
    64  H    0.028190
    65  H    0.033616
    66  H    0.048098
    67  H    0.054543
    68  H    0.022986
    69  H    0.008897
    70  H    0.052204
    71  H    0.038620
    72  H    0.041036
    73  H    0.077308
    74  H    0.017181
    75  H    0.049442
    76  H    0.080686
    77  H    0.066912
    78  H    0.047314
    79  H    0.046055
    80  Mg   0.953616
    81  C   -0.042919
    82  C   -0.110331
    83  C   -0.074571
    84  C   -0.071324
    85  N   -0.321048
    86  C   -0.004201
    87  C   -0.076397
    88  C   -0.141342
    89  C    0.116704
    90  C    0.056673
    91  C    0.009095
    92  C   -0.101799
    93  H    0.060714
    94  N   -0.444602
    95  C    0.147157
    96  C   -0.177138
    97  C   -0.058170
    98  C    0.148349
    99  C    0.068154
   100  C    0.023050
   101  O   -0.209958
   102  C   -0.009638
   103  N   -0.406326
   104  C    0.080567
   105  C   -0.094260
   106  C   -0.044068
   107  C    0.108146
   108  C    0.034244
   109  C    0.007581
   110  C   -0.069572
   111  N   -0.442695
   112  C    0.083667
   113  C   -0.209121
   114  C    0.007076
   115  C    0.127496
   116  C    0.079143
   117  C    0.099109
   118  O   -0.251524
   119  C   -0.045525
   120  C    0.263246
   121  O   -0.210372
   122  O   -0.401522
   123  C    0.135684
   124  H    0.006529
   125  H    0.021261
   126  H   -0.000393
   127  H    0.038168
   128  H    0.035950
   129  H    0.032135
   130  H    0.057766
   131  H    0.022882
   132  H    0.027397
   133  H    0.042811
   134  H    0.027495
   135  H    0.044605
   136  H    0.032585
   137  H    0.076174
   138  H    0.059656
   139  H    0.059778
   140  H    0.052728
   141  H    0.061959
   142  H    0.024994
   143  H    0.018246
   144  H    0.045005
   145  H    0.032944
   146  H    0.031311
   147  H    0.032115
   148  H    0.016178
   149  H    0.030666
   150  H    0.056736
   151  H    0.029909
   152  H    0.053940
   153  H    0.066176
   154  H    0.035036
   155  H    0.077598
   156  H    0.056922
   157  H    0.049897
   158  H    0.051789
 Sum of Mulliken charges =  -0.00000

 Dipole moment (field-independent basis, Debye):
    X=              6.5552    Y=              0.6210    Z=              2.5306  Tot=              7.0541
 Quadrupole moment (field-independent basis, Debye-Ang):
   XX=           -766.8840   YY=           -468.7993   ZZ=           -510.8782
   XY=             15.5213   XZ=            110.1167   YZ=             19.6333

 Normal termination of Gaussian 16 at Mon Sep 20 01:40:19 2021.
