 Gaussian 16, Revision A.03,
 Gaussian 16:  ES64L-G16RevA.03 25-Dec-2016

 --------------------------------
 #p wB97XD/Def2SVP td=(nstates=5)
 --------------------------------

 --------------------------------
 TDDFT excited states in gaussian
 --------------------------------
 Symbolic Z-matrix:
 Charge =  0 Multiplicity = 1

                         Standard orientation:
 ---------------------------------------------------------------------
 Center     Atomic      Atomic             Coordinates (Angstroms)
 Number     Number       Type             X           Y           Z
 ---------------------------------------------------------------------
      1         12           0       18.732245   -0.053260    0.137837
      2          6           0       15.352870   -0.796955    0.121094
      3          6           0       18.601756    0.494402   -3.274904
      4          6           0       21.783505    1.374893    0.350036
      5          6           0       18.565089   -0.327221    3.649909
      6          7           0       17.074222    0.132254   -1.357097
      7          6           0       15.871357   -0.403647   -1.131828
      8          6           0       14.976010   -0.259728   -2.401209
      9          6           0       16.089154   -0.111161   -3.542822
     10          6           0       17.392118    0.122869   -2.686572
     11          6           0       16.098926   -1.299988   -4.533833
     12          6           0       14.140056    0.997092   -2.317540
     13          6           0       12.707507    0.865317   -2.810539
     14          1           0       11.967523    2.011114   -3.598386
     15          7           0       20.077792    0.661504   -1.357947
     16          6           0       19.845006    0.881852   -2.663328
     17          6           0       21.055586    1.370939   -3.239046
     18          6           0       22.066520    1.472320   -2.235743
     19          6           0       21.356463    1.132765   -0.996402
     20          6           0       21.215240    1.517639   -4.707143
     21          6           0       23.424250    2.032009   -2.471826
     22          8           0       23.771362    2.344300   -3.598729
     23          6           0       24.439602    2.167424   -1.343419
     24          7           0       20.067324    0.384426    1.850289
     25          6           0       21.234008    1.045106    1.608195
     26          6           0       21.847957    1.516871    2.886126
     27          6           0       20.784887    0.961514    3.947644
     28          6           0       19.738059    0.218768    3.155015
     29          6           0       23.305836    1.071348    3.105666
     30          6           0       20.155266    2.041517    4.934615
     31          6           0       20.170100    1.811649    6.464177
     32          7           0       17.320893   -0.486763    1.587284
     33          6           0       17.414596   -0.629906    2.935980
     34          6           0       16.292759   -1.299955    3.425929
     35          6           0       15.414595   -1.433130    2.359386
     36          6           0       16.050995   -0.860295    1.286896
     37          6           0       16.066422   -1.665598    4.922212
     38          6           0       14.179413   -1.908438    1.942412
     39          8           0       13.275961   -2.370154    2.630703
     40          6           0       13.979467   -1.496181    0.404828
     41          6           0       13.892025   -2.630829   -0.441835
     42          8           0       14.763854   -3.398112   -0.856912
     43          8           0       12.547992   -2.752345   -0.781052
     44          6           0       12.093586   -3.825716   -1.648370
     45          1           0       18.607240    0.516911   -4.366443
     46          1           0       22.759737    1.810675    0.574631
     47          1           0       18.654243   -0.464021    4.729727
     48          1           0       14.339686   -1.142200   -2.461764
     49          1           0       16.031819    0.823384   -4.099946
     50          1           0       15.415709   -2.090595   -4.224205
     51          1           0       17.111489   -1.696271   -4.616258
     52          1           0       15.841540   -0.907422   -5.517304
     53          1           0       14.539429    1.901303   -2.777342
     54          1           0       14.201495    1.291597   -1.269895
     55          1           0       12.113746    0.558265   -1.949738
     56          1           0       12.790536   -0.005869   -3.460319
     57          1           0       21.730742    0.598014   -4.983365
     58          1           0       21.791117    2.407941   -4.960512
     59          1           0       20.265720    1.593615   -5.237102
     60          1           0       24.161247    3.073972   -0.805813
     61          1           0       25.383430    2.416252   -1.827959
     62          1           0       24.447931    1.272886   -0.720791
     63          1           0       21.772548    2.594301    2.742895
     64          1           0       21.252849    0.294292    4.671495
     65          1           0       23.915551    1.960953    2.944277
     66          1           0       23.603444    0.252100    2.450357
     67          1           0       23.440401    0.779484    4.146924
     68          1           0       19.105590    2.171102    4.671401
     69          1           0       20.644759    3.013319    4.866913
     70          1           0       19.219482    1.290177    6.575200
     71          1           0       20.111098    2.763206    6.990943
     72          1           0       20.860691    1.092212    6.903973
     73          1           0       15.822928   -0.753677    5.465885
     74          1           0       16.932079   -2.056543    5.457259
     75          1           0       15.236113   -2.363909    5.030926
     76          1           0       13.102266   -0.849282    0.385324
     77          1           0       11.076465   -4.070304   -1.343747
     78          1           0       12.759144   -4.687160   -1.709646
     79          1           0       11.972139   -3.408212   -2.647991
     80         12           0      -18.491414    0.658603    0.074169
     81          6           0      -15.892035   -1.807603   -0.513228
     82          6           0      -20.402828   -1.937915    1.058790
     83          6           0      -20.783022    2.837257    0.526702
     84          6           0      -16.363406    3.120057   -1.322148
     85          7           0      -18.114977   -1.712364    0.275056
     86          6           0      -16.987028   -2.414443    0.070924
     87          6           0      -17.168426   -3.866301    0.553393
     88          6           0      -18.767593   -3.873231    0.587244
     89          6           0      -19.115306   -2.448967    0.706112
     90          6           0      -19.506757   -4.746743   -0.412547
     91          6           0      -16.447800   -4.032629    1.902448
     92          6           0      -16.014562   -5.502290    2.180001
     93          1           0      -16.034278   -6.645578    1.063123
     94          7           0      -20.379963    0.505645    0.764581
     95          6           0      -21.057446   -0.664332    1.049729
     96          6           0      -22.430519   -0.313792    1.399905
     97          6           0      -22.537440    1.096849    1.323294
     98          6           0      -21.191000    1.524494    0.848410
     99          6           0      -23.466814   -1.286142    1.751439
    100          6           0      -23.780203    2.067027    1.684341
    101          8           0      -23.652802    3.259912    1.731203
    102          6           0      -25.088705    1.511782    2.274914
    103          7           0      -18.632461    2.646547   -0.601537
    104          6           0      -19.648127    3.365350   -0.130118
    105          6           0      -19.542521    4.842231   -0.400195
    106          6           0      -18.011281    4.942571   -0.605910
    107          6           0      -17.695174    3.463394   -1.017338
    108          6           0      -20.346356    5.334401   -1.692380
    109          6           0      -17.173120    5.478944    0.629428
    110          6           0      -17.822532    6.473830    1.634906
    111          7           0      -16.603753    0.687406   -0.847133
    112          6           0      -15.836470    1.709211   -1.300947
    113          6           0      -14.546484    1.289681   -1.615655
    114          6           0      -14.566797   -0.053649   -1.370463
    115          6           0      -15.808521   -0.412571   -0.884505
    116          6           0      -13.393206    2.185438   -2.059425
    117          6           0      -13.684494   -1.229551   -1.409567
    118          8           0      -12.582784   -1.429711   -1.898659
    119          6           0      -14.543986   -2.399074   -0.757950
    120          6           0      -14.506155   -3.527984   -1.671028
    121          8           0      -15.158995   -3.665354   -2.710472
    122          8           0      -13.440118   -4.278105   -1.322162
    123          6           0      -13.056307   -5.216901   -2.361120
    124          1           0      -21.065833   -2.794294    1.198962
    125          1           0      -21.602133    3.546868    0.656513
    126          1           0      -15.712282    3.930690   -1.655315
    127          1           0      -16.860258   -4.583604   -0.207375
    128          1           0      -19.036917   -4.328350    1.539383
    129          1           0      -20.024907   -5.574646    0.070448
    130          1           0      -18.810521   -5.148364   -1.148551
    131          1           0      -20.226914   -4.207076   -1.027596
    132          1           0      -17.174359   -3.813775    2.685272
    133          1           0      -15.617730   -3.342240    2.051141
    134          1           0      -16.487527   -5.899585    3.078664
    135          1           0      -15.023478   -5.360828    2.610867
    136          1           0      -23.038885   -2.215146    2.127577
    137          1           0      -24.023050   -1.452155    0.828706
    138          1           0      -24.150834   -0.945722    2.529136
    139          1           0      -24.973948    1.075865    3.267311
    140          1           0      -25.489852    0.870474    1.489811
    141          1           0      -25.836527    2.303657    2.324753
    142          1           0      -19.961632    5.281790    0.504606
    143          1           0      -17.733568    5.582602   -1.443014
    144          1           0      -20.845993    6.224410   -1.310511
    145          1           0      -21.094938    4.628397   -2.053652
    146          1           0      -19.736807    5.636558   -2.543142
    147          1           0      -16.237650    5.895481    0.258648
    148          1           0      -17.062622    4.560429    1.206091
    149          1           0      -18.360483    5.931287    2.411931
    150          1           0      -18.416176    7.125124    0.992471
    151          1           0      -17.087186    7.131913    2.096530
    152          1           0      -13.599486    3.147136   -1.589055
    153          1           0      -13.382631    2.372845   -3.132745
    154          1           0      -12.462341    1.742480   -1.705793
    155          1           0      -14.059540   -2.644263    0.188030
    156          1           0      -12.182383   -5.814350   -2.103051
    157          1           0      -13.015234   -4.829181   -3.379137
    158          1           0      -13.813668   -5.994269   -2.467847
 ---------------------------------------------------------------------

 SCF Done:  E(RwB97XD) =  -4070.56249217     A.U. after   19 cycles

 Excitation energies and oscillator strengths:

 Excited State   1:      Singlet-A      1.6376 eV  757.12 nm  f=0.4054  <S**2>=0.000
     309 -> 315       -0.19094
     311 -> 313        0.68256
     309 <- 315       -0.11965
 This state for optimization and/or second-order correction.
 Total Energy, E(TD-HF/TD-DFT) =  -4070.50231261
 Copying the excited state density for this state as the 1-particle RhoCI density.

 Excited State   2:      Singlet-A      1.7989 eV  689.23 nm  f=0.3705  <S**2>=0.000
     310 -> 316       -0.19144
     312 -> 314        0.67945
     310 <- 316       -0.11149

 Excited State   3:      Singlet-A      2.1723 eV  570.76 nm  f=0.0973  <S**2>=0.000
     309 -> 313        0.63456
     311 -> 315        0.29666

 Excited State   4:      Singlet-A      2.1925 eV  565.49 nm  f=0.1522  <S**2>=0.000
     310 -> 314        0.65250
     312 -> 316        0.25640

 Excited State   5:      Singlet-A      3.2602 eV  380.29 nm  f=0.0049  <S**2>=0.000
     307 -> 313        0.67170
     311 -> 315       -0.12916

 The electronic state is 1-A.
 Alpha  occ. eigenvalues --  -46.95996 -46.95670 -19.30074 -19.29837 -19.25572
 Alpha  occ. eigenvalues --  -19.25093 -19.24286 -19.23835 -19.23671 -19.23337
 Alpha  occ. eigenvalues --  -14.46890 -14.46581 -14.46054 -14.45646 -14.44542
 Alpha  occ. eigenvalues --  -14.44390 -14.43784 -14.43176 -10.43411 -10.42003
 Alpha  occ. eigenvalues --  -10.41007 -10.39218 -10.38775 -10.38546 -10.35532
 Alpha  occ. eigenvalues --  -10.35405 -10.35400 -10.35356 -10.35262 -10.35120
 Alpha  occ. eigenvalues --  -10.34859 -10.34835 -10.34826 -10.34678 -10.34230
 Alpha  occ. eigenvalues --  -10.33772 -10.33633 -10.33544 -10.33542 -10.33402
 Alpha  occ. eigenvalues --  -10.33178 -10.32753 -10.32722 -10.32690 -10.32457
 Alpha  occ. eigenvalues --  -10.32444 -10.32365 -10.32334 -10.32320 -10.32203
 Alpha  occ. eigenvalues --  -10.32190 -10.32024 -10.31962 -10.31882 -10.31878
 Alpha  occ. eigenvalues --  -10.31858 -10.31639 -10.31612 -10.31513 -10.31425
 Alpha  occ. eigenvalues --  -10.31414 -10.31400 -10.31287 -10.31259 -10.31104
 Alpha  occ. eigenvalues --  -10.31044 -10.31031 -10.30712 -10.30704 -10.30674
 Alpha  occ. eigenvalues --  -10.30492 -10.30412 -10.30111 -10.29942 -10.29927
 Alpha  occ. eigenvalues --  -10.29881 -10.29854 -10.29701 -10.29659 -10.29436
 Alpha  occ. eigenvalues --  -10.29403 -10.29344 -10.29017 -10.28835 -10.28796
 Alpha  occ. eigenvalues --  -10.27659  -3.21786  -3.21623  -1.95383  -1.95213
 Alpha  occ. eigenvalues --   -1.94897  -1.94763  -1.94744  -1.94574  -1.18623
 Alpha  occ. eigenvalues --   -1.17865  -1.14867  -1.12249  -1.12165  -1.11619
 Alpha  occ. eigenvalues --   -1.09671  -1.08774  -1.07780  -1.07530  -1.07204
 Alpha  occ. eigenvalues --   -1.06705  -1.06054  -1.05841  -1.05395  -1.04635
 Alpha  occ. eigenvalues --   -0.95868  -0.94267  -0.91377  -0.91153  -0.90966
 Alpha  occ. eigenvalues --   -0.90586  -0.90236  -0.89934  -0.89802  -0.89481
 Alpha  occ. eigenvalues --   -0.88818  -0.88804  -0.88142  -0.87461  -0.87335
 Alpha  occ. eigenvalues --   -0.86501  -0.86272  -0.84976  -0.84916  -0.84238
 Alpha  occ. eigenvalues --   -0.84129  -0.83866  -0.83422  -0.82716  -0.82640
 Alpha  occ. eigenvalues --   -0.82041  -0.80605  -0.80104  -0.79522  -0.78708
 Alpha  occ. eigenvalues --   -0.78507  -0.78469  -0.78388  -0.77616  -0.77175
 Alpha  occ. eigenvalues --   -0.77094  -0.75471  -0.74689  -0.74353  -0.73609
 Alpha  occ. eigenvalues --   -0.71805  -0.71573  -0.71174  -0.70688  -0.70060
 Alpha  occ. eigenvalues --   -0.69548  -0.69318  -0.68793  -0.68065  -0.67811
 Alpha  occ. eigenvalues --   -0.67459  -0.67371  -0.67022  -0.66833  -0.66589
 Alpha  occ. eigenvalues --   -0.65638  -0.64670  -0.63751  -0.62852  -0.62452
 Alpha  occ. eigenvalues --   -0.61892  -0.61452  -0.61203  -0.61067  -0.61026
 Alpha  occ. eigenvalues --   -0.60349  -0.60136  -0.59974  -0.59829  -0.59449
 Alpha  occ. eigenvalues --   -0.58565  -0.58305  -0.58070  -0.57431  -0.57375
 Alpha  occ. eigenvalues --   -0.57122  -0.56758  -0.56501  -0.56280  -0.55960
 Alpha  occ. eigenvalues --   -0.55744  -0.55521  -0.55478  -0.55297  -0.54928
 Alpha  occ. eigenvalues --   -0.54831  -0.54559  -0.54226  -0.54156  -0.54018
 Alpha  occ. eigenvalues --   -0.53974  -0.53776  -0.53651  -0.53410  -0.53188
 Alpha  occ. eigenvalues --   -0.53176  -0.53043  -0.52613  -0.52385  -0.52271
 Alpha  occ. eigenvalues --   -0.52050  -0.51912  -0.51892  -0.51622  -0.51488
 Alpha  occ. eigenvalues --   -0.51388  -0.51040  -0.50943  -0.50894  -0.50860
 Alpha  occ. eigenvalues --   -0.50674  -0.50499  -0.50299  -0.50253  -0.50166
 Alpha  occ. eigenvalues --   -0.49773  -0.49410  -0.49397  -0.49292  -0.48910
 Alpha  occ. eigenvalues --   -0.48807  -0.48677  -0.48642  -0.48616  -0.48502
 Alpha  occ. eigenvalues --   -0.48137  -0.48048  -0.47859  -0.47728  -0.47654
 Alpha  occ. eigenvalues --   -0.47385  -0.47328  -0.47227  -0.47055  -0.46791
 Alpha  occ. eigenvalues --   -0.46626  -0.46530  -0.46454  -0.46419  -0.46200
 Alpha  occ. eigenvalues --   -0.45967  -0.45828  -0.45805  -0.45723  -0.45522
 Alpha  occ. eigenvalues --   -0.45344  -0.45233  -0.45159  -0.45047  -0.44875
 Alpha  occ. eigenvalues --   -0.44799  -0.44565  -0.44354  -0.44194  -0.44107
 Alpha  occ. eigenvalues --   -0.43975  -0.43962  -0.43823  -0.43766  -0.43322
 Alpha  occ. eigenvalues --   -0.43301  -0.43199  -0.42887  -0.42267  -0.42175
 Alpha  occ. eigenvalues --   -0.41607  -0.41591  -0.41204  -0.40573  -0.40256
 Alpha  occ. eigenvalues --   -0.40142  -0.40115  -0.39983  -0.39877  -0.39390
 Alpha  occ. eigenvalues --   -0.39372  -0.39204  -0.38634  -0.38237  -0.37881
 Alpha  occ. eigenvalues --   -0.37622  -0.37551  -0.36792  -0.36464  -0.36123
 Alpha  occ. eigenvalues --   -0.35731  -0.35639  -0.34668  -0.34003  -0.33941
 Alpha  occ. eigenvalues --   -0.33724  -0.33236  -0.32814  -0.32645  -0.32594
 Alpha  occ. eigenvalues --   -0.32287  -0.31615  -0.31567  -0.26450  -0.25284
 Alpha  occ. eigenvalues --   -0.23317  -0.23192
 Alpha virt. eigenvalues --   -0.07519  -0.06570  -0.00345   0.00857   0.01927
 Alpha virt. eigenvalues --    0.02636   0.04477   0.04785   0.05590   0.05707
 Alpha virt. eigenvalues --    0.06263   0.06785   0.07230   0.07934   0.08167

 Mulliken charges:
               1
     1  Mg   0.938862
     2  C   -0.063504
     3  C   -0.088027
     4  C   -0.039699
     5  C   -0.124328
     6  N   -0.332112
     7  C    0.013012
     8  C   -0.124820
     9  C   -0.102935
    10  C    0.083689
    11  C    0.035821
    12  C    0.029672
    13  C   -0.116630
    14  H    0.044893
    15  N   -0.455908
    16  C    0.158325
    17  C   -0.182216
    18  C   -0.057292
    19  C    0.198353
    20  C    0.076229
    21  C    0.004644
    22  O   -0.236035
    23  C    0.002972
    24  N   -0.353957
    25  C   -0.009564
    26  C   -0.086559
    27  C   -0.051271
    28  C    0.062295
    29  C    0.022950
    30  C   -0.053237
    31  C   -0.067794
    32  N   -0.433869
    33  C    0.194469
    34  C   -0.187339
    35  C    0.053571
    36  C    0.162240
    37  C    0.075225
    38  C    0.056236
    39  O   -0.206933
    40  C   -0.077300
    41  C    0.295249
    42  O   -0.257314
    43  O   -0.388825
    44  C    0.139734
    45  H   -0.000118
    46  H   -0.030182
    47  H   -0.003643
    48  H    0.037208
    49  H    0.045735
    50  H    0.048990
    51  H    0.033958
    52  H    0.036082
    53  H    0.037187
    54  H    0.027131
    55  H    0.055830
    56  H    0.044499
    57  H    0.060669
    58  H    0.065547
    59  H    0.024444
    60  H    0.059324
    61  H    0.051938
    62  H    0.063601
    63  H    0.053027
    64  H    0.024058
    65  H    0.042347
    66  H    0.053143
    67  H    0.040387
    68  H    0.043656
    69  H    0.030884
    70  H    0.022338
    71  H    0.047966
    72  H    0.040104
    73  H    0.047470
    74  H    0.037788
    75  H    0.062258
    76  H    0.083099
    77  H    0.056987
    78  H    0.068810
    79  H    0.036507
    80  Mg   0.962984
    81  C   -0.002537
    82  C   -0.069560
    83  C   -0.087045
    84  C   -0.078772
    85  N   -0.252336
    86  C   -0.062661
    87  C   -0.061913
    88  C   -0.088985
    89  C    0.000111
    90  C    0.039655
    91  C    0.010104
    92  C   -0.092294
    93  H    0.048518
    94  N   -0.472806
    95  C    0.161524
    96  C   -0.161833
    97  C   -0.088148
    98  C    0.122011
    99  C    0.059523
   100  C    0.076608
   101  O   -0.197390
   102  C   -0.024278
   103  N   -0.321699
   104  C    0.065113
   105  C   -0.102495
   106  C   -0.113648
   107  C    0.058466
   108  C    0.030262
   109  C   -0.010594
   110  C   -0.052884
   111  N   -0.409766
   112  C    0.090340
   113  C   -0.219043
   114  C   -0.051416
   115  C    0.154834
   116  C    0.095852
   117  C    0.138567
   118  O   -0.197748
   119  C   -0.093046
   120  C    0.252633
   121  O   -0.272159
   122  O   -0.331229
   123  C    0.153377
   124  H   -0.010551
   125  H    0.011877
   126  H    0.003385
   127  H    0.040492
   128  H    0.017733
   129  H    0.039839
   130  H    0.042826
   131  H    0.036609
   132  H    0.031788
   133  H    0.048027
   134  H    0.038527
   135  H    0.037378
   136  H    0.044152
   137  H    0.065917
   138  H    0.040871
   139  H    0.086408
   140  H    0.045248
   141  H    0.050813
   142  H    0.043768
   143  H    0.017518
   144  H    0.041928
   145  H    0.045895
   146  H    0.042508
   147  H    0.037401
   148  H    0.027808
   149  H    0.050440
   150  H    0.034781
   151  H    0.039879
   152  H    0.025423
   153  H    0.053037
   154  H    0.055842
   155  H    0.073368
   156  H    0.049866
   157  H    0.060864
   158  H    0.024139
 Sum of Mulliken charges =  -0.00000

 Dipole moment (field-independent basis, Debye):
    X=             -3.4663    Y=              0.1621    Z=              5.9044  Tot=              6.8486
 Quadrupole moment (field-independent basis, Debye-Ang):
   XX=           -311.7933   YY=           -492.0437   ZZ=           -501.5680
   XY=             49.7511   XZ=              3.8624   YZ=              3.8301

 Normal termination of Gaussian 16 at Sun Sep 19 03:37:40 2021.
