 Gaussian 16, Revision A.03,
 Gaussian 16:  ES64L-G16RevA.03 25-Dec-2016

 --------------------------------
 #p wB97XD/Def2SVP td=(nstates=5)
 --------------------------------

 --------------------------------
 TDDFT excited states in gaussian
 --------------------------------
 Symbolic Z-matrix:
 Charge =  0 Multiplicity = 1

                         Standard orientation:
 ---------------------------------------------------------------------
 Center     Atomic      Atomic             Coordinates (Angstroms)
 Number     Number       Type             X           Y           Z
 ---------------------------------------------------------------------
      1         12           0       16.914127    0.599323   -0.240378
      2          6           0       15.746279   -2.058768    1.748001
      3          6           0       14.200867    2.457786    0.888749
      4          6           0       17.869602    2.956268   -2.375665
      5          6           0       19.096897   -1.697982   -1.928096
      6          7           0       15.184927    0.237395    1.118929
      7          6           0       15.005444   -0.904427    1.912342
      8          6           0       14.060854   -0.573836    3.053060
      9          6           0       13.362573    0.748930    2.627145
     10          6           0       14.312973    1.183550    1.470993
     11          6           0       11.844485    0.651007    2.277059
     12          6           0       14.736067   -0.520105    4.467271
     13          6           0       13.777844   -0.950162    5.663759
     14          1           0       12.327667   -1.306088    5.325656
     15          7           0       16.235120    2.434286   -0.571537
     16          6           0       15.158712    3.053723    0.039849
     17          6           0       15.062556    4.425426   -0.368700
     18          6           0       16.032012    4.571614   -1.411951
     19          6           0       16.768243    3.320700   -1.451798
     20          6           0       13.965037    5.405974    0.146256
     21          6           0       16.280911    5.746531   -2.300190
     22          8           0       17.062664    5.674830   -3.278299
     23          6           0       15.623281    7.157629   -2.270777
     24          7           0       18.081273    0.579495   -2.089538
     25          6           0       18.407737    1.722684   -2.721539
     26          6           0       19.588791    1.485383   -3.695944
     27          6           0       19.970739    0.005507   -3.578268
     28          6           0       18.991748   -0.400018   -2.389897
     29          6           0       19.303876    2.030298   -5.062272
     30          6           0       21.453526   -0.318980   -3.296511
     31          6           0       22.027322    0.285919   -1.991506
     32          7           0       17.341010   -1.495419   -0.203557
     33          6           0       18.326538   -2.193385   -0.814590
     34          6           0       18.389417   -3.495856   -0.153292
     35          6           0       17.425346   -3.531428    0.892772
     36          6           0       16.758062   -2.285998    0.797663
     37          6           0       19.417365   -4.588580   -0.434673
     38          6           0       16.862011   -4.317817    1.943336
     39          8           0       17.151589   -5.399436    2.447925
     40          6           0       15.633534   -3.365586    2.539600
     41          6           0       14.336382   -4.151950    2.513749
     42          8           0       13.658537   -4.298319    1.515596
     43          8           0       13.995429   -4.576643    3.777813
     44          6           0       13.017015   -5.649678    3.922218
     45          1           0       13.395382    2.986134    1.402682
     46          1           0       18.202661    3.799027   -2.984530
     47          1           0       19.878097   -2.297261   -2.399744
     48          1           0       13.304675   -1.354798    3.131672
     49          1           0       13.482334    1.449634    3.452943
     50          1           0       11.813186    1.056151    1.266192
     51          1           0       11.262113    1.334938    2.895632
     52          1           0       11.353343   -0.321979    2.265989
     53          1           0       15.020763    0.497200    4.734061
     54          1           0       15.645060   -1.119648    4.440215
     55          1           0       13.653230   -0.078879    6.306938
     56          1           0       14.258359   -1.782036    6.178150
     57          1           0       13.658463    6.026307   -0.696828
     58          1           0       14.334654    6.081041    0.917381
     59          1           0       13.050215    5.039452    0.611699
     60          1           0       15.743543    7.617279   -1.289370
     61          1           0       14.576394    7.136800   -2.573467
     62          1           0       16.188755    7.926961   -2.795244
     63          1           0       20.368907    2.175147   -3.376416
     64          1           0       19.516987   -0.465908   -4.450749
     65          1           0       19.801102    2.982014   -5.250562
     66          1           0       18.227157    2.109289   -5.213256
     67          1           0       19.601485    1.370140   -5.877724
     68          1           0       21.970802    0.142491   -4.137931
     69          1           0       21.612140   -1.397650   -3.313668
     70          1           0       22.351933   -0.569923   -1.400021
     71          1           0       21.212362    0.828857   -1.512721
     72          1           0       22.801948    1.037050   -2.146740
     73          1           0       19.807264   -5.041909    0.476242
     74          1           0       20.317803   -4.180764   -0.893122
     75          1           0       18.976712   -5.292533   -1.141164
     76          1           0       15.900270   -3.213312    3.585745
     77          1           0       12.243756   -5.465068    3.176039
     78          1           0       12.528146   -5.695758    4.895412
     79          1           0       13.580664   -6.574359    3.798017
     80         12           0      -16.560016    0.508752    0.508730
     81          6           0      -16.459566   -2.759970   -0.602485
     82          6           0      -13.156603    0.345506    0.999095
     83          6           0      -16.550939    3.902895    1.036857
     84          6           0      -19.943447    0.627337   -0.115386
     85          7           0      -14.975391   -0.944234    0.046759
     86          6           0      -15.211379   -2.248071   -0.342349
     87          6           0      -13.920759   -3.058408   -0.428748
     88          6           0      -12.940343   -2.155462    0.408867
     89          6           0      -13.709709   -0.843080    0.445152
     90          6           0      -12.458399   -2.713185    1.824107
     91          6           0      -13.427379   -3.428310   -1.863911
     92          6           0      -12.969719   -4.859100   -2.053520
     93          1           0      -11.467350   -4.956816   -2.268328
     94          7           0      -15.057299    1.879975    0.932516
     95          6           0      -13.757698    1.623021    1.118793
     96          6           0      -13.045706    2.825686    1.514881
     97          6           0      -13.911992    3.905490    1.554013
     98          6           0      -15.237294    3.286631    1.119358
     99          6           0      -11.461401    2.850592    1.754523
    100          6           0      -13.582352    5.365805    2.013697
    101          8           0      -12.388058    5.651633    2.311312
    102          6           0      -14.615347    6.425730    2.059534
    103          7           0      -18.038117    2.163049    0.231035
    104          6           0      -17.841531    3.385363    0.668850
    105          6           0      -19.129883    4.162479    0.841111
    106          6           0      -20.289770    3.206793    0.399633
    107          6           0      -19.423309    1.869806    0.218585
    108          6           0      -19.352931    5.032504    2.119200
    109          6           0      -21.136477    3.523178   -0.867195
    110          6           0      -22.443609    2.759067   -0.911135
    111          7           0      -17.959265   -0.816273   -0.237283
    112          6           0      -19.358994   -0.660279   -0.364104
    113          6           0      -19.909451   -1.928469   -0.757992
    114          6           0      -18.817507   -2.826521   -0.840925
    115          6           0      -17.690690   -2.061050   -0.554023
    116          6           0      -21.383906   -2.300534   -0.806782
    117          6           0      -18.514045   -4.146365   -1.095948
    118          8           0      -19.121925   -5.105862   -1.485710
    119          6           0      -16.897666   -4.156207   -1.099081
    120          6           0      -16.534267   -4.151106   -2.583152
    121          8           0      -16.523722   -3.174786   -3.307907
    122          8           0      -16.246429   -5.461979   -2.927429
    123          6           0      -15.976556   -5.705187   -4.340815
    124          1           0      -12.127773    0.301344    1.361985
    125          1           0      -16.477943    4.974885    1.230097
    126          1           0      -21.019960    0.477788   -0.221143
    127          1           0      -14.070051   -3.970109    0.148985
    128          1           0      -12.113265   -1.898947   -0.254132
    129          1           0      -12.197283   -1.791281    2.343620
    130          1           0      -11.511616   -3.253022    1.794207
    131          1           0      -13.171373   -3.318918    2.383275
    132          1           0      -12.593262   -2.744255   -2.021489
    133          1           0      -14.052886   -3.112103   -2.698435
    134          1           0      -13.510645   -5.260199   -2.910922
    135          1           0      -13.190701   -5.486287   -1.189636
    136          1           0      -10.948012    1.906560    1.567128
    137          1           0      -11.233942    3.159504    2.775333
    138          1           0      -10.932366    3.489928    1.049149
    139          1           0      -15.408688    6.130823    2.745641
    140          1           0      -14.921379    6.732227    1.059195
    141          1           0      -14.143307    7.224712    2.629943
    142          1           0      -19.315099    4.936228    0.095769
    143          1           0      -20.901182    2.876646    1.239774
    144          1           0      -18.379406    5.099999    2.606743
    145          1           0      -20.168303    4.683451    2.753831
    146          1           0      -19.634337    6.065442    1.913875
    147          1           0      -20.484192    3.331732   -1.719129
    148          1           0      -21.268671    4.604634   -0.836031
    149          1           0      -23.169445    3.382594   -1.433727
    150          1           0      -22.872522    2.511196    0.060513
    151          1           0      -22.323110    1.888046   -1.555315
    152          1           0      -21.565986   -3.367699   -0.934012
    153          1           0      -21.841820   -1.724468   -1.609829
    154          1           0      -21.897179   -2.003372    0.107808
    155          1           0      -16.503761   -4.969296   -0.488529
    156          1           0      -16.879134   -5.512652   -4.921035
    157          1           0      -15.589786   -6.709038   -4.512930
    158          1           0      -15.242950   -4.983353   -4.698704
 ---------------------------------------------------------------------

 SCF Done:  E(RwB97XD) =  -4070.61760641     A.U. after   20 cycles

 Excitation energies and oscillator strengths:

 Excited State   1:      Singlet-A      1.6019 eV  773.97 nm  f=0.3995  <S**2>=0.000
     310 -> 316        0.17290
     312 -> 313        0.68565
     310 <- 316        0.11419
 This state for optimization and/or second-order correction.
 Total Energy, E(TD-HF/TD-DFT) =  -4070.55873658
 Copying the excited state density for this state as the 1-particle RhoCI density.

 Excited State   2:      Singlet-A      1.8706 eV  662.80 nm  f=0.3765  <S**2>=0.000
     309 -> 315        0.14183
     311 -> 314        0.68596

 Excited State   3:      Singlet-A      2.1364 eV  580.34 nm  f=0.1505  <S**2>=0.000
     310 -> 313        0.65482
     312 -> 316       -0.24835

 Excited State   4:      Singlet-A      2.2252 eV  557.17 nm  f=0.1257  <S**2>=0.000
     309 -> 314        0.64385
     311 -> 315       -0.24638
     311 -> 318        0.10839

 Excited State   5:      Singlet-A      3.2947 eV  376.32 nm  f=0.0030  <S**2>=0.000
     305 -> 313        0.52485
     305 -> 316       -0.13527
     305 -> 317       -0.34594
     305 -> 319       -0.20424

 The electronic state is 1-A.
 Alpha  occ. eigenvalues --  -46.95766 -46.95260 -19.29688 -19.29490 -19.25367
 Alpha  occ. eigenvalues --  -19.24734 -19.24406 -19.24189 -19.23427 -19.22660
 Alpha  occ. eigenvalues --  -14.47185 -14.46928 -14.46645 -14.45990 -14.45234
 Alpha  occ. eigenvalues --  -14.44904 -14.43959 -14.43025 -10.42964 -10.42894
 Alpha  occ. eigenvalues --  -10.41123 -10.39611 -10.39494 -10.37359 -10.37300
 Alpha  occ. eigenvalues --  -10.36539 -10.35842 -10.35648 -10.35265 -10.35134
 Alpha  occ. eigenvalues --  -10.34963 -10.34847 -10.34804 -10.34772 -10.34555
 Alpha  occ. eigenvalues --  -10.34363 -10.34347 -10.34100 -10.33838 -10.33782
 Alpha  occ. eigenvalues --  -10.33737 -10.33405 -10.33256 -10.33022 -10.32503
 Alpha  occ. eigenvalues --  -10.32428 -10.32330 -10.32314 -10.32310 -10.32242
 Alpha  occ. eigenvalues --  -10.32225 -10.32207 -10.32132 -10.32111 -10.32042
 Alpha  occ. eigenvalues --  -10.31823 -10.31631 -10.31577 -10.31575 -10.31478
 Alpha  occ. eigenvalues --  -10.31429 -10.31383 -10.31188 -10.31118 -10.31070
 Alpha  occ. eigenvalues --  -10.31051 -10.30957 -10.30897 -10.30840 -10.30807
 Alpha  occ. eigenvalues --  -10.30793 -10.30781 -10.30650 -10.30584 -10.30503
 Alpha  occ. eigenvalues --  -10.30211 -10.30131 -10.30126 -10.29886 -10.29643
 Alpha  occ. eigenvalues --  -10.29439 -10.29422 -10.29320 -10.29093 -10.28745
 Alpha  occ. eigenvalues --  -10.27004  -3.21661  -3.21272  -1.95230  -1.94832
 Alpha  occ. eigenvalues --   -1.94785  -1.94632  -1.94394  -1.94252  -1.17618
 Alpha  occ. eigenvalues --   -1.17555  -1.11942  -1.11683  -1.11464  -1.10643
 Alpha  occ. eigenvalues --   -1.10034  -1.09648  -1.06620  -1.06362  -1.05885
 Alpha  occ. eigenvalues --   -1.05484  -1.05295  -1.05237  -1.04554  -1.04132
 Alpha  occ. eigenvalues --   -0.94152  -0.93478  -0.91046  -0.91045  -0.90417
 Alpha  occ. eigenvalues --   -0.90361  -0.90115  -0.89965  -0.89283  -0.89017
 Alpha  occ. eigenvalues --   -0.88786  -0.88717  -0.87728  -0.87251  -0.86420
 Alpha  occ. eigenvalues --   -0.85706  -0.85561  -0.85229  -0.85140  -0.84093
 Alpha  occ. eigenvalues --   -0.84001  -0.82997  -0.82629  -0.82580  -0.82160
 Alpha  occ. eigenvalues --   -0.81967  -0.80674  -0.79606  -0.79115  -0.78857
 Alpha  occ. eigenvalues --   -0.78681  -0.78652  -0.77767  -0.77272  -0.77101
 Alpha  occ. eigenvalues --   -0.76940  -0.74513  -0.74367  -0.73689  -0.73044
 Alpha  occ. eigenvalues --   -0.71828  -0.71675  -0.71122  -0.71112  -0.70329
 Alpha  occ. eigenvalues --   -0.69856  -0.69525  -0.69381  -0.67557  -0.67408
 Alpha  occ. eigenvalues --   -0.67213  -0.66861  -0.66712  -0.66148  -0.66061
 Alpha  occ. eigenvalues --   -0.66039  -0.63676  -0.63636  -0.62939  -0.62048
 Alpha  occ. eigenvalues --   -0.61454  -0.61436  -0.61048  -0.60798  -0.60482
 Alpha  occ. eigenvalues --   -0.60050  -0.59770  -0.59397  -0.59333  -0.58921
 Alpha  occ. eigenvalues --   -0.58478  -0.57899  -0.57675  -0.57417  -0.56976
 Alpha  occ. eigenvalues --   -0.56790  -0.56740  -0.56097  -0.55936  -0.55857
 Alpha  occ. eigenvalues --   -0.55672  -0.55403  -0.55278  -0.55122  -0.54993
 Alpha  occ. eigenvalues --   -0.54711  -0.54684  -0.54494  -0.54279  -0.53959
 Alpha  occ. eigenvalues --   -0.53919  -0.53509  -0.53275  -0.52985  -0.52959
 Alpha  occ. eigenvalues --   -0.52674  -0.52610  -0.52508  -0.52144  -0.51998
 Alpha  occ. eigenvalues --   -0.51975  -0.51753  -0.51497  -0.51417  -0.51164
 Alpha  occ. eigenvalues --   -0.51116  -0.50994  -0.50935  -0.50672  -0.50619
 Alpha  occ. eigenvalues --   -0.50557  -0.50406  -0.50139  -0.50138  -0.49828
 Alpha  occ. eigenvalues --   -0.49674  -0.49534  -0.49355  -0.49290  -0.49181
 Alpha  occ. eigenvalues --   -0.48614  -0.48515  -0.48319  -0.48259  -0.48128
 Alpha  occ. eigenvalues --   -0.48046  -0.47928  -0.47784  -0.47390  -0.47143
 Alpha  occ. eigenvalues --   -0.47138  -0.47121  -0.46970  -0.46807  -0.46675
 Alpha  occ. eigenvalues --   -0.46608  -0.46416  -0.46273  -0.46151  -0.45988
 Alpha  occ. eigenvalues --   -0.45903  -0.45857  -0.45513  -0.45390  -0.45322
 Alpha  occ. eigenvalues --   -0.45117  -0.45098  -0.44966  -0.44788  -0.44523
 Alpha  occ. eigenvalues --   -0.44466  -0.44456  -0.44301  -0.44095  -0.43984
 Alpha  occ. eigenvalues --   -0.43867  -0.43794  -0.43570  -0.43510  -0.43507
 Alpha  occ. eigenvalues --   -0.42656  -0.42651  -0.42528  -0.42344  -0.42090
 Alpha  occ. eigenvalues --   -0.41991  -0.41772  -0.41516  -0.41239  -0.41156
 Alpha  occ. eigenvalues --   -0.40889  -0.40567  -0.40013  -0.39756  -0.39591
 Alpha  occ. eigenvalues --   -0.39278  -0.38903  -0.38608  -0.38320  -0.38268
 Alpha  occ. eigenvalues --   -0.37979  -0.37282  -0.36393  -0.36146  -0.36036
 Alpha  occ. eigenvalues --   -0.35705  -0.35346  -0.35254  -0.34496  -0.34142
 Alpha  occ. eigenvalues --   -0.33682  -0.33076  -0.32968  -0.32768  -0.32248
 Alpha  occ. eigenvalues --   -0.31648  -0.31608  -0.31165  -0.26061  -0.26039
 Alpha  occ. eigenvalues --   -0.23359  -0.23191
 Alpha virt. eigenvalues --   -0.07608  -0.06749   0.00139   0.00517   0.02004
 Alpha virt. eigenvalues --    0.02169   0.04079   0.04086   0.04673   0.04919
 Alpha virt. eigenvalues --    0.07367   0.07614   0.07765   0.08180   0.08597

 Mulliken charges:
               1
     1  Mg   0.971949
     2  C    0.006889
     3  C   -0.061551
     4  C   -0.062912
     5  C   -0.062965
     6  N   -0.337767
     7  C   -0.003247
     8  C   -0.035431
     9  C   -0.097851
    10  C    0.010316
    11  C    0.027401
    12  C   -0.006685
    13  C   -0.129130
    14  H    0.034060
    15  N   -0.495034
    16  C    0.189665
    17  C   -0.136889
    18  C   -0.054463
    19  C    0.137808
    20  C    0.059110
    21  C    0.036229
    22  O   -0.271608
    23  C   -0.007104
    24  N   -0.340720
    25  C    0.077588
    26  C   -0.129617
    27  C   -0.020073
    28  C    0.012574
    29  C    0.021337
    30  C   -0.019647
    31  C   -0.045850
    32  N   -0.429031
    33  C    0.150689
    34  C   -0.205236
    35  C    0.004379
    36  C    0.123038
    37  C    0.072287
    38  C    0.116701
    39  O   -0.207625
    40  C   -0.128339
    41  C    0.274752
    42  O   -0.237550
    43  O   -0.379796
    44  C    0.133602
    45  H   -0.002992
    46  H    0.023062
    47  H   -0.004382
    48  H    0.030735
    49  H    0.033130
    50  H    0.030663
    51  H    0.034864
    52  H    0.058446
    53  H    0.029801
    54  H    0.037227
    55  H    0.054515
    56  H    0.069159
    57  H    0.037156
    58  H    0.051129
    59  H    0.045619
    60  H    0.030981
    61  H    0.073558
    62  H    0.048624
    63  H    0.037217
    64  H    0.038787
    65  H    0.043489
    66  H    0.041867
    67  H    0.022308
    68  H    0.033296
    69  H    0.039444
    70  H    0.046926
    71  H    0.038531
    72  H    0.043011
    73  H    0.057617
    74  H    0.018522
    75  H    0.059404
    76  H    0.065537
    77  H    0.060215
    78  H    0.053689
    79  H    0.064593
    80  Mg   0.966437
    81  C   -0.041532
    82  C   -0.128788
    83  C   -0.109081
    84  C   -0.042108
    85  N   -0.333042
    86  C   -0.011378
    87  C   -0.074846
    88  C   -0.075879
    89  C    0.063462
    90  C    0.034903
    91  C    0.028425
    92  C   -0.107170
    93  H    0.024839
    94  N   -0.466015
    95  C    0.186062
    96  C   -0.153006
    97  C   -0.065528
    98  C    0.142285
    99  C    0.072278
   100  C    0.052415
   101  O   -0.254097
   102  C    0.003547
   103  N   -0.330871
   104  C    0.128576
   105  C   -0.083434
   106  C   -0.090994
   107  C    0.027200
   108  C    0.020537
   109  C    0.009886
   110  C   -0.034622
   111  N   -0.438498
   112  C    0.046347
   113  C   -0.148244
   114  C    0.002741
   115  C    0.157771
   116  C    0.059519
   117  C    0.057956
   118  O   -0.195085
   119  C   -0.117485
   120  C    0.296719
   121  O   -0.238824
   122  O   -0.364124
   123  C    0.141284
   124  H   -0.003558
   125  H   -0.019498
   126  H   -0.016833
   127  H    0.023307
   128  H    0.032781
   129  H    0.024948
   130  H    0.044702
   131  H    0.053889
   132  H    0.020249
   133  H    0.052773
   134  H    0.048267
   135  H    0.048687
   136  H    0.019570
   137  H    0.064559
   138  H    0.059420
   139  H    0.061927
   140  H    0.091313
   141  H    0.054991
   142  H    0.038378
   143  H    0.031573
   144  H    0.030205
   145  H    0.041595
   146  H    0.029131
   147  H    0.042122
   148  H    0.025804
   149  H    0.032482
   150  H    0.043081
   151  H    0.051738
   152  H    0.058607
   153  H    0.038089
   154  H    0.040759
   155  H    0.054860
   156  H    0.058163
   157  H    0.061005
   158  H    0.042369
 Sum of Mulliken charges =  -0.00000

 Dipole moment (field-independent basis, Debye):
    X=             -0.2498    Y=              8.0025    Z=              5.4130  Tot=              9.6645
 Quadrupole moment (field-independent basis, Debye-Ang):
   XX=           -490.3499   YY=           -522.2826   ZZ=           -500.6803
   XY=            -39.9392   XZ=            -24.4121   YZ=             13.1460

 Normal termination of Gaussian 16 at Sun Sep 19 04:53:45 2021.
