 Gaussian 16, Revision A.03,
 Gaussian 16:  ES64L-G16RevA.03 25-Dec-2016

 --------------------------------
 #p wB97XD/Def2SVP td=(nstates=5)
 --------------------------------

 --------------------------------
 TDDFT excited states in gaussian
 --------------------------------
 Symbolic Z-matrix:
 Charge =  0 Multiplicity = 1

                         Standard orientation:
 ---------------------------------------------------------------------
 Center     Atomic      Atomic             Coordinates (Angstroms)
 Number     Number       Type             X           Y           Z
 ---------------------------------------------------------------------
      1         12           0      -14.265367    0.396875   -0.097658
      2          6           0      -11.009940    0.856939   -1.664656
      3          6           0      -14.730286   -2.281579   -2.195110
      4          6           0      -16.368150   -0.903144    2.154157
      5          6           0      -13.692643    3.157334    1.799233
      6          7           0      -12.884929   -0.704857   -1.623300
      7          6           0      -11.615057   -0.274581   -2.152656
      8          6           0      -11.255853   -1.131046   -3.370120
      9          6           0      -12.585839   -1.849068   -3.744856
     10          6           0      -13.515402   -1.622909   -2.472591
     11          6           0      -13.285442   -1.259642   -5.059703
     12          6           0      -10.025269   -1.984396   -3.271009
     13          6           0       -9.456842   -2.256847   -1.858298
     14          1           0       -8.255342   -3.152259   -1.504622
     15          7           0      -15.517432   -1.310077   -0.091936
     16          6           0      -15.537667   -2.299580   -1.049879
     17          6           0      -16.632482   -3.258704   -0.703212
     18          6           0      -16.994341   -2.900428    0.592884
     19          6           0      -16.272291   -1.696687    0.998134
     20          6           0      -16.998508   -4.367251   -1.625336
     21          6           0      -18.009132   -3.687146    1.472627
     22          8           0      -18.453535   -4.732128    1.031487
     23          6           0      -18.364949   -3.334241    2.878785
     24          7           0      -14.778869    1.016002    1.791262
     25          6           0      -15.805355    0.339669    2.449516
     26          6           0      -16.245065    1.096921    3.702557
     27          6           0      -15.638766    2.527958    3.468459
     28          6           0      -14.701786    2.250288    2.290791
     29          6           0      -17.757588    1.157999    4.037571
     30          6           0      -14.933303    3.185875    4.697497
     31          6           0      -15.720603    4.388102    5.394010
     32          7           0      -12.729985    1.816400    0.022070
     33          6           0      -12.690544    2.954655    0.814150
     34          6           0      -11.566095    3.765775    0.416830
     35          6           0      -10.883692    2.924055   -0.471992
     36          6           0      -11.666172    1.761884   -0.682610
     37          6           0      -11.223375    5.122644    1.055945
     38          6           0       -9.747817    2.807607   -1.334220
     39          8           0       -8.877893    3.686515   -1.499033
     40          6           0       -9.818080    1.525153   -2.276308
     41          6           0       -8.508151    0.867707   -2.097481
     42          8           0       -7.952664    0.607236   -1.025055
     43          8           0       -8.093979    0.492591   -3.332480
     44          6           0       -6.694863   -0.029030   -3.432837
     45          1           0      -14.868743   -3.143162   -2.850864
     46          1           0      -17.068134   -1.333672    2.873631
     47          1           0      -13.602084    4.102248    2.338353
     48          1           0      -11.086914   -0.311412   -4.068562
     49          1           0      -12.490306   -2.934662   -3.772656
     50          1           0      -13.200723   -2.078876   -5.772590
     51          1           0      -12.779162   -0.341650   -5.359118
     52          1           0      -14.331052   -1.107252   -4.789808
     53          1           0       -9.297535   -1.541561   -3.950766
     54          1           0      -10.379852   -2.904519   -3.736700
     55          1           0      -10.306227   -2.636730   -1.289676
     56          1           0       -9.137971   -1.317198   -1.406765
     57          1           0      -16.679310   -5.283748   -1.129962
     58          1           0      -16.482305   -4.206003   -2.571234
     59          1           0      -18.067995   -4.324625   -1.834410
     60          1           0      -17.585993   -3.394831    3.637870
     61          1           0      -19.088735   -4.022478    3.314336
     62          1           0      -18.816340   -2.353904    2.726824
     63          1           0      -15.700692    0.486204    4.423754
     64          1           0      -16.477271    3.120878    3.102470
     65          1           0      -18.062480    0.445790    4.804987
     66          1           0      -18.336614    0.884200    3.156236
     67          1           0      -17.991567    2.190478    4.299360
     68          1           0      -13.925192    3.548345    4.494500
     69          1           0      -14.782658    2.354784    5.386592
     70          1           0      -15.593921    4.154760    6.450880
     71          1           0      -16.778146    4.455594    5.138320
     72          1           0      -15.275997    5.310199    5.021324
     73          1           0      -10.703709    5.826165    0.405103
     74          1           0      -10.543424    4.806711    1.846375
     75          1           0      -12.136488    5.667205    1.295316
     76          1           0      -10.004021    1.844003   -3.302965
     77          1           0       -6.486677   -0.301151   -4.468167
     78          1           0       -6.562920   -0.924079   -2.824610
     79          1           0       -6.112362    0.824533   -3.088965
     80         12           0       13.516796   -0.973572    0.294702
     81          6           0       13.836469    2.618906   -0.360517
     82          6           0       10.278111   -0.709040   -1.015594
     83          6           0       13.022498   -4.075476    1.167307
     84          6           0       16.774518   -1.032270    1.365092
     85          7           0       12.155630    0.768153   -0.381482
     86          6           0       12.520788    2.143440   -0.697944
     87          6           0       11.357413    2.980545   -1.271555
     88          6           0       10.179646    1.843485   -1.250063
     89          6           0       10.870064    0.526118   -0.845795
     90          6           0        9.004980    2.196326   -0.358451
     91          6           0       11.746163    3.586131   -2.654184
     92          6           0       10.610946    4.165089   -3.443852
     93          1           0       10.782485    5.496938   -4.139856
     94          7           0       11.857949   -2.259583    0.134435
     95          6           0       10.612970   -1.980757   -0.440778
     96          6           0        9.774110   -3.177223   -0.402450
     97          6           0       10.572896   -4.208743    0.241631
     98          6           0       11.899761   -3.563352    0.561014
     99          6           0        8.340456   -3.294087   -1.038429
    100          6           0       10.252279   -5.610962    0.615762
    101          8           0       11.035719   -6.395677    1.133636
    102          6           0        8.945475   -6.188614    0.259460
    103          7           0       14.712870   -2.345739    1.036044
    104          6           0       14.269701   -3.538124    1.438682
    105          6           0       15.383559   -4.408903    2.065885
    106          6           0       16.615655   -3.602983    1.710256
    107          6           0       16.013084   -2.178105    1.400003
    108          6           0       15.215587   -4.611981    3.567243
    109          6           0       17.576023   -4.011900    0.623562
    110          6           0       16.971457   -4.039422   -0.763978
    111          7           0       14.991380    0.470262    0.575239
    112          6           0       16.332804    0.250878    0.937048
    113          6           0       17.030133    1.513229    0.929350
    114          6           0       16.072686    2.389583    0.356759
    115          6           0       14.843357    1.729810    0.167833
    116          6           0       18.473972    1.788469    1.232861
    117          6           0       15.951529    3.798415   -0.130706
    118          8           0       16.810588    4.696793   -0.259065
    119          6           0       14.496712    3.960863   -0.565498
    120          6           0       13.853799    5.130153    0.183326
    121          8           0       13.621763    5.281522    1.419095
    122          8           0       13.400116    6.002648   -0.761282
    123          6           0       12.662000    7.178852   -0.247876
    124          1           0        9.359429   -0.668370   -1.602854
    125          1           0       12.859109   -5.094076    1.525240
    126          1           0       17.807082   -0.970455    1.715341
    127          1           0       11.253511    3.823965   -0.589016
    128          1           0        9.865734    1.644179   -2.274699
    129          1           0        8.100818    2.210304   -0.967726
    130          1           0        9.198887    3.199602    0.019277
    131          1           0        8.933381    1.691676    0.604791
    132          1           0       12.327512    2.812329   -3.156746
    133          1           0       12.468531    4.385692   -2.489441
    134          1           0        9.688103    4.374515   -2.903415
    135          1           0       10.392919    3.510682   -4.287350
    136          1           0        8.443554   -4.057595   -1.810027
    137          1           0        7.995487   -2.371196   -1.504409
    138          1           0        7.676813   -3.605653   -0.231728
    139          1           0        8.102813   -5.523141    0.448120
    140          1           0        8.871180   -7.064006    0.903693
    141          1           0        8.988096   -6.271691   -0.826108
    142          1           0       15.335095   -5.383872    1.580791
    143          1           0       17.305281   -3.516795    2.550423
    144          1           0       15.470035   -5.644041    3.805731
    145          1           0       14.187618   -4.428620    3.878084
    146          1           0       15.965792   -4.036982    4.111269
    147          1           0       18.030430   -4.958125    0.918569
    148          1           0       18.355377   -3.261970    0.489255
    149          1           0       17.238263   -4.944758   -1.307978
    150          1           0       17.338490   -3.233323   -1.399663
    151          1           0       15.882240   -3.999582   -0.780650
    152          1           0       18.921048    2.343538    0.408530
    153          1           0       19.165379    0.971784    1.440277
    154          1           0       18.493781    2.415610    2.124400
    155          1           0       14.488742    4.255365   -1.615317
    156          1           0       11.589836    7.016069   -0.355752
    157          1           0       13.115306    7.944778   -0.877155
    158          1           0       12.954797    7.443536    0.768962
 ---------------------------------------------------------------------

 SCF Done:  E(RwB97XD) =  -4070.58719453     A.U. after   19 cycles

 Excitation energies and oscillator strengths:

 Excited State   1:      Singlet-A      1.6105 eV  769.84 nm  f=0.6716  <S**2>=0.000
     309 -> 315       -0.14309
     311 -> 313       -0.31779
     312 -> 314        0.61036
 This state for optimization and/or second-order correction.
 Total Energy, E(TD-HF/TD-DFT) =  -4070.52800912
 Copying the excited state density for this state as the 1-particle RhoCI density.

 Excited State   2:      Singlet-A      1.6114 eV  769.40 nm  f=0.0873  <S**2>=0.000
     310 -> 316        0.15109
     311 -> 313        0.60856
     312 -> 314        0.31875
     310 <- 316        0.10086

 Excited State   3:      Singlet-A      2.1162 eV  585.87 nm  f=0.1337  <S**2>=0.000
     310 -> 313        0.64985
     311 -> 316       -0.25740

 Excited State   4:      Singlet-A      2.2282 eV  556.44 nm  f=0.0764  <S**2>=0.000
     309 -> 314        0.61810
     312 -> 315        0.32527

 Excited State   5:      Singlet-A      3.5691 eV  347.38 nm  f=0.0000  <S**2>=0.000
     312 -> 313        0.70704

 The electronic state is 1-A.
 Alpha  occ. eigenvalues --  -46.95739 -46.94028 -19.30898 -19.30694 -19.24522
 Alpha  occ. eigenvalues --  -19.24472 -19.24217 -19.23778 -19.23414 -19.22191
 Alpha  occ. eigenvalues --  -14.47150 -14.47066 -14.46701 -14.46282 -14.44536
 Alpha  occ. eigenvalues --  -14.44451 -14.43353 -14.43350 -10.43739 -10.43083
 Alpha  occ. eigenvalues --  -10.39599 -10.38662 -10.38567 -10.37624 -10.36152
 Alpha  occ. eigenvalues --  -10.36014 -10.35931 -10.35830 -10.35555 -10.35495
 Alpha  occ. eigenvalues --  -10.35439 -10.35095 -10.35082 -10.35053 -10.35030
 Alpha  occ. eigenvalues --  -10.34727 -10.34668 -10.34617 -10.34522 -10.33147
 Alpha  occ. eigenvalues --  -10.33136 -10.33035 -10.32942 -10.32913 -10.32899
 Alpha  occ. eigenvalues --  -10.32820 -10.32787 -10.32630 -10.32542 -10.32524
 Alpha  occ. eigenvalues --  -10.32514 -10.32514 -10.32485 -10.32370 -10.32057
 Alpha  occ. eigenvalues --  -10.31985 -10.31935 -10.31783 -10.31755 -10.31668
 Alpha  occ. eigenvalues --  -10.31536 -10.31487 -10.31474 -10.31358 -10.31351
 Alpha  occ. eigenvalues --  -10.31311 -10.31179 -10.30933 -10.30925 -10.30891
 Alpha  occ. eigenvalues --  -10.30886 -10.30773 -10.30703 -10.30313 -10.30282
 Alpha  occ. eigenvalues --  -10.30035 -10.30000 -10.29952 -10.29736 -10.29715
 Alpha  occ. eigenvalues --  -10.29657 -10.29488 -10.29420 -10.28620 -10.28302
 Alpha  occ. eigenvalues --  -10.28032  -3.21680  -3.20183  -1.95237  -1.94823
 Alpha  occ. eigenvalues --   -1.94628  -1.93784  -1.93321  -1.93161  -1.18356
 Alpha  occ. eigenvalues --   -1.18096  -1.13027  -1.12575  -1.09916  -1.09751
 Alpha  occ. eigenvalues --   -1.08964  -1.07866  -1.06981  -1.06913  -1.06115
 Alpha  occ. eigenvalues --   -1.05010  -1.04728  -1.04279  -1.02532  -1.02443
 Alpha  occ. eigenvalues --   -0.94171  -0.93975  -0.91484  -0.91340  -0.90967
 Alpha  occ. eigenvalues --   -0.90746  -0.90593  -0.90472  -0.89184  -0.88916
 Alpha  occ. eigenvalues --   -0.88882  -0.88731  -0.88083  -0.87720  -0.86594
 Alpha  occ. eigenvalues --   -0.86382  -0.85857  -0.85690  -0.84781  -0.84745
 Alpha  occ. eigenvalues --   -0.84343  -0.84200  -0.83287  -0.83021  -0.82203
 Alpha  occ. eigenvalues --   -0.81964  -0.80447  -0.80108  -0.79736  -0.79114
 Alpha  occ. eigenvalues --   -0.78627  -0.78522  -0.78014  -0.77807  -0.77374
 Alpha  occ. eigenvalues --   -0.77282  -0.75088  -0.74659  -0.73838  -0.73775
 Alpha  occ. eigenvalues --   -0.72139  -0.71633  -0.71327  -0.71060  -0.69660
 Alpha  occ. eigenvalues --   -0.69545  -0.69090  -0.69006  -0.68218  -0.67463
 Alpha  occ. eigenvalues --   -0.66964  -0.66777  -0.66584  -0.66194  -0.65729
 Alpha  occ. eigenvalues --   -0.65610  -0.64223  -0.63836  -0.62173  -0.61746
 Alpha  occ. eigenvalues --   -0.61205  -0.61117  -0.61073  -0.61002  -0.60209
 Alpha  occ. eigenvalues --   -0.60044  -0.59609  -0.59593  -0.59312  -0.59277
 Alpha  occ. eigenvalues --   -0.58849  -0.58276  -0.58223  -0.57786  -0.57380
 Alpha  occ. eigenvalues --   -0.57204  -0.57152  -0.56633  -0.56611  -0.56279
 Alpha  occ. eigenvalues --   -0.56151  -0.55729  -0.55516  -0.55353  -0.54960
 Alpha  occ. eigenvalues --   -0.54819  -0.54625  -0.54613  -0.54333  -0.54331
 Alpha  occ. eigenvalues --   -0.54010  -0.53833  -0.53460  -0.53229  -0.53078
 Alpha  occ. eigenvalues --   -0.52999  -0.52718  -0.52678  -0.52619  -0.52214
 Alpha  occ. eigenvalues --   -0.52030  -0.51971  -0.51643  -0.51616  -0.51613
 Alpha  occ. eigenvalues --   -0.51447  -0.50924  -0.50808  -0.50673  -0.50647
 Alpha  occ. eigenvalues --   -0.50464  -0.50367  -0.50345  -0.50156  -0.49946
 Alpha  occ. eigenvalues --   -0.49782  -0.49642  -0.49584  -0.49463  -0.49201
 Alpha  occ. eigenvalues --   -0.48949  -0.48865  -0.48834  -0.48620  -0.48570
 Alpha  occ. eigenvalues --   -0.48359  -0.48245  -0.48016  -0.47843  -0.47744
 Alpha  occ. eigenvalues --   -0.47507  -0.47500  -0.47309  -0.47202  -0.46991
 Alpha  occ. eigenvalues --   -0.46754  -0.46411  -0.46396  -0.46189  -0.46037
 Alpha  occ. eigenvalues --   -0.46024  -0.45943  -0.45780  -0.45487  -0.45397
 Alpha  occ. eigenvalues --   -0.45309  -0.45078  -0.44945  -0.44751  -0.44573
 Alpha  occ. eigenvalues --   -0.44517  -0.44378  -0.44318  -0.44149  -0.44049
 Alpha  occ. eigenvalues --   -0.44004  -0.43784  -0.43770  -0.43649  -0.43150
 Alpha  occ. eigenvalues --   -0.43037  -0.42878  -0.42751  -0.42329  -0.41906
 Alpha  occ. eigenvalues --   -0.41793  -0.41339  -0.41070  -0.41066  -0.40927
 Alpha  occ. eigenvalues --   -0.40725  -0.40553  -0.39441  -0.39327  -0.39233
 Alpha  occ. eigenvalues --   -0.39066  -0.38707  -0.38677  -0.38399  -0.38380
 Alpha  occ. eigenvalues --   -0.38023  -0.37913  -0.36433  -0.36223  -0.35981
 Alpha  occ. eigenvalues --   -0.35903  -0.35222  -0.35010  -0.33832  -0.33648
 Alpha  occ. eigenvalues --   -0.33242  -0.33182  -0.32510  -0.32406  -0.32216
 Alpha  occ. eigenvalues --   -0.31634  -0.31248  -0.31216  -0.26486  -0.26103
 Alpha  occ. eigenvalues --   -0.23206  -0.22665
 Alpha virt. eigenvalues --   -0.07574  -0.07006   0.00046   0.00333   0.02450
 Alpha virt. eigenvalues --    0.03061   0.04375   0.04391   0.04551   0.06331
 Alpha virt. eigenvalues --    0.06766   0.06960   0.07685   0.07775   0.08697

 Mulliken charges:
               1
     1  Mg   0.954455
     2  C   -0.033059
     3  C   -0.082896
     4  C   -0.079787
     5  C   -0.082872
     6  N   -0.368399
     7  C   -0.053461
     8  C   -0.005059
     9  C   -0.142352
    10  C    0.044479
    11  C    0.037065
    12  C    0.030786
    13  C   -0.102109
    14  H    0.036817
    15  N   -0.471152
    16  C    0.145049
    17  C   -0.159905
    18  C   -0.079472
    19  C    0.169712
    20  C    0.104934
    21  C    0.036200
    22  O   -0.227472
    23  C    0.001947
    24  N   -0.386351
    25  C    0.091740
    26  C   -0.126921
    27  C   -0.015497
    28  C    0.025587
    29  C    0.031671
    30  C   -0.022313
    31  C   -0.061805
    32  N   -0.378106
    33  C    0.092366
    34  C   -0.180550
    35  C   -0.010904
    36  C    0.118781
    37  C    0.073302
    38  C    0.083786
    39  O   -0.250835
    40  C   -0.041259
    41  C    0.265066
    42  O   -0.260899
    43  O   -0.368457
    44  C    0.138649
    45  H    0.004126
    46  H   -0.041620
    47  H   -0.008901
    48  H    0.025701
    49  H    0.039985
    50  H    0.048686
    51  H    0.050451
    52  H    0.040950
    53  H    0.031266
    54  H    0.017657
    55  H    0.047292
    56  H    0.072041
    57  H    0.073566
    58  H    0.022195
    59  H    0.061044
    60  H    0.076711
    61  H    0.049021
    62  H    0.056661
    63  H    0.052253
    64  H    0.031606
    65  H    0.041596
    66  H    0.036541
    67  H    0.042489
    68  H    0.044427
    69  H    0.024576
    70  H    0.051255
    71  H    0.035024
    72  H    0.047452
    73  H    0.051567
    74  H    0.071691
    75  H    0.038861
    76  H    0.074286
    77  H    0.059558
    78  H    0.067033
    79  H    0.072450
    80  Mg   0.975117
    81  C   -0.025842
    82  C   -0.091491
    83  C   -0.091610
    84  C   -0.077822
    85  N   -0.366192
    86  C   -0.005937
    87  C   -0.064421
    88  C   -0.111881
    89  C    0.088896
    90  C    0.051824
    91  C   -0.006024
    92  C   -0.128152
    93  H    0.029113
    94  N   -0.467548
    95  C    0.163115
    96  C   -0.170273
    97  C   -0.057419
    98  C    0.152541
    99  C    0.067176
   100  C    0.022051
   101  O   -0.243589
   102  C    0.001840
   103  N   -0.422552
   104  C    0.103894
   105  C   -0.088090
   106  C   -0.066206
   107  C    0.109904
   108  C    0.043022
   109  C    0.010294
   110  C   -0.067718
   111  N   -0.449632
   112  C    0.078790
   113  C   -0.151487
   114  C   -0.101750
   115  C    0.167284
   116  C    0.064832
   117  C    0.158534
   118  O   -0.236545
   119  C   -0.063416
   120  C    0.278958
   121  O   -0.286749
   122  O   -0.366313
   123  C    0.125343
   124  H   -0.007138
   125  H    0.021525
   126  H    0.001173
   127  H    0.052086
   128  H    0.035071
   129  H    0.045880
   130  H    0.022042
   131  H    0.048250
   132  H    0.034682
   133  H    0.058112
   134  H    0.052790
   135  H    0.055157
   136  H    0.061284
   137  H    0.044383
   138  H    0.067312
   139  H    0.027423
   140  H    0.066552
   141  H    0.059634
   142  H    0.041343
   143  H    0.013786
   144  H    0.035549
   145  H    0.048369
   146  H    0.036502
   147  H    0.035044
   148  H    0.028996
   149  H    0.028929
   150  H    0.034903
   151  H    0.040866
   152  H    0.061381
   153  H    0.026345
   154  H    0.055433
   155  H    0.079503
   156  H    0.066067
   157  H    0.060737
   158  H    0.076157
 Sum of Mulliken charges =  -0.00000

 Dipole moment (field-independent basis, Debye):
    X=             -9.0302    Y=             -2.1271    Z=             -2.8901  Tot=              9.7170
 Quadrupole moment (field-independent basis, Debye-Ang):
   XX=           -490.2940   YY=           -538.3670   ZZ=           -477.3518
   XY=            -90.0752   XZ=            -38.6147   YZ=             11.3775

 Normal termination of Gaussian 16 at Sat Sep 18 14:31:46 2021.
