 Gaussian 16, Revision A.03,
 Gaussian 16:  ES64L-G16RevA.03 25-Dec-2016

 --------------------------------
 #p wB97XD/Def2SVP td=(nstates=5)
 --------------------------------

 --------------------------------
 TDDFT excited states in gaussian
 --------------------------------
 Symbolic Z-matrix:
 Charge =  0 Multiplicity = 1

                         Standard orientation:
 ---------------------------------------------------------------------
 Center     Atomic      Atomic             Coordinates (Angstroms)
 Number     Number       Type             X           Y           Z
 ---------------------------------------------------------------------
      1         12           0      -25.610101   -0.486124   -0.287905
      2          6           0      -23.200786    1.951281   -0.528899
      3          6           0      -27.538847    1.764748    1.680125
      4          6           0      -27.812133   -2.929699    0.492905
      5          6           0      -23.646163   -2.707419   -1.856164
      6          7           0      -25.380324    1.625927    0.488362
      7          6           0      -24.275140    2.397142    0.247205
      8          6           0      -24.459198    3.811079    0.802943
      9          6           0      -25.787182    3.618337    1.671085
     10          6           0      -26.274174    2.257580    1.266932
     11          6           0      -25.582982    3.828199    3.216388
     12          6           0      -24.627182    4.927198   -0.326587
     13          6           0      -23.931680    6.265503   -0.258697
     14          1           0      -23.974660    7.021307    1.021723
     15          7           0      -27.478372   -0.590634    0.884535
     16          6           0      -28.159947    0.439475    1.432280
     17          6           0      -29.448251    0.031127    1.882809
     18          6           0      -29.576741   -1.346315    1.518412
     19          6           0      -28.216824   -1.680397    0.999422
     20          6           0      -30.299309    1.021124    2.610564
     21          6           0      -30.715940   -2.306618    1.815017
     22          8           0      -30.596463   -3.530359    1.699854
     23          6           0      -32.057538   -1.778168    2.291552
     24          7           0      -25.653985   -2.604638   -0.502280
     25          6           0      -26.741390   -3.364832   -0.207874
     26          6           0      -26.576814   -4.779599   -0.760485
     27          6           0      -25.299167   -4.633093   -1.671492
     28          6           0      -24.832167   -3.229986   -1.337786
     29          6           0      -26.563127   -6.018809    0.182577
     30          6           0      -25.488345   -4.925059   -3.218546
     31          6           0      -25.805144   -3.798008   -4.178620
     32          7           0      -23.777987   -0.466550   -0.955381
     33          6           0      -23.091799   -1.377479   -1.717767
     34          6           0      -21.791232   -0.944430   -2.078627
     35          6           0      -21.797249    0.387458   -1.676248
     36          6           0      -23.031880    0.632765   -1.021954
     37          6           0      -20.643097   -1.604867   -2.830657
     38          6           0      -21.062915    1.574348   -1.611604
     39          8           0      -19.922355    1.775095   -1.986534
     40          6           0      -21.921561    2.714076   -0.822630
     41          6           0      -21.160128    3.111074    0.355275
     42          8           0      -20.887336    2.382603    1.329903
     43          8           0      -20.697979    4.388066    0.295585
     44          6           0      -19.665351    4.813155    1.247285
     45          1           0      -28.074253    2.565185    2.194278
     46          1           0      -28.624647   -3.658879    0.480335
     47          1           0      -23.155569   -3.257061   -2.661273
     48          1           0      -23.555982    4.085086    1.349618
     49          1           0      -26.537615    4.368592    1.421374
     50          1           0      -26.237978    4.640995    3.528265
     51          1           0      -24.511301    3.992285    3.330306
     52          1           0      -25.929911    3.009793    3.847953
     53          1           0      -25.705100    5.088161   -0.302271
     54          1           0      -24.527577    4.493823   -1.321197
     55          1           0      -24.240760    6.888688   -1.097839
     56          1           0      -22.869828    6.043152   -0.357828
     57          1           0      -31.290674    0.908609    2.173179
     58          1           0      -29.981073    2.040588    2.391166
     59          1           0      -30.351757    0.909036    3.694054
     60          1           0      -32.396695   -0.886682    1.763158
     61          1           0      -32.071479   -1.744508    3.381806
     62          1           0      -32.764455   -2.558282    2.007462
     63          1           0      -27.506679   -4.936667   -1.307514
     64          1           0      -24.543692   -5.389729   -1.463046
     65          1           0      -25.561600   -6.446137    0.229786
     66          1           0      -27.236834   -6.748695   -0.265985
     67          1           0      -26.913441   -5.656833    1.148572
     68          1           0      -26.291400   -5.656677   -3.296588
     69          1           0      -24.583974   -5.383293   -3.619478
     70          1           0      -26.681854   -4.018534   -4.788049
     71          1           0      -24.980832   -3.550429   -4.848756
     72          1           0      -25.999557   -2.936663   -3.539541
     73          1           0      -20.954319   -2.599209   -3.153139
     74          1           0      -19.770784   -1.655176   -2.178526
     75          1           0      -20.400208   -0.990833   -3.697420
     76          1           0      -21.889447    3.518505   -1.558024
     77          1           0      -19.067439    5.658331    0.906011
     78          1           0      -19.037848    4.017135    1.647026
     79          1           0      -20.216216    5.278106    2.065031
     80         12           0       24.886000   -0.886221    0.191787
     81          6           0       24.482288    2.431571   -0.963300
     82          6           0       25.241630    0.363222    3.360619
     83          6           0       25.902944   -3.886220    1.158045
     84          6           0       24.983458   -1.932419   -3.146989
     85          7           0       25.025311    1.187619    1.068104
     86          6           0       24.712436    2.369932    0.392096
     87          6           0       24.493428    3.516801    1.409431
     88          6           0       24.764453    2.825390    2.795409
     89          6           0       24.996204    1.331258    2.437155
     90          6           0       25.751291    3.505596    3.728135
     91          6           0       23.136164    4.234983    1.352014
     92          6           0       23.244948    5.775240    1.182131
     93          1           0       22.544256    6.597452    2.240890
     94          7           0       25.405515   -1.652516    2.048428
     95          6           0       25.534180   -1.001701    3.240194
     96          6           0       25.762303   -1.996860    4.260684
     97          6           0       26.110050   -3.251927    3.599985
     98          6           0       25.822805   -2.920429    2.212818
     99          6           0       25.908495   -1.618741    5.824712
    100          6           0       26.844691   -4.433719    4.067848
    101          8           0       27.083241   -5.434359    3.453790
    102          6           0       27.373812   -4.366113    5.497352
    103          7           0       25.577687   -2.614846   -0.905921
    104          6           0       25.884702   -3.751371   -0.250748
    105          6           0       25.973742   -4.929697   -1.223342
    106          6           0       25.333563   -4.364356   -2.501344
    107          6           0       25.243935   -2.887864   -2.186216
    108          6           0       27.488012   -5.383279   -1.453300
    109          6           0       23.856216   -4.993323   -2.654238
    110          6           0       22.790400   -4.460232   -1.658207
    111          7           0       24.649675   -0.034366   -1.731367
    112          6           0       24.703561   -0.583638   -2.955540
    113          6           0       24.471606    0.454436   -3.923594
    114          6           0       24.333175    1.619355   -3.192546
    115          6           0       24.511765    1.307803   -1.841906
    116          6           0       24.413218    0.357372   -5.436191
    117          6           0       24.142470    3.058642   -3.391004
    118          8           0       24.083009    3.839944   -4.298195
    119          6           0       24.151429    3.638724   -1.951971
    120          6           0       25.251394    4.634729   -1.931572
    121          8           0       26.374307    4.338228   -2.254227
    122          8           0       24.833334    5.913556   -1.600283
    123          6           0       25.816210    7.021017   -1.847730
    124          1           0       25.144222    0.746946    4.378444
    125          1           0       26.119878   -4.920485    1.434575
    126          1           0       24.786924   -2.193428   -4.188988
    127          1           0       25.294992    4.245940    1.289494
    128          1           0       23.856006    2.907401    3.392468
    129          1           0       26.359517    4.234409    3.194463
    130          1           0       26.401068    2.811768    4.262110
    131          1           0       25.147535    4.088199    4.423490
    132          1           0       22.477373    4.154517    2.216681
    133          1           0       22.529806    3.848025    0.533369
    134          1           0       22.979137    6.085427    0.171625
    135          1           0       24.294547    6.042781    1.297223
    136          1           0       25.280522   -2.305295    6.392401
    137          1           0       25.565290   -0.626523    6.115204
    138          1           0       26.903825   -1.601225    6.268621
    139          1           0       26.466451   -4.275951    6.095028
    140          1           0       27.982103   -3.462580    5.524035
    141          1           0       27.890040   -5.265086    5.835607
    142          1           0       25.367213   -5.786253   -0.927259
    143          1           0       25.857532   -4.428962   -3.455218
    144          1           0       27.465479   -6.447757   -1.688189
    145          1           0       28.195820   -5.276620   -0.630574
    146          1           0       27.799983   -4.819950   -2.332616
    147          1           0       23.853743   -6.082014   -2.604611
    148          1           0       23.412882   -4.655247   -3.590961
    149          1           0       21.846297   -5.003857   -1.647289
    150          1           0       22.564388   -3.432101   -1.941441
    151          1           0       23.241622   -4.459104   -0.665452
    152          1           0       23.603906   -0.265930   -5.815787
    153          1           0       25.362293   -0.109757   -5.697849
    154          1           0       24.418139    1.333448   -5.921291
    155          1           0       23.193330    4.154083   -1.886900
    156          1           0       25.681995    7.570243   -0.915831
    157          1           0       25.541958    7.655293   -2.690486
    158          1           0       26.868319    6.794620   -2.018865
 ---------------------------------------------------------------------

 SCF Done:  E(RwB97XD) =  -4070.64233497     A.U. after   19 cycles

 Excitation energies and oscillator strengths:

 Excited State   1:      Singlet-A      1.6442 eV  754.07 nm  f=0.3983  <S**2>=0.000
     309 -> 315       -0.18142
     311 -> 313        0.68498
     309 <- 315       -0.11692
 This state for optimization and/or second-order correction.
 Total Energy, E(TD-HF/TD-DFT) =  -4070.58191191
 Copying the excited state density for this state as the 1-particle RhoCI density.

 Excited State   2:      Singlet-A      1.6605 eV  746.67 nm  f=0.4181  <S**2>=0.000
     310 -> 316       -0.18407
     312 -> 314        0.68424
     310 <- 316       -0.11634

 Excited State   3:      Singlet-A      2.1343 eV  580.90 nm  f=0.1532  <S**2>=0.000
     310 -> 314        0.65895
     312 -> 316        0.24114

 Excited State   4:      Singlet-A      2.1358 eV  580.50 nm  f=0.1519  <S**2>=0.000
     309 -> 313        0.65335
     311 -> 315        0.25161

 Excited State   5:      Singlet-A      3.3973 eV  364.95 nm  f=0.0013  <S**2>=0.000
     304 -> 313        0.14219
     306 -> 313        0.57676
     308 -> 313       -0.34233

 The electronic state is 1-A.
 Alpha  occ. eigenvalues --  -46.95868 -46.95453 -19.30360 -19.30291 -19.24646
 Alpha  occ. eigenvalues --  -19.24201 -19.23940 -19.23661 -19.23490 -19.23396
 Alpha  occ. eigenvalues --  -14.46724 -14.46712 -14.46504 -14.46131 -14.44351
 Alpha  occ. eigenvalues --  -14.44175 -14.44100 -14.43813 -10.42790 -10.42629
 Alpha  occ. eigenvalues --  -10.39370 -10.39172 -10.38546 -10.38297 -10.35568
 Alpha  occ. eigenvalues --  -10.35555 -10.35372 -10.35094 -10.34910 -10.34784
 Alpha  occ. eigenvalues --  -10.34761 -10.34750 -10.34415 -10.34249 -10.34160
 Alpha  occ. eigenvalues --  -10.34139 -10.34131 -10.33968 -10.33900 -10.33803
 Alpha  occ. eigenvalues --  -10.33357 -10.33183 -10.33005 -10.32812 -10.32541
 Alpha  occ. eigenvalues --  -10.32537 -10.32537 -10.32329 -10.32252 -10.32127
 Alpha  occ. eigenvalues --  -10.32102 -10.32084 -10.32058 -10.32046 -10.32015
 Alpha  occ. eigenvalues --  -10.31929 -10.31902 -10.31793 -10.31611 -10.31558
 Alpha  occ. eigenvalues --  -10.31533 -10.31367 -10.31350 -10.31067 -10.30984
 Alpha  occ. eigenvalues --  -10.30872 -10.30822 -10.30666 -10.30660 -10.30562
 Alpha  occ. eigenvalues --  -10.30462 -10.30344 -10.30301 -10.30164 -10.30072
 Alpha  occ. eigenvalues --  -10.30066 -10.29939 -10.29814 -10.29796 -10.29578
 Alpha  occ. eigenvalues --  -10.29450 -10.29252 -10.29092 -10.28913 -10.28850
 Alpha  occ. eigenvalues --  -10.28651  -3.21732  -3.21506  -1.95300  -1.95078
 Alpha  occ. eigenvalues --   -1.94866  -1.94691  -1.94590  -1.94520  -1.18039
 Alpha  occ. eigenvalues --   -1.17836  -1.13913  -1.13264  -1.12136  -1.11704
 Alpha  occ. eigenvalues --   -1.09815  -1.08034  -1.07411  -1.07197  -1.06707
 Alpha  occ. eigenvalues --   -1.06322  -1.06174  -1.05857  -1.05519  -1.03996
 Alpha  occ. eigenvalues --   -0.94599  -0.94336  -0.90962  -0.90762  -0.90663
 Alpha  occ. eigenvalues --   -0.90142  -0.90119  -0.90071  -0.89736  -0.89663
 Alpha  occ. eigenvalues --   -0.89380  -0.88501  -0.88382  -0.88262  -0.86328
 Alpha  occ. eigenvalues --   -0.86228  -0.85669  -0.85382  -0.84578  -0.84383
 Alpha  occ. eigenvalues --   -0.83785  -0.83137  -0.83122  -0.82810  -0.82290
 Alpha  occ. eigenvalues --   -0.82102  -0.80367  -0.80314  -0.79416  -0.79343
 Alpha  occ. eigenvalues --   -0.79045  -0.78694  -0.78173  -0.78067  -0.77442
 Alpha  occ. eigenvalues --   -0.77145  -0.75545  -0.75091  -0.73736  -0.73535
 Alpha  occ. eigenvalues --   -0.71558  -0.71275  -0.71224  -0.71193  -0.70105
 Alpha  occ. eigenvalues --   -0.70049  -0.69227  -0.69135  -0.67568  -0.67410
 Alpha  occ. eigenvalues --   -0.67276  -0.67131  -0.67118  -0.66738  -0.66443
 Alpha  occ. eigenvalues --   -0.66216  -0.64275  -0.64247  -0.62407  -0.62214
 Alpha  occ. eigenvalues --   -0.61816  -0.61683  -0.61275  -0.61074  -0.60721
 Alpha  occ. eigenvalues --   -0.60283  -0.60089  -0.59890  -0.59528  -0.59288
 Alpha  occ. eigenvalues --   -0.58248  -0.57971  -0.57342  -0.57330  -0.57152
 Alpha  occ. eigenvalues --   -0.57009  -0.56787  -0.56580  -0.56102  -0.56001
 Alpha  occ. eigenvalues --   -0.55351  -0.55238  -0.55103  -0.54918  -0.54755
 Alpha  occ. eigenvalues --   -0.54593  -0.54494  -0.54320  -0.54179  -0.54054
 Alpha  occ. eigenvalues --   -0.54028  -0.53819  -0.53459  -0.53410  -0.53204
 Alpha  occ. eigenvalues --   -0.52695  -0.52670  -0.52536  -0.52202  -0.51988
 Alpha  occ. eigenvalues --   -0.51810  -0.51732  -0.51472  -0.51426  -0.51285
 Alpha  occ. eigenvalues --   -0.51223  -0.51173  -0.51019  -0.50963  -0.50741
 Alpha  occ. eigenvalues --   -0.50682  -0.50513  -0.50330  -0.50182  -0.50178
 Alpha  occ. eigenvalues --   -0.49861  -0.49786  -0.49521  -0.49511  -0.49397
 Alpha  occ. eigenvalues --   -0.49105  -0.48948  -0.48808  -0.48435  -0.48356
 Alpha  occ. eigenvalues --   -0.48104  -0.48055  -0.48033  -0.47895  -0.47812
 Alpha  occ. eigenvalues --   -0.47809  -0.47479  -0.47244  -0.47224  -0.47032
 Alpha  occ. eigenvalues --   -0.46965  -0.46465  -0.46465  -0.45983  -0.45869
 Alpha  occ. eigenvalues --   -0.45840  -0.45585  -0.45563  -0.45347  -0.45300
 Alpha  occ. eigenvalues --   -0.45274  -0.45178  -0.44982  -0.44936  -0.44831
 Alpha  occ. eigenvalues --   -0.44381  -0.44287  -0.44196  -0.44017  -0.43931
 Alpha  occ. eigenvalues --   -0.43916  -0.43801  -0.43465  -0.43358  -0.43287
 Alpha  occ. eigenvalues --   -0.43240  -0.43042  -0.42784  -0.42503  -0.42218
 Alpha  occ. eigenvalues --   -0.41933  -0.41765  -0.41633  -0.41464  -0.40971
 Alpha  occ. eigenvalues --   -0.40420  -0.40217  -0.40158  -0.40003  -0.39796
 Alpha  occ. eigenvalues --   -0.39284  -0.39137  -0.38669  -0.38342  -0.38201
 Alpha  occ. eigenvalues --   -0.38052  -0.37688  -0.36557  -0.36391  -0.36028
 Alpha  occ. eigenvalues --   -0.35635  -0.35429  -0.35090  -0.33817  -0.33546
 Alpha  occ. eigenvalues --   -0.33256  -0.33234  -0.33041  -0.32547  -0.32459
 Alpha  occ. eigenvalues --   -0.32363  -0.32265  -0.32205  -0.26092  -0.25756
 Alpha  occ. eigenvalues --   -0.23382  -0.23283
 Alpha virt. eigenvalues --   -0.07522  -0.07470   0.00494   0.00718   0.02303
 Alpha virt. eigenvalues --    0.02607   0.04549   0.04591   0.04814   0.04931
 Alpha virt. eigenvalues --    0.06863   0.07568   0.07925   0.08546   0.09059

 Mulliken charges:
               1
     1  Mg   0.974312
     2  C   -0.004222
     3  C   -0.064977
     4  C   -0.065460
     5  C   -0.074964
     6  N   -0.330542
     7  C    0.000582
     8  C   -0.084551
     9  C   -0.117675
    10  C    0.051438
    11  C    0.025241
    12  C    0.010964
    13  C   -0.102381
    14  H    0.032742
    15  N   -0.356553
    16  C    0.129162
    17  C   -0.163750
    18  C   -0.075560
    19  C    0.100105
    20  C    0.082167
    21  C    0.043315
    22  O   -0.246912
    23  C   -0.017102
    24  N   -0.351544
    25  C    0.050221
    26  C   -0.080603
    27  C   -0.041568
    28  C    0.061736
    29  C    0.035324
    30  C   -0.057995
    31  C   -0.043081
    32  N   -0.478433
    33  C    0.099408
    34  C   -0.189105
    35  C    0.040975
    36  C    0.137974
    37  C    0.096937
    38  C    0.037753
    39  O   -0.207917
    40  C   -0.055969
    41  C    0.260081
    42  O   -0.281285
    43  O   -0.359691
    44  C    0.146636
    45  H   -0.010874
    46  H    0.017286
    47  H   -0.000400
    48  H    0.049036
    49  H    0.042636
    50  H    0.031659
    51  H    0.050423
    52  H    0.040576
    53  H    0.012375
    54  H    0.032268
    55  H    0.056007
    56  H    0.054346
    57  H    0.030638
    58  H    0.036839
    59  H    0.063568
    60  H    0.053827
    61  H    0.071506
    62  H    0.050432
    63  H    0.036346
    64  H    0.036880
    65  H    0.036514
    66  H    0.040348
    67  H    0.051418
    68  H    0.029697
    69  H    0.029346
    70  H    0.038458
    71  H    0.037291
    72  H    0.035916
    73  H    0.026410
    74  H    0.066813
    75  H    0.060964
    76  H    0.060682
    77  H    0.053413
    78  H    0.075486
    79  H    0.036637
    80  Mg   0.945773
    81  C   -0.040750
    82  C   -0.093366
    83  C   -0.065168
    84  C   -0.068594
    85  N   -0.371818
    86  C    0.009246
    87  C   -0.037959
    88  C   -0.103043
    89  C    0.075188
    90  C    0.021436
    91  C    0.015409
    92  C   -0.141985
    93  H    0.025736
    94  N   -0.445200
    95  C    0.174565
    96  C   -0.128283
    97  C   -0.081821
    98  C    0.149750
    99  C    0.017940
   100  C    0.023441
   101  O   -0.210412
   102  C   -0.006094
   103  N   -0.331027
   104  C    0.048505
   105  C   -0.089210
   106  C   -0.066829
   107  C    0.055946
   108  C    0.021709
   109  C   -0.041371
   110  C   -0.066636
   111  N   -0.411815
   112  C    0.080803
   113  C   -0.175941
   114  C   -0.085194
   115  C    0.178006
   116  C    0.073474
   117  C    0.147817
   118  O   -0.174267
   119  C   -0.066793
   120  C    0.252437
   121  O   -0.231241
   122  O   -0.382136
   123  C    0.126259
   124  H   -0.009975
   125  H    0.025874
   126  H   -0.003889
   127  H    0.040956
   128  H    0.033983
   129  H    0.030236
   130  H    0.043336
   131  H    0.031389
   132  H    0.042771
   133  H    0.033022
   134  H    0.067835
   135  H    0.036356
   136  H    0.049011
   137  H    0.027039
   138  H    0.053840
   139  H    0.041820
   140  H    0.056554
   141  H    0.049665
   142  H    0.042168
   143  H    0.039936
   144  H    0.039814
   145  H    0.057652
   146  H    0.036719
   147  H    0.045249
   148  H    0.027658
   149  H    0.048372
   150  H    0.041073
   151  H    0.039467
   152  H    0.051892
   153  H    0.041777
   154  H    0.060839
   155  H    0.062993
   156  H    0.052999
   157  H    0.061568
   158  H    0.073517
 Sum of Mulliken charges =  -0.00000

 Dipole moment (field-independent basis, Debye):
    X=             -5.9158    Y=              1.9840    Z=              1.4420  Tot=              6.4041
 Quadrupole moment (field-independent basis, Debye-Ang):
   XX=           -434.7034   YY=           -487.1245   ZZ=           -492.2745
   XY=            -62.7801   XZ=             93.1965   YZ=             49.8351

 Normal termination of Gaussian 16 at Mon Sep 20 21:07:54 2021.
