 Gaussian 16, Revision A.03,
 Gaussian 16:  ES64L-G16RevA.03 25-Dec-2016

 --------------------------------
 #p wB97XD/Def2SVP td=(nstates=5)
 --------------------------------

 --------------------------------
 TDDFT excited states in gaussian
 --------------------------------
 Symbolic Z-matrix:
 Charge =  0 Multiplicity = 1

                         Standard orientation:
 ---------------------------------------------------------------------
 Center     Atomic      Atomic             Coordinates (Angstroms)
 Number     Number       Type             X           Y           Z
 ---------------------------------------------------------------------
      1         12           0       20.362011   -0.052059   -0.649250
      2          6           0       17.786639    0.791322    1.721060
      3          6           0       20.874416   -2.895200    1.169495
      4          6           0       22.956479   -0.678239   -2.681023
      5          6           0       19.998018    3.045606   -1.999488
      6          7           0       19.340483   -0.987199    1.284566
      7          6           0       18.307064   -0.436248    1.985232
      8          6           0       17.859759   -1.447451    2.971500
      9          6           0       18.921409   -2.580239    2.907792
     10          6           0       19.856210   -2.166675    1.738353
     11          6           0       19.724280   -2.701410    4.242023
     12          6           0       16.447598   -1.950317    2.805123
     13          6           0       15.829928   -2.803457    3.901288
     14          1           0       14.493311   -2.411402    4.374232
     15          7           0       21.634762   -1.608169   -0.807216
     16          6           0       21.760837   -2.677035    0.122525
     17          6           0       22.755953   -3.607770   -0.442355
     18          6           0       23.385300   -2.914152   -1.472751
     19          6           0       22.689498   -1.627450   -1.655551
     20          6           0       23.050686   -4.938007    0.218781
     21          6           0       24.544879   -3.354870   -2.392027
     22          8           0       25.182768   -2.581441   -3.130692
     23          6           0       24.879732   -4.790545   -2.399511
     24          7           0       21.415059    1.053671   -2.118184
     25          6           0       22.428325    0.629595   -2.845206
     26          6           0       22.954519    1.690840   -3.850165
     27          6           0       21.839666    2.735785   -3.767141
     28          6           0       21.015745    2.237203   -2.602113
     29          6           0       24.350492    2.252501   -3.416381
     30          6           0       21.005795    2.946305   -5.010813
     31          6           0       20.675316    4.402924   -5.381840
     32          7           0       19.093111    1.527567   -0.288221
     33          6           0       19.070477    2.735130   -0.951203
     34          6           0       17.970097    3.611237   -0.447358
     35          6           0       17.516834    2.830944    0.597138
     36          6           0       18.227624    1.629444    0.704241
     37          6           0       17.442113    4.879447   -1.037168
     38          6           0       16.525930    2.825456    1.663230
     39          8           0       15.672012    3.673901    1.894898
     40          6           0       16.644310    1.500384    2.450644
     41          6           0       16.724879    1.858047    3.843882
     42          8           0       17.722085    2.322862    4.446917
     43          8           0       15.597100    1.464026    4.497586
     44          6           0       15.590628    1.481917    5.944078
     45          1           0       20.992784   -3.848072    1.689075
     46          1           0       23.892619   -0.801371   -3.229317
     47          1           0       20.120523    4.076451   -2.337756
     48          1           0       17.950918   -0.914837    3.917226
     49          1           0       18.476858   -3.556431    2.713309
     50          1           0       19.860734   -3.640621    4.779017
     51          1           0       19.199578   -2.034916    4.926365
     52          1           0       20.710463   -2.236480    4.231789
     53          1           0       16.364470   -2.614658    1.944816
     54          1           0       15.780224   -1.174391    2.431111
     55          1           0       16.460219   -2.804203    4.789314
     56          1           0       15.584550   -3.749872    3.420126
     57          1           0       24.112339   -5.156002    0.332958
     58          1           0       22.600013   -5.793126   -0.284568
     59          1           0       22.712187   -5.021965    1.251776
     60          1           0       23.963124   -5.356522   -2.566254
     61          1           0       25.247962   -4.945887   -1.386020
     62          1           0       25.511908   -4.952437   -3.271802
     63          1           0       22.990067    1.194972   -4.820795
     64          1           0       22.144409    3.739660   -3.472771
     65          1           0       24.286659    3.298001   -3.116248
     66          1           0       25.059190    2.234238   -4.244356
     67          1           0       24.653364    1.641747   -2.565746
     68          1           0       20.070264    2.389342   -4.970011
     69          1           0       21.497560    2.328710   -5.761675
     70          1           0       20.545181    4.427317   -6.463331
     71          1           0       21.387122    5.120723   -4.973000
     72          1           0       19.741092    4.547442   -4.839624
     73          1           0       16.530326    4.756363   -1.621927
     74          1           0       18.294088    5.336142   -1.540017
     75          1           0       17.318690    5.617330   -0.243481
     76          1           0       15.659586    1.042951    2.355282
     77          1           0       16.553808    1.711715    6.400462
     78          1           0       15.158438    0.562373    6.337783
     79          1           0       14.913660    2.239353    6.340046
     80         12           0      -20.540498    0.261028    0.118339
     81          6           0      -18.541054   -2.552016   -0.279337
     82          6           0      -17.707747    1.764834    1.707563
     83          6           0      -22.126811    3.140054    0.128363
     84          6           0      -22.874884   -1.179475   -2.080142
     85          7           0      -18.354691   -0.303195    0.529689
     86          6           0      -17.838507   -1.565300    0.338845
     87          6           0      -16.377914   -1.611644    0.795778
     88          6           0      -16.275173   -0.321553    1.655625
     89          6           0      -17.494270    0.469238    1.259698
     90          6           0      -16.209997   -0.465636    3.226855
     91          6           0      -15.380722   -1.649075   -0.373932
     92          6           0      -13.963725   -1.865495   -0.001867
     93          1           0      -13.006009   -2.430810   -1.119138
     94          7           0      -20.001186    2.225346    0.813806
     95          6           0      -18.817462    2.623922    1.454147
     96          6           0      -18.933630    4.019124    1.775112
     97          6           0      -20.173103    4.479220    1.195341
     98          6           0      -20.849289    3.234540    0.690441
     99          6           0      -17.796017    4.826325    2.459333
    100          6           0      -20.615551    5.945130    1.243706
    101          8           0      -20.015929    6.778375    1.902620
    102          6           0      -21.811353    6.359783    0.474545
    103          7           0      -22.372450    0.798791   -0.670725
    104          6           0      -22.818076    2.045857   -0.484397
    105          6           0      -24.143446    2.269421   -1.319362
    106          6           0      -24.397861    0.920269   -2.095419
    107          6           0      -23.073591    0.103580   -1.625028
    108          6           0      -25.383510    2.815619   -0.564008
    109          6           0      -24.404286    1.172799   -3.618307
    110          6           0      -25.279878    0.215071   -4.435492
    111          7           0      -20.751385   -1.504556   -0.998703
    112          6           0      -21.787033   -2.008982   -1.734309
    113          6           0      -21.477329   -3.402262   -2.076840
    114          6           0      -20.285518   -3.662734   -1.455456
    115          6           0      -19.837691   -2.498104   -0.874306
    116          6           0      -22.391983   -4.369762   -2.834935
    117          6           0      -19.283699   -4.667304   -1.260954
    118          8           0      -19.221278   -5.823977   -1.597989
    119          6           0      -18.112569   -3.989623   -0.474034
    120          6           0      -18.010504   -4.665929    0.848327
    121          8           0      -18.901443   -4.888696    1.620372
    122          8           0      -16.651874   -4.889249    1.131489
    123          6           0      -16.372333   -5.466438    2.415487
    124          1           0      -16.828704    2.100386    2.260932
    125          1           0      -22.777519    4.015671    0.071377
    126          1           0      -23.613010   -1.683801   -2.707462
    127          1           0      -16.304699   -2.466857    1.466238
    128          1           0      -15.451936    0.348997    1.411652
    129          1           0      -15.340542    0.128260    3.507897
    130          1           0      -16.408150   -1.447604    3.657316
    131          1           0      -17.052352    0.103288    3.620110
    132          1           0      -15.289131   -0.724617   -0.944744
    133          1           0      -15.683260   -2.410617   -1.092783
    134          1           0      -13.966470   -2.542591    0.852318
    135          1           0      -13.553099   -0.929778    0.377102
    136          1           0      -17.461481    5.362249    1.570519
    137          1           0      -16.918716    4.253974    2.761444
    138          1           0      -17.961510    5.518325    3.285280
    139          1           0      -21.649458    5.950994   -0.522835
    140          1           0      -21.805847    7.446690    0.391082
    141          1           0      -22.634713    5.900709    1.022300
    142          1           0      -23.903351    3.056148   -2.035123
    143          1           0      -25.288202    0.370748   -1.791430
    144          1           0      -25.520446    3.858212   -0.852732
    145          1           0      -25.243607    2.641715    0.502381
    146          1           0      -26.283546    2.321239   -0.929497
    147          1           0      -23.359250    1.093353   -3.916703
    148          1           0      -24.653245    2.196527   -3.898488
    149          1           0      -25.960977    0.891790   -4.952632
    150          1           0      -25.778120   -0.556988   -3.849029
    151          1           0      -24.685009   -0.276953   -5.205096
    152          1           0      -21.920118   -4.979917   -3.604389
    153          1           0      -23.142997   -3.691920   -3.241347
    154          1           0      -22.956845   -4.905734   -2.072036
    155          1           0      -17.214076   -4.145495   -1.071244
    156          1           0      -16.040596   -6.487445    2.226592
    157          1           0      -17.154031   -5.487639    3.175208
    158          1           0      -15.568387   -4.882844    2.863212
 ---------------------------------------------------------------------

 SCF Done:  E(RwB97XD) =  -4070.62228793     A.U. after   19 cycles

 Excitation energies and oscillator strengths:

 Excited State   1:      Singlet-A      1.6935 eV  732.13 nm  f=0.3677  <S**2>=0.000
     310 -> 316        0.20451
     312 -> 314        0.67922
     310 <- 316        0.12253
 This state for optimization and/or second-order correction.
 Total Energy, E(TD-HF/TD-DFT) =  -4070.56005413
 Copying the excited state density for this state as the 1-particle RhoCI density.

 Excited State   2:      Singlet-A      1.7224 eV  719.84 nm  f=0.4032  <S**2>=0.000
     309 -> 315       -0.17622
     311 -> 313        0.68535
     309 <- 315       -0.11113

 Excited State   3:      Singlet-A      2.2425 eV  552.89 nm  f=0.1151  <S**2>=0.000
     309 -> 313        0.63516
     311 -> 315        0.29256

 Excited State   4:      Singlet-A      2.2627 eV  547.96 nm  f=0.0701  <S**2>=0.000
     310 -> 314        0.61590
     312 -> 316       -0.33993

 Excited State   5:      Singlet-A      3.2981 eV  375.93 nm  f=0.0028  <S**2>=0.000
     301 -> 313       -0.12822
     307 -> 313       -0.39719
     308 -> 313        0.53215
     311 -> 315        0.11698

 The electronic state is 1-A.
 Alpha  occ. eigenvalues --  -46.96007 -46.94855 -19.30421 -19.30175 -19.25405
 Alpha  occ. eigenvalues --  -19.24088 -19.23837 -19.23754 -19.23688 -19.23527
 Alpha  occ. eigenvalues --  -14.47227 -14.46969 -14.46486 -14.45722 -14.44862
 Alpha  occ. eigenvalues --  -14.44403 -14.44204 -14.43652 -10.43335 -10.43011
 Alpha  occ. eigenvalues --  -10.39234 -10.38856 -10.38494 -10.38115 -10.36450
 Alpha  occ. eigenvalues --  -10.35715 -10.35335 -10.35192 -10.35056 -10.34971
 Alpha  occ. eigenvalues --  -10.34954 -10.34804 -10.34617 -10.34597 -10.34573
 Alpha  occ. eigenvalues --  -10.34545 -10.34474 -10.34451 -10.34097 -10.33791
 Alpha  occ. eigenvalues --  -10.33209 -10.33161 -10.32551 -10.32549 -10.32389
 Alpha  occ. eigenvalues --  -10.32325 -10.32273 -10.32270 -10.32242 -10.32238
 Alpha  occ. eigenvalues --  -10.32183 -10.32151 -10.32046 -10.32031 -10.32013
 Alpha  occ. eigenvalues --  -10.31944 -10.31901 -10.31768 -10.31733 -10.31611
 Alpha  occ. eigenvalues --  -10.31508 -10.31444 -10.31433 -10.31270 -10.31123
 Alpha  occ. eigenvalues --  -10.31042 -10.30976 -10.30890 -10.30707 -10.30490
 Alpha  occ. eigenvalues --  -10.30397 -10.30324 -10.30239 -10.30145 -10.30103
 Alpha  occ. eigenvalues --  -10.29978 -10.29972 -10.29873 -10.29856 -10.29850
 Alpha  occ. eigenvalues --  -10.29849 -10.29780 -10.29574 -10.29431 -10.28657
 Alpha  occ. eigenvalues --  -10.27927  -3.21884  -3.20891  -1.95476  -1.95008
 Alpha  occ. eigenvalues --   -1.94838  -1.94492  -1.94010  -1.93872  -1.18763
 Alpha  occ. eigenvalues --   -1.18325  -1.12528  -1.12375  -1.11729  -1.11291
 Alpha  occ. eigenvalues --   -1.11021  -1.08172  -1.07781  -1.06629  -1.06595
 Alpha  occ. eigenvalues --   -1.05836  -1.05732  -1.05101  -1.04864  -1.04247
 Alpha  occ. eigenvalues --   -0.95218  -0.95173  -0.91962  -0.91283  -0.91201
 Alpha  occ. eigenvalues --   -0.91179  -0.90708  -0.90426  -0.90016  -0.89552
 Alpha  occ. eigenvalues --   -0.89020  -0.88590  -0.88420  -0.87898  -0.87147
 Alpha  occ. eigenvalues --   -0.86641  -0.85967  -0.85916  -0.85084  -0.84832
 Alpha  occ. eigenvalues --   -0.84541  -0.84522  -0.83239  -0.83211  -0.82875
 Alpha  occ. eigenvalues --   -0.82823  -0.80645  -0.79711  -0.79659  -0.79387
 Alpha  occ. eigenvalues --   -0.79264  -0.79065  -0.78496  -0.78129  -0.77492
 Alpha  occ. eigenvalues --   -0.77194  -0.75208  -0.75001  -0.74034  -0.73941
 Alpha  occ. eigenvalues --   -0.71468  -0.71309  -0.71239  -0.70982  -0.70054
 Alpha  occ. eigenvalues --   -0.69753  -0.68758  -0.68542  -0.68340  -0.67989
 Alpha  occ. eigenvalues --   -0.67554  -0.67385  -0.67121  -0.66964  -0.66614
 Alpha  occ. eigenvalues --   -0.66579  -0.64670  -0.64550  -0.62404  -0.62305
 Alpha  occ. eigenvalues --   -0.61912  -0.61873  -0.61505  -0.61292  -0.60788
 Alpha  occ. eigenvalues --   -0.60774  -0.60447  -0.60377  -0.59637  -0.59564
 Alpha  occ. eigenvalues --   -0.58495  -0.58484  -0.57830  -0.57711  -0.57534
 Alpha  occ. eigenvalues --   -0.57449  -0.56831  -0.56384  -0.56315  -0.55974
 Alpha  occ. eigenvalues --   -0.55946  -0.55841  -0.55521  -0.55431  -0.55274
 Alpha  occ. eigenvalues --   -0.55140  -0.55101  -0.54895  -0.54574  -0.53923
 Alpha  occ. eigenvalues --   -0.53848  -0.53811  -0.53655  -0.53652  -0.53612
 Alpha  occ. eigenvalues --   -0.53140  -0.52805  -0.52731  -0.52649  -0.52463
 Alpha  occ. eigenvalues --   -0.52299  -0.52233  -0.52199  -0.51876  -0.51795
 Alpha  occ. eigenvalues --   -0.51598  -0.51242  -0.51019  -0.50966  -0.50826
 Alpha  occ. eigenvalues --   -0.50614  -0.50325  -0.50279  -0.50241  -0.50062
 Alpha  occ. eigenvalues --   -0.49892  -0.49771  -0.49479  -0.49328  -0.49307
 Alpha  occ. eigenvalues --   -0.49174  -0.49083  -0.48988  -0.48987  -0.48480
 Alpha  occ. eigenvalues --   -0.48413  -0.48333  -0.48169  -0.48079  -0.47980
 Alpha  occ. eigenvalues --   -0.47780  -0.47525  -0.47297  -0.47103  -0.47025
 Alpha  occ. eigenvalues --   -0.47023  -0.46637  -0.46477  -0.46079  -0.45890
 Alpha  occ. eigenvalues --   -0.45863  -0.45846  -0.45643  -0.45643  -0.45350
 Alpha  occ. eigenvalues --   -0.45289  -0.45159  -0.45078  -0.44878  -0.44636
 Alpha  occ. eigenvalues --   -0.44477  -0.44364  -0.44333  -0.44237  -0.44087
 Alpha  occ. eigenvalues --   -0.43993  -0.43820  -0.43686  -0.43659  -0.43520
 Alpha  occ. eigenvalues --   -0.43408  -0.43225  -0.42990  -0.42778  -0.42489
 Alpha  occ. eigenvalues --   -0.42151  -0.42057  -0.41824  -0.41792  -0.41599
 Alpha  occ. eigenvalues --   -0.40730  -0.40723  -0.40119  -0.39854  -0.39662
 Alpha  occ. eigenvalues --   -0.39235  -0.38891  -0.38530  -0.38031  -0.38022
 Alpha  occ. eigenvalues --   -0.37925  -0.37680  -0.37198  -0.36271  -0.35920
 Alpha  occ. eigenvalues --   -0.35896  -0.35507  -0.35178  -0.33989  -0.33791
 Alpha  occ. eigenvalues --   -0.33053  -0.33001  -0.32769  -0.32609  -0.32546
 Alpha  occ. eigenvalues --   -0.32450  -0.32259  -0.32123  -0.26608  -0.26017
 Alpha  occ. eigenvalues --   -0.23483  -0.22737
 Alpha virt. eigenvalues --   -0.07371  -0.06522  -0.00023   0.00086   0.02775
 Alpha virt. eigenvalues --    0.02990   0.04607   0.04829   0.05208   0.06117
 Alpha virt. eigenvalues --    0.06668   0.06956   0.07583   0.08117   0.08534

 Mulliken charges:
               1
     1  Mg   0.974763
     2  C    0.002806
     3  C   -0.074067
     4  C   -0.058857
     5  C   -0.108664
     6  N   -0.330769
     7  C   -0.063298
     8  C    0.015595
     9  C   -0.121685
    10  C    0.063865
    11  C    0.011230
    12  C    0.011755
    13  C   -0.119971
    14  H    0.035277
    15  N   -0.515938
    16  C    0.190010
    17  C   -0.128856
    18  C   -0.091685
    19  C    0.167242
    20  C    0.036557
    21  C    0.055280
    22  O   -0.254774
    23  C    0.008633
    24  N   -0.326241
    25  C   -0.014137
    26  C   -0.060070
    27  C   -0.104830
    28  C    0.037521
    29  C    0.034228
    30  C    0.005189
    31  C   -0.035290
    32  N   -0.421220
    33  C    0.133036
    34  C   -0.209205
    35  C   -0.009013
    36  C    0.152844
    37  C    0.108964
    38  C    0.073370
    39  O   -0.209209
    40  C   -0.032211
    41  C    0.264724
    42  O   -0.283622
    43  O   -0.351476
    44  C    0.134895
    45  H   -0.012346
    46  H    0.030660
    47  H    0.003598
    48  H    0.033953
    49  H    0.037522
    50  H    0.041028
    51  H    0.017658
    52  H    0.035933
    53  H    0.014286
    54  H    0.025734
    55  H    0.056582
    56  H    0.056721
    57  H    0.040396
    58  H    0.054035
    59  H    0.038977
    60  H    0.053176
    61  H    0.060451
    62  H    0.061941
    63  H    0.043784
    64  H    0.028144
    65  H    0.033573
    66  H    0.048039
    67  H    0.054512
    68  H    0.023074
    69  H    0.008880
    70  H    0.052204
    71  H    0.038550
    72  H    0.041116
    73  H    0.077465
    74  H    0.017113
    75  H    0.049439
    76  H    0.080853
    77  H    0.066845
    78  H    0.047326
    79  H    0.046080
    80  Mg   0.953853
    81  C   -0.018623
    82  C   -0.078143
    83  C   -0.102373
    84  C   -0.070895
    85  N   -0.331698
    86  C   -0.062315
    87  C    0.031510
    88  C   -0.153782
    89  C    0.038885
    90  C    0.036050
    91  C    0.038147
    92  C   -0.109477
    93  H    0.041391
    94  N   -0.434332
    95  C    0.181804
    96  C   -0.135632
    97  C   -0.121033
    98  C    0.236272
    99  C    0.062961
   100  C    0.024843
   101  O   -0.229544
   102  C    0.002112
   103  N   -0.396502
   104  C    0.068724
   105  C   -0.119373
   106  C   -0.097024
   107  C    0.094255
   108  C    0.022075
   109  C   -0.030756
   110  C   -0.043159
   111  N   -0.425283
   112  C    0.086148
   113  C   -0.233697
   114  C    0.018457
   115  C    0.142656
   116  C    0.107337
   117  C    0.094421
   118  O   -0.186608
   119  C   -0.073836
   120  C    0.260049
   121  O   -0.213139
   122  O   -0.378406
   123  C    0.124748
   124  H   -0.006334
   125  H   -0.019688
   126  H   -0.006021
   127  H    0.020794
   128  H    0.031416
   129  H    0.043474
   130  H    0.049271
   131  H    0.029125
   132  H    0.029842
   133  H    0.035463
   134  H    0.036413
   135  H    0.039831
   136  H    0.058614
   137  H    0.019624
   138  H    0.074545
   139  H    0.052385
   140  H    0.058036
   141  H    0.078959
   142  H    0.040409
   143  H    0.042179
   144  H    0.035914
   145  H    0.050039
   146  H    0.035375
   147  H    0.033117
   148  H    0.030003
   149  H    0.038270
   150  H    0.042307
   151  H    0.038956
   152  H    0.070594
   153  H    0.005420
   154  H    0.058157
   155  H    0.072894
   156  H    0.057096
   157  H    0.062218
   158  H    0.040233
 Sum of Mulliken charges =  -0.00000

 Dipole moment (field-independent basis, Debye):
    X=             -0.4863    Y=             -1.5818    Z=             -1.0909  Tot=              1.9820
 Quadrupole moment (field-independent basis, Debye-Ang):
   XX=           -435.1953   YY=           -542.2567   ZZ=           -491.3093
   XY=           -139.2746   XZ=             -4.6160   YZ=            -48.2560

 Normal termination of Gaussian 16 at Mon Sep 20 04:38:04 2021.
