 Gaussian 16, Revision A.03,
 Gaussian 16:  ES64L-G16RevA.03 25-Dec-2016

 --------------------------------
 #p wB97XD/Def2SVP td=(nstates=5)
 --------------------------------

 --------------------------------
 TDDFT excited states in gaussian
 --------------------------------
 Symbolic Z-matrix:
 Charge =  0 Multiplicity = 1

                         Standard orientation:
 ---------------------------------------------------------------------
 Center     Atomic      Atomic             Coordinates (Angstroms)
 Number     Number       Type             X           Y           Z
 ---------------------------------------------------------------------
      1         12           0       12.702546    0.370649    0.370850
      2          6           0        9.255771   -0.254289   -0.380165
      3          6           0       13.182200    0.621603   -3.114910
      4          6           0       15.942405    0.242113    0.807836
      5          6           0       12.057074   -0.267226    3.647884
      6          7           0       11.338408    0.248042   -1.493960
      7          6           0        9.992674    0.094728   -1.465822
      8          6           0        9.451174    0.303079   -2.870530
      9          6           0       10.652093    0.617777   -3.806436
     10          6           0       11.789377    0.528249   -2.770700
     11          6           0       10.780644   -0.402741   -5.072951
     12          6           0        8.386478    1.479424   -2.950915
     13          6           0        7.087541    1.176685   -3.698615
     14          1           0        7.071439    0.199071   -4.941537
     15          7           0       14.352139    0.372131   -0.988770
     16          6           0       14.319880    0.505900   -2.297750
     17          6           0       15.677192    0.477844   -2.765048
     18          6           0       16.568618    0.518068   -1.663068
     19          6           0       15.647010    0.339481   -0.571793
     20          6           0       16.051932    0.714003   -4.227224
     21          6           0       18.060443    0.770469   -1.510962
     22          8           0       18.640899    0.688952   -0.443983
     23          6           0       18.789525    1.194297   -2.756254
     24          7           0       13.819639   -0.317605    1.944157
     25          6           0       15.193033   -0.066836    1.943395
     26          6           0       15.819436   -0.102645    3.363902
     27          6           0       14.497353   -0.104196    4.220317
     28          6           0       13.359358   -0.235638    3.208182
     29          6           0       16.729458   -1.328303    3.529980
     30          6           0       14.258336    1.255806    5.031823
     31          6           0       14.483373    1.253084    6.506732
     32          7           0       11.040777   -0.032208    1.443025
     33          6           0       10.942414   -0.303310    2.790679
     34          6           0        9.595883   -0.702776    3.191346
     35          6           0        8.866427   -0.695283    1.949164
     36          6           0        9.803700   -0.410295    0.928291
     37          6           0        9.147470   -0.832471    4.602035
     38          6           0        7.550537   -0.816848    1.340727
     39          8           0        6.472683   -1.040595    1.921239
     40          6           0        7.748907   -0.558359   -0.259658
     41          6           0        7.339723   -1.803132   -0.890733
     42          8           0        7.825586   -2.881856   -0.629507
     43          8           0        6.375413   -1.600416   -1.796260
     44          6           0        5.735901   -2.725439   -2.547991
     45          1           0       13.376969    0.781840   -4.177299
     46          1           0       16.933119    0.599413    1.098671
     47          1           0       11.884032   -0.380662    4.719846
     48          1           0        9.008365   -0.642203   -3.184359
     49          1           0       10.539247    1.580471   -4.305310
     50          1           0        9.821517   -0.872074   -5.292029
     51          1           0       11.540037   -1.124524   -4.771084
     52          1           0       11.143022    0.139959   -5.945873
     53          1           0        8.770523    2.425470   -3.330039
     54          1           0        8.054260    1.729476   -1.943413
     55          1           0        6.597313    2.089473   -4.037792
     56          1           0        6.441078    0.797469   -2.907165
     57          1           0       16.336797    1.741327   -4.454894
     58          1           0       15.291928    0.324360   -4.905150
     59          1           0       16.910201    0.071847   -4.423692
     60          1           0       18.256754    1.906289   -3.387309
     61          1           0       19.072760    0.378768   -3.420212
     62          1           0       19.632529    1.824485   -2.472747
     63          1           0       16.408584    0.806644    3.479897
     64          1           0       14.555199   -0.937616    4.920559
     65          1           0       16.940224   -1.863493    2.604206
     66          1           0       16.284045   -2.073461    4.188170
     67          1           0       17.672947   -1.015499    3.978485
     68          1           0       13.253437    1.669208    4.946119
     69          1           0       14.837575    2.088171    4.633836
     70          1           0       15.303895    1.921864    6.763534
     71          1           0       14.739070    0.213386    6.711897
     72          1           0       13.588357    1.589202    7.030163
     73          1           0        8.110517   -0.519568    4.719372
     74          1           0        9.881747   -0.298247    5.204698
     75          1           0        9.214377   -1.892068    4.852535
     76          1           0        7.113864    0.249745   -0.620183
     77          1           0        5.420742   -3.496505   -1.844729
     78          1           0        6.412522   -3.187615   -3.267214
     79          1           0        4.932973   -2.407875   -3.212671
     80         12           0      -12.188770   -0.644952   -0.565393
     81          6           0      -12.234104    2.880138   -0.581338
     82          6           0       -8.808654   -0.476421   -0.957276
     83          6           0      -12.054197   -3.971441    0.207792
     84          6           0      -15.626440   -0.468755    0.357319
     85          7           0      -10.653905    1.053334   -0.608150
     86          6           0      -10.868706    2.393521   -0.757180
     87          6           0       -9.555802    3.195059   -0.783653
     88          6           0       -8.602576    1.999823   -1.278922
     89          6           0       -9.404597    0.770817   -0.929782
     90          6           0       -8.224629    2.019178   -2.784350
     91          6           0       -9.091209    3.755094    0.635464
     92          6           0       -8.171663    4.965568    0.683346
     93          1           0       -6.701480    4.863575    1.142351
     94          7           0      -10.650853   -2.139705   -0.410096
     95          6           0       -9.361995   -1.851171   -0.753338
     96          6           0       -8.593682   -3.013133   -0.843084
     97          6           0       -9.508830   -4.088893   -0.534178
     98          6           0      -10.811404   -3.452336   -0.189150
     99          6           0       -7.118654   -3.061330   -1.223055
    100          6           0       -9.093266   -5.542428   -0.558975
    101          8           0       -7.911584   -5.845020   -0.866838
    102          6           0      -10.085768   -6.735848   -0.327866
    103          7           0      -13.642340   -1.947514    0.155743
    104          6           0      -13.341311   -3.320180    0.367828
    105          6           0      -14.613502   -4.105083    0.528307
    106          6           0      -15.670755   -3.047261    0.912352
    107          6           0      -15.006552   -1.741368    0.386682
    108          6           0      -15.180655   -4.903870   -0.666962
    109          6           0      -15.891875   -2.951007    2.512954
    110          6           0      -16.852606   -3.928187    3.173529
    111          7           0      -13.669997    0.905284   -0.372267
    112          6           0      -15.005217    0.821835   -0.006967
    113          6           0      -15.586446    2.071782    0.093910
    114          6           0      -14.531226    2.957938   -0.182584
    115          6           0      -13.381598    2.190600   -0.435211
    116          6           0      -17.021025    2.332261    0.429509
    117          6           0      -14.221938    4.272592   -0.393420
    118          8           0      -14.944408    5.248016   -0.451572
    119          6           0      -12.678871    4.288560   -0.403852
    120          6           0      -12.291511    4.921583    0.899227
    121          8           0      -12.615750    4.503851    1.967142
    122          8           0      -11.573477    6.096639    0.670072
    123          6           0      -11.328332    6.821445    1.868210
    124          1           0       -7.767263   -0.480406   -1.286555
    125          1           0      -12.113241   -5.060614    0.267627
    126          1           0      -16.707580   -0.504098    0.505282
    127          1           0       -9.533341    3.931871   -1.585893
    128          1           0       -7.667002    2.108199   -0.730938
    129          1           0       -7.234538    2.475721   -2.771066
    130          1           0       -8.888378    2.655647   -3.369417
    131          1           0       -8.146876    1.011064   -3.191818
    132          1           0       -8.530601    2.994199    1.178556
    133          1           0      -10.000420    3.907497    1.217429
    134          1           0       -8.693861    5.663449    1.339453
    135          1           0       -8.177002    5.411474   -0.311130
    136          1           0       -6.741743   -3.890917   -1.822180
    137          1           0       -6.702580   -2.991894   -0.218257
    138          1           0       -6.875372   -2.220757   -1.872975
    139          1           0      -10.844894   -6.732044   -1.109583
    140          1           0      -10.466970   -6.527038    0.671534
    141          1           0       -9.634331   -7.720976   -0.211031
    142          1           0      -14.462820   -4.756288    1.388699
    143          1           0      -16.634476   -3.234139    0.438482
    144          1           0      -16.121759   -4.529787   -1.069674
    145          1           0      -14.992879   -5.971952   -0.555274
    146          1           0      -14.490203   -4.675955   -1.478859
    147          1           0      -16.256724   -1.926733    2.586719
    148          1           0      -14.942015   -3.036482    3.041082
    149          1           0      -16.346507   -4.419681    4.003992
    150          1           0      -17.159933   -4.677918    2.443923
    151          1           0      -17.711580   -3.412039    3.603097
    152          1           0      -17.010577    3.080116    1.221888
    153          1           0      -17.519840    1.458746    0.851153
    154          1           0      -17.587413    2.733382   -0.411149
    155          1           0      -12.354968    4.908585   -1.239058
    156          1           0      -12.122929    7.550823    2.023059
    157          1           0      -10.458000    7.476157    1.809685
    158          1           0      -11.271635    6.174031    2.741611
 ---------------------------------------------------------------------

 SCF Done:  E(RwB97XD) =  -4070.57958128     A.U. after   20 cycles

 Excitation energies and oscillator strengths:

 Excited State   1:      Singlet-A      1.6233 eV  763.80 nm  f=0.4433  <S**2>=0.000
     310 -> 316        0.17771
     312 -> 314        0.68034
     310 <- 316        0.11568
 This state for optimization and/or second-order correction.
 Total Energy, E(TD-HF/TD-DFT) =  -4070.51992754
 Copying the excited state density for this state as the 1-particle RhoCI density.

 Excited State   2:      Singlet-A      1.6465 eV  753.01 nm  f=0.3687  <S**2>=0.000
     309 -> 315       -0.19014
     311 -> 313        0.67637
     309 <- 315       -0.11728

 Excited State   3:      Singlet-A      2.0914 eV  592.83 nm  f=0.1277  <S**2>=0.000
     309 -> 313        0.64845
     311 -> 315        0.26304

 Excited State   4:      Singlet-A      2.1425 eV  578.70 nm  f=0.1282  <S**2>=0.000
     310 -> 314        0.64788
     312 -> 316       -0.26649

 Excited State   5:      Singlet-A      3.4498 eV  359.40 nm  f=0.0000  <S**2>=0.000
     312 -> 313        0.70698

 The electronic state is 1-A.
 Alpha  occ. eigenvalues --  -46.96607 -46.94972 -19.30592 -19.30457 -19.25802
 Alpha  occ. eigenvalues --  -19.24554 -19.24110 -19.23443 -19.23124 -19.22868
 Alpha  occ. eigenvalues --  -14.47732 -14.47226 -14.46493 -14.46311 -14.44357
 Alpha  occ. eigenvalues --  -14.44002 -14.43774 -14.43660 -10.43518 -10.42304
 Alpha  occ. eigenvalues --  -10.39754 -10.39535 -10.38964 -10.37312 -10.36427
 Alpha  occ. eigenvalues --  -10.36316 -10.36266 -10.35642 -10.35377 -10.34946
 Alpha  occ. eigenvalues --  -10.34793 -10.34704 -10.34682 -10.34508 -10.34276
 Alpha  occ. eigenvalues --  -10.34241 -10.33930 -10.33678 -10.33613 -10.33274
 Alpha  occ. eigenvalues --  -10.33211 -10.33026 -10.33024 -10.32762 -10.32632
 Alpha  occ. eigenvalues --  -10.32427 -10.32336 -10.32331 -10.32318 -10.32270
 Alpha  occ. eigenvalues --  -10.32166 -10.32061 -10.32043 -10.31995 -10.31988
 Alpha  occ. eigenvalues --  -10.31858 -10.31854 -10.31840 -10.31823 -10.31686
 Alpha  occ. eigenvalues --  -10.31666 -10.31602 -10.31480 -10.31454 -10.31249
 Alpha  occ. eigenvalues --  -10.31155 -10.30983 -10.30660 -10.30612 -10.30434
 Alpha  occ. eigenvalues --  -10.30386 -10.30313 -10.30309 -10.30260 -10.30174
 Alpha  occ. eigenvalues --  -10.29948 -10.29929 -10.29923 -10.29745 -10.29728
 Alpha  occ. eigenvalues --  -10.29649 -10.29624 -10.29421 -10.29308 -10.28814
 Alpha  occ. eigenvalues --  -10.28148  -3.22376  -3.21037  -1.95957  -1.95486
 Alpha  occ. eigenvalues --   -1.95335  -1.94592  -1.94167  -1.94015  -1.19758
 Alpha  occ. eigenvalues --   -1.18719  -1.13061  -1.12221  -1.11701  -1.10696
 Alpha  occ. eigenvalues --   -1.09551  -1.09471  -1.07732  -1.06687  -1.06668
 Alpha  occ. eigenvalues --   -1.05932  -1.05524  -1.05148  -1.03932  -1.03860
 Alpha  occ. eigenvalues --   -0.96329  -0.94143  -0.90820  -0.90585  -0.90517
 Alpha  occ. eigenvalues --   -0.90511  -0.90159  -0.89977  -0.89479  -0.89060
 Alpha  occ. eigenvalues --   -0.88983  -0.88956  -0.88365  -0.87816  -0.86254
 Alpha  occ. eigenvalues --   -0.86154  -0.86014  -0.85489  -0.84788  -0.84564
 Alpha  occ. eigenvalues --   -0.83771  -0.83753  -0.83231  -0.82662  -0.82605
 Alpha  occ. eigenvalues --   -0.82253  -0.80229  -0.79974  -0.79603  -0.79265
 Alpha  occ. eigenvalues --   -0.78845  -0.78805  -0.78186  -0.77865  -0.77601
 Alpha  occ. eigenvalues --   -0.76792  -0.75563  -0.74485  -0.74197  -0.73402
 Alpha  occ. eigenvalues --   -0.71432  -0.70751  -0.70374  -0.70343  -0.69756
 Alpha  occ. eigenvalues --   -0.69614  -0.69116  -0.68937  -0.68207  -0.67477
 Alpha  occ. eigenvalues --   -0.67278  -0.67105  -0.66668  -0.66630  -0.66495
 Alpha  occ. eigenvalues --   -0.66193  -0.64765  -0.64409  -0.62497  -0.62460
 Alpha  occ. eigenvalues --   -0.62114  -0.61542  -0.61179  -0.61145  -0.60989
 Alpha  occ. eigenvalues --   -0.60826  -0.60471  -0.60041  -0.60034  -0.59465
 Alpha  occ. eigenvalues --   -0.58449  -0.58093  -0.57665  -0.57650  -0.57241
 Alpha  occ. eigenvalues --   -0.57150  -0.57028  -0.56287  -0.55765  -0.55466
 Alpha  occ. eigenvalues --   -0.55446  -0.55260  -0.55079  -0.54944  -0.54855
 Alpha  occ. eigenvalues --   -0.54692  -0.54549  -0.54482  -0.54254  -0.54166
 Alpha  occ. eigenvalues --   -0.54011  -0.53741  -0.53309  -0.53218  -0.53112
 Alpha  occ. eigenvalues --   -0.53104  -0.52745  -0.52543  -0.52493  -0.52468
 Alpha  occ. eigenvalues --   -0.52025  -0.52002  -0.51932  -0.51736  -0.51623
 Alpha  occ. eigenvalues --   -0.51290  -0.51168  -0.51008  -0.50886  -0.50707
 Alpha  occ. eigenvalues --   -0.50699  -0.50490  -0.50368  -0.50328  -0.50037
 Alpha  occ. eigenvalues --   -0.49826  -0.49676  -0.49361  -0.49233  -0.49108
 Alpha  occ. eigenvalues --   -0.48921  -0.48661  -0.48539  -0.48498  -0.48295
 Alpha  occ. eigenvalues --   -0.48215  -0.48163  -0.48049  -0.47924  -0.47827
 Alpha  occ. eigenvalues --   -0.47673  -0.47227  -0.47187  -0.47040  -0.46960
 Alpha  occ. eigenvalues --   -0.46624  -0.46470  -0.46461  -0.46193  -0.45774
 Alpha  occ. eigenvalues --   -0.45757  -0.45672  -0.45544  -0.45268  -0.45243
 Alpha  occ. eigenvalues --   -0.45120  -0.44977  -0.44853  -0.44693  -0.44602
 Alpha  occ. eigenvalues --   -0.44511  -0.44447  -0.44395  -0.44106  -0.43768
 Alpha  occ. eigenvalues --   -0.43489  -0.43404  -0.43343  -0.43240  -0.43200
 Alpha  occ. eigenvalues --   -0.43122  -0.42914  -0.42869  -0.42439  -0.42351
 Alpha  occ. eigenvalues --   -0.42189  -0.42160  -0.41615  -0.41309  -0.41275
 Alpha  occ. eigenvalues --   -0.40395  -0.40287  -0.39857  -0.39778  -0.39532
 Alpha  occ. eigenvalues --   -0.39090  -0.39058  -0.38848  -0.38590  -0.38531
 Alpha  occ. eigenvalues --   -0.38230  -0.38132  -0.37449  -0.37015  -0.36453
 Alpha  occ. eigenvalues --   -0.35698  -0.35625  -0.35236  -0.33697  -0.33610
 Alpha  occ. eigenvalues --   -0.33404  -0.32785  -0.32419  -0.32270  -0.32113
 Alpha  occ. eigenvalues --   -0.31927  -0.31584  -0.31584  -0.26190  -0.25754
 Alpha  occ. eigenvalues --   -0.23791  -0.22768
 Alpha virt. eigenvalues --   -0.07907  -0.07082  -0.00536   0.00797   0.02053
 Alpha virt. eigenvalues --    0.02210   0.04153   0.04603   0.04743   0.04927
 Alpha virt. eigenvalues --    0.06803   0.07352   0.07484   0.07862   0.08050

 Mulliken charges:
               1
     1  Mg   0.966310
     2  C   -0.049347
     3  C   -0.089567
     4  C   -0.059726
     5  C   -0.106202
     6  N   -0.317471
     7  C    0.011380
     8  C   -0.040425
     9  C   -0.105359
    10  C    0.050209
    11  C   -0.005204
    12  C   -0.008530
    13  C   -0.109724
    14  H    0.017218
    15  N   -0.388009
    16  C    0.163963
    17  C   -0.188106
    18  C   -0.059128
    19  C    0.115096
    20  C    0.051576
    21  C    0.080618
    22  O   -0.219427
    23  C   -0.036600
    24  N   -0.403495
    25  C    0.019100
    26  C   -0.074892
    27  C   -0.053959
    28  C    0.103378
    29  C    0.032749
    30  C   -0.056521
    31  C   -0.031328
    32  N   -0.481528
    33  C    0.161706
    34  C   -0.187024
    35  C   -0.019253
    36  C    0.159968
    37  C    0.089864
    38  C    0.119854
    39  O   -0.226372
    40  C   -0.061668
    41  C    0.258041
    42  O   -0.245529
    43  O   -0.357718
    44  C    0.146362
    45  H   -0.009457
    46  H    0.024537
    47  H    0.001058
    48  H    0.044242
    49  H    0.046710
    50  H    0.047924
    51  H    0.045265
    52  H    0.037770
    53  H    0.030088
    54  H    0.028236
    55  H    0.044097
    56  H    0.052370
    57  H    0.066456
    58  H    0.038141
    59  H    0.031217
    60  H    0.035938
    61  H    0.074630
    62  H    0.049231
    63  H    0.043679
    64  H    0.035705
    65  H    0.053058
    66  H    0.026376
    67  H    0.041764
    68  H    0.029319
    69  H    0.020460
    70  H    0.036563
    71  H    0.025324
    72  H    0.038913
    73  H    0.066620
    74  H    0.037241
    75  H    0.055747
    76  H    0.057722
    77  H    0.070777
    78  H    0.046869
    79  H    0.060130
    80  Mg   0.948101
    81  C    0.000395
    82  C   -0.064665
    83  C   -0.087395
    84  C   -0.085820
    85  N   -0.297853
    86  C   -0.038095
    87  C   -0.036560
    88  C   -0.151913
    89  C    0.082413
    90  C    0.029892
    91  C   -0.001088
    92  C   -0.097818
    93  H    0.044203
    94  N   -0.425911
    95  C    0.122612
    96  C   -0.157840
    97  C   -0.085109
    98  C    0.169109
    99  C    0.086636
   100  C    0.032163
   101  O   -0.271450
   102  C   -0.011463
   103  N   -0.428061
   104  C    0.087366
   105  C   -0.092033
   106  C   -0.113436
   107  C    0.082234
   108  C    0.055295
   109  C   -0.033194
   110  C   -0.022713
   111  N   -0.388417
   112  C    0.120851
   113  C   -0.174891
   114  C    0.038922
   115  C    0.121228
   116  C    0.098338
   117  C    0.025872
   118  O   -0.206548
   119  C   -0.074407
   120  C    0.254107
   121  O   -0.209710
   122  O   -0.358165
   123  C    0.118731
   124  H   -0.004145
   125  H   -0.015896
   126  H    0.009872
   127  H    0.028024
   128  H    0.041764
   129  H    0.039126
   130  H    0.042767
   131  H    0.043290
   132  H    0.044329
   133  H    0.047696
   134  H    0.049595
   135  H    0.042834
   136  H    0.069485
   137  H    0.066062
   138  H    0.028920
   139  H    0.067531
   140  H    0.050441
   141  H    0.051568
   142  H    0.031838
   143  H    0.027828
   144  H    0.049055
   145  H    0.044401
   146  H    0.015765
   147  H    0.024886
   148  H    0.037095
   149  H    0.036087
   150  H    0.032797
   151  H    0.043026
   152  H    0.055682
   153  H    0.023752
   154  H    0.063564
   155  H    0.047738
   156  H    0.048801
   157  H    0.048371
   158  H    0.062138
 Sum of Mulliken charges =  -0.00000

 Dipole moment (field-independent basis, Debye):
    X=              0.9531    Y=              2.0735    Z=             -3.7024  Tot=              4.3492
 Quadrupole moment (field-independent basis, Debye-Ang):
   XX=           -474.9396   YY=           -523.0858   ZZ=           -470.9846
   XY=            107.5368   XZ=            -18.6523   YZ=             -0.0325

 Normal termination of Gaussian 16 at Sun Sep 19 06:09:17 2021.
