 Gaussian 16, Revision A.03,
 Gaussian 16:  ES64L-G16RevA.03 25-Dec-2016

 --------------------------------
 #p wB97XD/Def2SVP td=(nstates=5)
 --------------------------------

 --------------------------------
 TDDFT excited states in gaussian
 --------------------------------
 Symbolic Z-matrix:
 Charge =  0 Multiplicity = 1

                         Standard orientation:
 ---------------------------------------------------------------------
 Center     Atomic      Atomic             Coordinates (Angstroms)
 Number     Number       Type             X           Y           Z
 ---------------------------------------------------------------------
      1         12           0       23.834859    0.529114    0.181789
      2          6           0       23.037869   -2.345662   -1.614875
      3          6           0       23.965992   -1.339960    3.066960
      4          6           0       24.325705    3.443895    1.814417
      5          6           0       23.277561    2.414230   -2.802413
      6          7           0       23.424767   -1.557302    0.640254
      7          6           0       23.145729   -2.565253   -0.230147
      8          6           0       23.116251   -3.925483    0.478791
      9          6           0       23.278651   -3.492894    2.002874
     10          6           0       23.595216   -1.998895    1.877829
     11          6           0       22.005612   -3.732487    2.805577
     12          6           0       24.298889   -4.901675    0.141062
     13          6           0       24.031746   -6.379685    0.259567
     14          1           0       22.850014   -6.844933    0.986054
     15          7           0       24.190656    0.959489    2.117635
     16          6           0       24.194925    0.026864    3.174125
     17          6           0       24.653127    0.739816    4.337650
     18          6           0       24.821614    2.111014    4.018726
     19          6           0       24.437711    2.231946    2.590690
     20          6           0       24.691402    0.128077    5.721740
     21          6           0       25.302996    3.243768    4.824718
     22          8           0       25.206232    4.400175    4.472971
     23          6           0       25.832159    3.012044    6.286497
     24          7           0       23.983443    2.684283   -0.418127
     25          6           0       24.163330    3.639838    0.444000
     26          6           0       24.117901    5.039774   -0.239123
     27          6           0       23.863473    4.738731   -1.704936
     28          6           0       23.632109    3.184772   -1.694712
     29          6           0       23.071237    5.993089    0.508474
     30          6           0       25.000389    5.222807   -2.629590
     31          6           0       24.817784    6.625328   -3.321313
     32          7           0       23.546623    0.172998   -1.791006
     33          6           0       23.333901    1.027236   -2.901418
     34          6           0       23.128119    0.285348   -4.086564
     35          6           0       22.923856   -1.065606   -3.573361
     36          6           0       23.234032   -1.027868   -2.183825
     37          6           0       22.772355    0.857301   -5.446684
     38          6           0       22.539522   -2.352671   -4.022747
     39          8           0       22.262338   -2.787781   -5.133385
     40          6           0       22.695420   -3.319501   -2.672971
     41          6           0       21.378612   -4.027532   -2.545401
     42          8           0       20.288989   -3.460064   -2.414428
     43          8           0       21.492650   -5.437755   -2.727407
     44          6           0       20.216112   -6.211956   -2.625793
     45          1           0       23.988274   -1.993954    3.941999
     46          1           0       24.305408    4.340249    2.437209
     47          1           0       23.147460    2.935704   -3.752616
     48          1           0       22.132450   -4.350093    0.277701
     49          1           0       24.067247   -4.041125    2.518131
     50          1           0       21.318581   -4.387058    2.269951
     51          1           0       21.528764   -2.806149    3.127066
     52          1           0       22.154184   -4.347557    3.693140
     53          1           0       25.140019   -4.627224    0.776721
     54          1           0       24.648311   -4.628999   -0.854995
     55          1           0       24.854176   -6.803160    0.835669
     56          1           0       23.982642   -6.812885   -0.739478
     57          1           0       23.967568    0.569806    6.406521
     58          1           0       25.710421    0.217255    6.100556
     59          1           0       24.445681   -0.931861    5.784943
     60          1           0       24.944039    2.953469    6.916246
     61          1           0       26.341629    3.905912    6.646675
     62          1           0       26.376148    2.071077    6.359129
     63          1           0       25.120809    5.428317   -0.061187
     64          1           0       22.894671    5.112579   -2.032644
     65          1           0       22.323345    6.365015   -0.191696
     66          1           0       23.515089    6.912638    0.890464
     67          1           0       22.605583    5.349752    1.256194
     68          1           0       25.092152    4.467819   -3.411200
     69          1           0       25.914666    5.196642   -2.036517
     70          1           0       24.247068    6.468530   -4.237307
     71          1           0       25.698755    7.237713   -3.514550
     72          1           0       24.130869    7.099520   -2.621133
     73          1           0       23.744756    1.103908   -5.872171
     74          1           0       22.177433    1.765119   -5.353750
     75          1           0       22.077901    0.273733   -6.052436
     76          1           0       23.539738   -3.993878   -2.821213
     77          1           0       19.512571   -5.930359   -3.408441
     78          1           0       19.660428   -6.175898   -1.688390
     79          1           0       20.604405   -7.205736   -2.848789
     80         12           0      -24.009883    0.564465    0.158920
     81          6           0      -21.635936   -2.030762    0.474193
     82          6           0      -26.451328   -1.752542   -0.431829
     83          6           0      -25.975720    3.040447   -0.776541
     84          6           0      -21.317054    2.870026    0.296430
     85          7           0      -24.026178   -1.657392    0.155860
     86          6           0      -22.980017   -2.443857    0.314571
     87          6           0      -23.479776   -3.852559    0.579523
     88          6           0      -24.892002   -3.871276   -0.122647
     89          6           0      -25.171808   -2.322520   -0.157870
     90          6           0      -24.838828   -4.633488   -1.501036
     91          6           0      -23.658900   -4.145007    2.091427
     92          6           0      -23.677958   -5.683531    2.499452
     93          1           0      -23.563425   -6.799458    1.457460
     94          7           0      -25.962506    0.652119   -0.301799
     95          6           0      -26.886790   -0.415118   -0.439055
     96          6           0      -28.225009    0.162714   -0.704367
     97          6           0      -28.059044    1.582366   -0.888403
     98          6           0      -26.625114    1.864811   -0.661108
     99          6           0      -29.477346   -0.638919   -0.760489
    100          6           0      -29.071526    2.747072   -1.218950
    101          8           0      -28.763946    3.946408   -1.250789
    102          6           0      -30.459691    2.379174   -1.656426
    103          7           0      -23.667647    2.674742   -0.308274
    104          6           0      -24.645901    3.484222   -0.616360
    105          6           0      -24.258352    4.927600   -0.776301
    106          6           0      -22.726810    4.894568   -0.436309
    107          6           0      -22.548971    3.397545   -0.028324
    108          6           0      -24.701809    5.489669   -2.130159
    109          6           0      -22.303883    5.826867    0.692006
    110          6           0      -20.938900    6.582105    0.508583
    111          7           0      -21.856288    0.527033    0.422150
    112          6           0      -20.909268    1.567107    0.497996
    113          6           0      -19.654299    1.014197    0.876013
    114          6           0      -19.813385   -0.399008    0.713710
    115          6           0      -21.146268   -0.638334    0.494122
    116          6           0      -18.468998    1.790264    1.374233
    117          6           0      -19.239874   -1.760474    0.839953
    118          8           0      -18.103648   -2.108672    1.085328
    119          6           0      -20.377694   -2.810445    0.426778
    120          6           0      -20.199418   -4.098777    1.161294
    121          8           0      -20.235898   -4.257018    2.345902
    122          8           0      -19.871958   -5.147891    0.282100
    123          6           0      -19.015712   -6.223372    0.825820
    124          1           0      -27.232080   -2.412523   -0.816746
    125          1           0      -26.566285    3.944510   -0.935112
    126          1           0      -20.524437    3.612819    0.408775
    127          1           0      -22.657209   -4.471655    0.221623
    128          1           0      -25.642927   -4.359221    0.499651
    129          1           0      -23.826042   -4.981904   -1.700665
    130          1           0      -24.999597   -3.841633   -2.232654
    131          1           0      -25.488066   -5.506751   -1.565523
    132          1           0      -24.628962   -3.708991    2.333589
    133          1           0      -22.872080   -3.603600    2.616563
    134          1           0      -24.609189   -5.804243    3.055022
    135          1           0      -22.875569   -5.783690    3.230775
    136          1           0      -29.458672   -1.677580   -0.432402
    137          1           0      -29.867056   -0.727228   -1.774217
    138          1           0      -30.153296   -0.105604   -0.091617
    139          1           0      -31.162722    2.241254   -0.835085
    140          1           0      -30.231196    1.466682   -2.208478
    141          1           0      -30.772845    3.163167   -2.345366
    142          1           0      -24.820817    5.397732    0.030260
    143          1           0      -22.080564    5.122361   -1.283107
    144          1           0      -24.810793    4.733569   -2.908287
    145          1           0      -23.891747    6.147280   -2.443029
    146          1           0      -25.641590    6.039082   -2.070617
    147          1           0      -22.223663    5.289087    1.636555
    148          1           0      -23.184821    6.445515    0.862593
    149          1           0      -20.397836    6.222043   -0.366297
    150          1           0      -20.367922    6.325901    1.400776
    151          1           0      -20.944200    7.670703    0.444485
    152          1           0      -18.344126    2.599310    0.654383
    153          1           0      -17.539649    1.222063    1.417755
    154          1           0      -18.703670    2.250001    2.334799
    155          1           0      -20.191088   -3.135522   -0.596248
    156          1           0      -19.599240   -7.144140    0.826933
    157          1           0      -18.643800   -5.992283    1.824616
    158          1           0      -18.181469   -6.301980    0.128759
 ---------------------------------------------------------------------

 SCF Done:  E(RwB97XD) =  -4070.62693903     A.U. after   19 cycles

 Excitation energies and oscillator strengths:

 Excited State   1:      Singlet-A      1.6919 eV  732.81 nm  f=0.3725  <S**2>=0.000
     309 -> 316        0.17800
     311 -> 313        0.68410
     309 <- 316        0.11255
 This state for optimization and/or second-order correction.
 Total Energy, E(TD-HF/TD-DFT) =  -4070.56476254
 Copying the excited state density for this state as the 1-particle RhoCI density.

 Excited State   2:      Singlet-A      1.7665 eV  701.88 nm  f=0.3730  <S**2>=0.000
     310 -> 315        0.19126
     312 -> 314        0.67833
     310 <- 315        0.11016

 Excited State   3:      Singlet-A      2.1197 eV  584.93 nm  f=0.0960  <S**2>=0.000
     310 -> 314        0.63986
     312 -> 315       -0.27487

 Excited State   4:      Singlet-A      2.1733 eV  570.48 nm  f=0.1433  <S**2>=0.000
     309 -> 313        0.64714
     311 -> 316       -0.26327

 Excited State   5:      Singlet-A      3.2681 eV  379.38 nm  f=0.0032  <S**2>=0.000
     304 -> 314        0.16880
     305 -> 314       -0.15521
     308 -> 314        0.64105
     308 -> 317        0.10637

 The electronic state is 1-A.
 Alpha  occ. eigenvalues --  -46.94857 -46.94316 -19.29330 -19.28455 -19.25412
 Alpha  occ. eigenvalues --  -19.24436 -19.24351 -19.24334 -19.23310 -19.23183
 Alpha  occ. eigenvalues --  -14.47259 -14.46510 -14.46305 -14.46223 -14.44832
 Alpha  occ. eigenvalues --  -14.44426 -14.43888 -14.42551 -10.42880 -10.42350
 Alpha  occ. eigenvalues --  -10.40848 -10.39492 -10.38747 -10.38279 -10.36327
 Alpha  occ. eigenvalues --  -10.35860 -10.35715 -10.35682 -10.35317 -10.34943
 Alpha  occ. eigenvalues --  -10.34888 -10.34888 -10.34847 -10.34812 -10.34648
 Alpha  occ. eigenvalues --  -10.34638 -10.34569 -10.34048 -10.33948 -10.33650
 Alpha  occ. eigenvalues --  -10.33421 -10.32789 -10.32763 -10.32373 -10.32245
 Alpha  occ. eigenvalues --  -10.32180 -10.32164 -10.32034 -10.32033 -10.31974
 Alpha  occ. eigenvalues --  -10.31973 -10.31968 -10.31938 -10.31846 -10.31815
 Alpha  occ. eigenvalues --  -10.31797 -10.31761 -10.31724 -10.31645 -10.31644
 Alpha  occ. eigenvalues --  -10.31640 -10.31601 -10.31499 -10.31481 -10.31378
 Alpha  occ. eigenvalues --  -10.30811 -10.30782 -10.30759 -10.30734 -10.30440
 Alpha  occ. eigenvalues --  -10.30262 -10.30259 -10.30126 -10.30113 -10.29943
 Alpha  occ. eigenvalues --  -10.29907 -10.29861 -10.29713 -10.29705 -10.29680
 Alpha  occ. eigenvalues --  -10.29658 -10.29585 -10.29526 -10.29394 -10.28473
 Alpha  occ. eigenvalues --  -10.28358  -3.20769  -3.20424  -1.94370  -1.94033
 Alpha  occ. eigenvalues --   -1.93890  -1.93730  -1.93546  -1.93415  -1.17294
 Alpha  occ. eigenvalues --   -1.15540  -1.13396  -1.12768  -1.11687  -1.10777
 Alpha  occ. eigenvalues --   -1.09155  -1.07974  -1.07180  -1.07091  -1.06499
 Alpha  occ. eigenvalues --   -1.05924  -1.05373  -1.04520  -1.03643  -1.03065
 Alpha  occ. eigenvalues --   -0.94008  -0.93718  -0.91195  -0.91144  -0.90838
 Alpha  occ. eigenvalues --   -0.90817  -0.90330  -0.89766  -0.89657  -0.89527
 Alpha  occ. eigenvalues --   -0.89382  -0.89167  -0.88167  -0.87302  -0.86216
 Alpha  occ. eigenvalues --   -0.85896  -0.85566  -0.84859  -0.84832  -0.84119
 Alpha  occ. eigenvalues --   -0.83587  -0.83426  -0.82560  -0.82311  -0.81955
 Alpha  occ. eigenvalues --   -0.81788  -0.80777  -0.80607  -0.79157  -0.79069
 Alpha  occ. eigenvalues --   -0.78744  -0.78270  -0.77769  -0.77278  -0.77075
 Alpha  occ. eigenvalues --   -0.76975  -0.75091  -0.74443  -0.73672  -0.73584
 Alpha  occ. eigenvalues --   -0.71733  -0.71543  -0.70885  -0.70592  -0.69926
 Alpha  occ. eigenvalues --   -0.69289  -0.69218  -0.68624  -0.67934  -0.67696
 Alpha  occ. eigenvalues --   -0.67160  -0.67095  -0.66942  -0.66592  -0.66536
 Alpha  occ. eigenvalues --   -0.65427  -0.63357  -0.63003  -0.62407  -0.62254
 Alpha  occ. eigenvalues --   -0.61578  -0.61307  -0.61073  -0.60560  -0.60517
 Alpha  occ. eigenvalues --   -0.60002  -0.59718  -0.59521  -0.59287  -0.58758
 Alpha  occ. eigenvalues --   -0.58452  -0.58261  -0.57387  -0.57001  -0.56978
 Alpha  occ. eigenvalues --   -0.56540  -0.56136  -0.55930  -0.55663  -0.55357
 Alpha  occ. eigenvalues --   -0.55127  -0.55120  -0.55043  -0.54866  -0.54741
 Alpha  occ. eigenvalues --   -0.54415  -0.54254  -0.54201  -0.54123  -0.53930
 Alpha  occ. eigenvalues --   -0.53910  -0.53656  -0.53463  -0.53261  -0.53149
 Alpha  occ. eigenvalues --   -0.52877  -0.52846  -0.52486  -0.52434  -0.52116
 Alpha  occ. eigenvalues --   -0.52054  -0.51923  -0.51750  -0.51623  -0.51467
 Alpha  occ. eigenvalues --   -0.51184  -0.51164  -0.50981  -0.50821  -0.50625
 Alpha  occ. eigenvalues --   -0.50556  -0.50280  -0.50229  -0.50033  -0.49927
 Alpha  occ. eigenvalues --   -0.49738  -0.49576  -0.49460  -0.49399  -0.49212
 Alpha  occ. eigenvalues --   -0.49179  -0.49044  -0.48917  -0.48820  -0.48591
 Alpha  occ. eigenvalues --   -0.48538  -0.48424  -0.48068  -0.47728  -0.47480
 Alpha  occ. eigenvalues --   -0.47329  -0.47013  -0.46938  -0.46914  -0.46745
 Alpha  occ. eigenvalues --   -0.46632  -0.46476  -0.46204  -0.46146  -0.46060
 Alpha  occ. eigenvalues --   -0.45872  -0.45791  -0.45628  -0.45308  -0.45259
 Alpha  occ. eigenvalues --   -0.44999  -0.44925  -0.44796  -0.44697  -0.44545
 Alpha  occ. eigenvalues --   -0.44518  -0.44483  -0.44195  -0.43921  -0.43902
 Alpha  occ. eigenvalues --   -0.43735  -0.43598  -0.43444  -0.43436  -0.43249
 Alpha  occ. eigenvalues --   -0.43163  -0.43045  -0.42886  -0.42666  -0.42152
 Alpha  occ. eigenvalues --   -0.42007  -0.41876  -0.41754  -0.41305  -0.40955
 Alpha  occ. eigenvalues --   -0.40677  -0.40526  -0.39784  -0.39699  -0.39583
 Alpha  occ. eigenvalues --   -0.39225  -0.38942  -0.38362  -0.38082  -0.37746
 Alpha  occ. eigenvalues --   -0.37658  -0.37332  -0.36433  -0.36201  -0.35889
 Alpha  occ. eigenvalues --   -0.35767  -0.35525  -0.35195  -0.33907  -0.33828
 Alpha  occ. eigenvalues --   -0.33395  -0.33139  -0.32727  -0.32495  -0.32013
 Alpha  occ. eigenvalues --   -0.31724  -0.31572  -0.30374  -0.26120  -0.25650
 Alpha  occ. eigenvalues --   -0.23365  -0.23139
 Alpha virt. eigenvalues --   -0.07394  -0.06801  -0.00080   0.00276   0.01902
 Alpha virt. eigenvalues --    0.02263   0.04512   0.04899   0.06051   0.06864
 Alpha virt. eigenvalues --    0.06922   0.07003   0.07912   0.08125   0.08612

 Mulliken charges:
               1
     1  Mg   0.981369
     2  C   -0.071136
     3  C   -0.108029
     4  C   -0.077161
     5  C   -0.077042
     6  N   -0.334095
     7  C    0.003516
     8  C   -0.040121
     9  C   -0.140178
    10  C    0.072846
    11  C    0.018671
    12  C    0.018229
    13  C   -0.105834
    14  H    0.036564
    15  N   -0.531806
    16  C    0.234474
    17  C   -0.151110
    18  C   -0.045548
    19  C    0.152308
    20  C    0.052042
    21  C    0.017190
    22  O   -0.224853
    23  C   -0.005368
    24  N   -0.321217
    25  C    0.055757
    26  C   -0.094119
    27  C   -0.043699
    28  C    0.027552
    29  C    0.014751
    30  C   -0.005357
    31  C   -0.042815
    32  N   -0.449273
    33  C    0.125111
    34  C   -0.138842
    35  C   -0.084666
    36  C    0.187710
    37  C    0.059610
    38  C    0.113511
    39  O   -0.211582
    40  C   -0.083746
    41  C    0.288684
    42  O   -0.260446
    43  O   -0.404795
    44  C    0.141019
    45  H    0.004064
    46  H    0.032115
    47  H    0.000456
    48  H    0.043826
    49  H    0.038815
    50  H    0.033359
    51  H    0.049288
    52  H    0.023064
    53  H    0.024345
    54  H    0.025370
    55  H    0.048820
    56  H    0.067385
    57  H    0.063487
    58  H    0.049914
    59  H    0.030826
    60  H    0.053365
    61  H    0.056008
    62  H    0.038209
    63  H    0.048272
    64  H    0.027382
    65  H    0.030060
    66  H    0.045653
    67  H    0.051222
    68  H    0.026143
    69  H    0.026642
    70  H    0.037037
    71  H    0.054551
    72  H    0.027415
    73  H    0.054116
    74  H    0.037489
    75  H    0.064166
    76  H    0.072256
    77  H    0.058612
    78  H    0.054442
    79  H    0.053756
    80  Mg   0.949580
    81  C    0.045797
    82  C   -0.095078
    83  C   -0.065617
    84  C   -0.086052
    85  N   -0.314104
    86  C    0.001030
    87  C   -0.120426
    88  C   -0.103296
    89  C    0.089384
    90  C    0.035021
    91  C   -0.006477
    92  C   -0.094819
    93  H    0.041435
    94  N   -0.554516
    95  C    0.176006
    96  C   -0.151103
    97  C   -0.082878
    98  C    0.208176
    99  C    0.035292
   100  C    0.082075
   101  O   -0.237307
   102  C   -0.013229
   103  N   -0.304512
   104  C   -0.029814
   105  C   -0.047684
   106  C   -0.103749
   107  C    0.058322
   108  C    0.030153
   109  C   -0.003888
   110  C   -0.057108
   111  N   -0.438277
   112  C    0.134190
   113  C   -0.193295
   114  C   -0.035268
   115  C    0.077338
   116  C    0.080570
   117  C    0.135373
   118  O   -0.202619
   119  C   -0.093303
   120  C    0.221025
   121  O   -0.208272
   122  O   -0.410317
   123  C    0.136751
   124  H    0.001485
   125  H    0.012949
   126  H   -0.022033
   127  H    0.032030
   128  H    0.036175
   129  H    0.038434
   130  H    0.032959
   131  H    0.048361
   132  H    0.023416
   133  H    0.054525
   134  H    0.041779
   135  H    0.065388
   136  H    0.042974
   137  H    0.065226
   138  H    0.060707
   139  H    0.079998
   140  H    0.041605
   141  H    0.065179
   142  H    0.042227
   143  H    0.040207
   144  H    0.046677
   145  H    0.033131
   146  H    0.056284
   147  H    0.030802
   148  H    0.022360
   149  H    0.035993
   150  H    0.038507
   151  H    0.045677
   152  H    0.035948
   153  H    0.058422
   154  H    0.050918
   155  H    0.080272
   156  H    0.051939
   157  H    0.069244
   158  H    0.055729
 Sum of Mulliken charges =  -0.00000

 Dipole moment (field-independent basis, Debye):
    X=             -3.6354    Y=              0.5905    Z=              3.6585  Tot=              5.1913
 Quadrupole moment (field-independent basis, Debye-Ang):
   XX=           -147.0380   YY=           -471.8502   ZZ=           -515.4934
   XY=            -12.6153   XZ=            160.0313   YZ=            -25.8690

 Normal termination of Gaussian 16 at Mon Sep 20 09:01:30 2021.
