 Gaussian 16, Revision A.03,
 Gaussian 16:  ES64L-G16RevA.03 25-Dec-2016

 --------------------------------
 #p wB97XD/Def2SVP td=(nstates=5)
 --------------------------------

 --------------------------------
 TDDFT excited states in gaussian
 --------------------------------
 Symbolic Z-matrix:
 Charge =  0 Multiplicity = 1

                         Standard orientation:
 ---------------------------------------------------------------------
 Center     Atomic      Atomic             Coordinates (Angstroms)
 Number     Number       Type             X           Y           Z
 ---------------------------------------------------------------------
      1         12           0      -26.592363   -0.152336    0.013698
      2          6           0      -23.282897   -0.834170   -0.488699
      3          6           0      -26.289724   -1.775708    3.165792
      4          6           0      -29.738266    0.842670    0.720219
      5          6           0      -26.483612    2.149813   -2.598852
      6          7           0      -24.782794   -0.893580    1.394584
      7          6           0      -23.603440   -1.272134    0.826661
      8          6           0      -22.735413   -1.944088    1.854259
      9          6           0      -23.715146   -2.228022    3.074525
     10          6           0      -25.057564   -1.619039    2.559509
     11          6           0      -23.578038   -3.548643    3.739871
     12          6           0      -21.328565   -1.293544    2.257933
     13          6           0      -21.200051    0.200309    2.214852
     14          1           0      -20.585149    0.877073    3.431889
     15          7           0      -27.893348   -0.634565    1.593049
     16          6           0      -27.614077   -1.306442    2.742547
     17          6           0      -28.753566   -1.393030    3.607239
     18          6           0      -29.832194   -0.715432    2.834757
     19          6           0      -29.174264   -0.131424    1.645511
     20          6           0      -28.860492   -2.032448    4.908657
     21          6           0      -31.315366   -0.608826    3.159083
     22          8           0      -31.727632   -0.964811    4.205512
     23          6           0      -32.375837    0.019513    2.298030
     24          7           0      -27.844462    1.357300   -0.728694
     25          6           0      -29.138402    1.418439   -0.378935
     26          6           0      -29.862764    2.680068   -1.086452
     27          6           0      -28.916277    2.799033   -2.378531
     28          6           0      -27.680918    2.114273   -1.844143
     29          6           0      -31.343499    2.493344   -1.428862
     30          6           0      -28.783027    4.244833   -2.889945
     31          6           0      -28.950566    4.568654   -4.379209
     32          7           0      -25.148024    0.617956   -1.226803
     33          6           0      -25.221558    1.519311   -2.281520
     34          6           0      -24.011181    1.571920   -3.005264
     35          6           0      -23.197682    0.629413   -2.398254
     36          6           0      -23.931136    0.056189   -1.299721
     37          6           0      -23.699756    2.395569   -4.216504
     38          6           0      -21.981612   -0.071205   -2.384566
     39          8           0      -21.029643    0.077514   -3.148056
     40          6           0      -21.894489   -0.910180   -1.077895
     41          6           0      -21.492812   -2.289227   -1.580083
     42          8           0      -20.523546   -2.941613   -1.137715
     43          8           0      -22.458787   -2.702615   -2.466981
     44          6           0      -22.523389   -4.097429   -2.967778
     45          1           0      -26.099115   -2.172428    4.165098
     46          1           0      -30.664856    1.310535    1.058963
     47          1           0      -26.480905    2.821127   -3.459704
     48          1           0      -22.373333   -2.883828    1.435657
     49          1           0      -23.446308   -1.506057    3.845084
     50          1           0      -24.528436   -4.062062    3.885148
     51          1           0      -22.980392   -3.492289    4.649689
     52          1           0      -23.032069   -4.226088    3.083231
     53          1           0      -20.491524   -1.609817    1.635381
     54          1           0      -21.127966   -1.492601    3.311125
     55          1           0      -22.083142    0.724525    1.851067
     56          1           0      -20.415074    0.426524    1.492477
     57          1           0      -28.173207   -2.877296    4.940230
     58          1           0      -29.862731   -2.383565    5.151380
     59          1           0      -28.560239   -1.288162    5.647093
     60          1           0      -31.902666   -0.249374    1.353318
     61          1           0      -32.431238    1.101478    2.413822
     62          1           0      -33.389052   -0.372084    2.389787
     63          1           0      -29.661697    3.534400   -0.439373
     64          1           0      -29.162410    2.210980   -3.262332
     65          1           0      -31.402300    2.354574   -2.508738
     66          1           0      -31.942371    3.274238   -0.961091
     67          1           0      -31.772577    1.589885   -0.996576
     68          1           0      -27.793686    4.589462   -2.587872
     69          1           0      -29.445730    4.870816   -2.292203
     70          1           0      -29.615480    5.383920   -4.664799
     71          1           0      -29.167235    3.687521   -4.984582
     72          1           0      -27.919856    4.747749   -4.683583
     73          1           0      -23.027831    1.919783   -4.931226
     74          1           0      -23.251273    3.333576   -3.888414
     75          1           0      -24.579042    2.623638   -4.820368
     76          1           0      -21.110625   -0.400524   -0.518943
     77          1           0      -23.546024   -4.463504   -3.057245
     78          1           0      -21.976334   -4.732357   -2.270670
     79          1           0      -22.091014   -4.363099   -3.931629
     80         12           0       25.845040    0.703410    0.429766
     81          6           0       26.178033   -2.595874   -0.500697
     82          6           0       23.316767    1.046418   -2.071926
     83          6           0       25.717951    3.930586    1.005832
     84          6           0       28.434304    0.357753    2.740560
     85          7           0       24.912839   -0.678706   -1.065009
     86          6           0       25.182394   -1.976240   -1.236247
     87          6           0       24.195313   -2.562093   -2.297906
     88          6           0       23.395725   -1.297404   -2.856895
     89          6           0       23.954344   -0.180921   -1.953662
     90          6           0       23.693035   -0.868484   -4.280895
     91          6           0       23.310990   -3.711439   -1.791319
     92          6           0       23.375172   -4.911526   -2.721032
     93          1           0       22.206053   -5.902428   -2.817934
     94          7           0       24.615175    2.241887   -0.372047
     95          6           0       23.632594    2.199949   -1.318791
     96          6           0       23.019485    3.438949   -1.502869
     97          6           0       23.771368    4.369335   -0.703877
     98          6           0       24.759752    3.520997    0.047772
     99          6           0       21.841450    3.678321   -2.436041
    100          6           0       23.658065    5.883680   -0.638539
    101          8           0       24.525058    6.516466   -0.005092
    102          6           0       22.631674    6.623906   -1.394802
    103          7           0       26.894624    1.899133    1.696509
    104          6           0       26.638993    3.247957    1.834726
    105          6           0       27.569644    3.988733    2.865326
    106          6           0       28.216638    2.725430    3.578168
    107          6           0       27.850287    1.585040    2.610791
    108          6           0       28.669324    5.019589    2.392599
    109          6           0       27.927548    2.494557    5.130739
    110          6           0       26.576327    1.917447    5.460663
    111          7           0       27.157294   -0.703742    0.941519
    112          6           0       28.168089   -0.756345    1.882350
    113          6           0       28.788993   -2.016614    1.929050
    114          6           0       28.005834   -2.758675    1.037415
    115          6           0       27.006944   -1.931486    0.446089
    116          6           0       29.869446   -2.324452    2.876049
    117          6           0       27.985462   -4.045088    0.455027
    118          8           0       28.792607   -4.961372    0.623452
    119          6           0       26.752810   -4.048053   -0.591653
    120          6           0       27.251972   -4.390835   -1.911712
    121          8           0       27.887747   -3.678464   -2.654620
    122          8           0       27.014536   -5.669363   -2.177810
    123          6           0       27.538337   -6.238365   -3.382667
    124          1           0       22.582872    1.153949   -2.872823
    125          1           0       25.793543    4.978756    1.301527
    126          1           0       29.241319    0.293747    3.473486
    127          1           0       24.906179   -2.889678   -3.055827
    128          1           0       22.349220   -1.604101   -2.867739
    129          1           0       24.356606   -1.539334   -4.827370
    130          1           0       24.206642    0.092544   -4.284611
    131          1           0       22.761467   -0.643286   -4.800972
    132          1           0       22.265288   -3.450276   -1.627902
    133          1           0       23.668977   -3.987906   -0.799875
    134          1           0       24.180067   -5.540013   -2.338196
    135          1           0       23.573351   -4.509041   -3.714247
    136          1           0       21.399586    2.741535   -2.775737
    137          1           0       22.211635    4.127329   -3.357963
    138          1           0       21.139000    4.391721   -2.006702
    139          1           0       22.927466    7.664381   -1.533702
    140          1           0       21.733300    6.637137   -0.776894
    141          1           0       22.470426    6.161168   -2.368141
    142          1           0       27.005288    4.445107    3.679170
    143          1           0       29.296085    2.866954    3.614385
    144          1           0       28.607285    5.094278    1.307648
    145          1           0       29.652177    4.560125    2.504732
    146          1           0       28.676319    6.012537    2.843091
    147          1           0       27.930152    3.485302    5.584526
    148          1           0       28.709338    1.942616    5.651136
    149          1           0       26.702204    1.319172    6.362386
    150          1           0       26.014279    1.344194    4.724447
    151          1           0       25.920351    2.766467    5.652977
    152          1           0       29.883364   -1.813589    3.838485
    153          1           0       30.874771   -2.366265    2.458655
    154          1           0       29.677835   -3.380377    3.065165
    155          1           0       26.040728   -4.804226   -0.261700
    156          1           0       26.851653   -6.133944   -4.223482
    157          1           0       27.639792   -7.309078   -3.206480
    158          1           0       28.479392   -5.753407   -3.642595
 ---------------------------------------------------------------------

 SCF Done:  E(RwB97XD) =  -4070.57280304     A.U. after   19 cycles

 Excitation energies and oscillator strengths:

 Excited State   1:      Singlet-A      1.5769 eV  786.25 nm  f=0.3873  <S**2>=0.000
     309 -> 315        0.17492
     311 -> 313        0.68654
     309 <- 315        0.11857
 This state for optimization and/or second-order correction.
 Total Energy, E(TD-HF/TD-DFT) =  -4070.51485315
 Copying the excited state density for this state as the 1-particle RhoCI density.

 Excited State   2:      Singlet-A      1.6477 eV  752.49 nm  f=0.4150  <S**2>=0.000
     310 -> 316        0.17813
     312 -> 314        0.68444
     310 <- 316        0.11439

 Excited State   3:      Singlet-A      2.0921 eV  592.64 nm  f=0.1442  <S**2>=0.000
     309 -> 313        0.64990
     311 -> 315       -0.25883

 Excited State   4:      Singlet-A      2.1651 eV  572.65 nm  f=0.1559  <S**2>=0.000
     310 -> 314        0.65106
     312 -> 316       -0.25708

 Excited State   5:      Singlet-A      3.0076 eV  412.24 nm  f=0.0074  <S**2>=0.000
     307 -> 313       -0.21862
     308 -> 313        0.63553
     308 -> 317       -0.12409

 The electronic state is 1-A.
 Alpha  occ. eigenvalues --  -46.96337 -46.94026 -19.31514 -19.29999 -19.25363
 Alpha  occ. eigenvalues --  -19.23645 -19.23639 -19.23525 -19.23284 -19.22215
 Alpha  occ. eigenvalues --  -14.47212 -14.46883 -14.46776 -14.46683 -14.44641
 Alpha  occ. eigenvalues --  -14.44323 -14.44311 -14.43551 -10.44432 -10.42079
 Alpha  occ. eigenvalues --  -10.38833 -10.38514 -10.38389 -10.37498 -10.36604
 Alpha  occ. eigenvalues --  -10.36180 -10.35695 -10.35551 -10.35229 -10.35147
 Alpha  occ. eigenvalues --  -10.35046 -10.34957 -10.34913 -10.34893 -10.34793
 Alpha  occ. eigenvalues --  -10.34730 -10.34185 -10.34128 -10.33481 -10.33402
 Alpha  occ. eigenvalues --  -10.33077 -10.33038 -10.32990 -10.32967 -10.32614
 Alpha  occ. eigenvalues --  -10.32602 -10.32542 -10.32470 -10.32425 -10.32399
 Alpha  occ. eigenvalues --  -10.32397 -10.32392 -10.32292 -10.32028 -10.32005
 Alpha  occ. eigenvalues --  -10.31954 -10.31908 -10.31726 -10.31635 -10.31626
 Alpha  occ. eigenvalues --  -10.31623 -10.31608 -10.31593 -10.31375 -10.31312
 Alpha  occ. eigenvalues --  -10.31221 -10.30787 -10.30785 -10.30742 -10.30726
 Alpha  occ. eigenvalues --  -10.30708 -10.30508 -10.30283 -10.30248 -10.30239
 Alpha  occ. eigenvalues --  -10.30159 -10.30099 -10.30012 -10.29945 -10.29657
 Alpha  occ. eigenvalues --  -10.29610 -10.29410 -10.29033 -10.28970 -10.28755
 Alpha  occ. eigenvalues --  -10.28654  -3.22272  -3.20217  -1.95812  -1.95428
 Alpha  occ. eigenvalues --   -1.95212  -1.93813  -1.93365  -1.93196  -1.20082
 Alpha  occ. eigenvalues --   -1.17925  -1.13610  -1.11692  -1.11071  -1.10713
 Alpha  occ. eigenvalues --   -1.09944  -1.09526  -1.07246  -1.06594  -1.06466
 Alpha  occ. eigenvalues --   -1.05742  -1.05319  -1.04969  -1.04569  -1.04196
 Alpha  occ. eigenvalues --   -0.95781  -0.94033  -0.91753  -0.91264  -0.90663
 Alpha  occ. eigenvalues --   -0.90634  -0.90349  -0.90195  -0.89948  -0.89567
 Alpha  occ. eigenvalues --   -0.89433  -0.89222  -0.88716  -0.87823  -0.86507
 Alpha  occ. eigenvalues --   -0.86491  -0.85947  -0.85739  -0.85043  -0.84821
 Alpha  occ. eigenvalues --   -0.84312  -0.84133  -0.83133  -0.82975  -0.82588
 Alpha  occ. eigenvalues --   -0.82553  -0.80503  -0.80300  -0.79788  -0.79239
 Alpha  occ. eigenvalues --   -0.78952  -0.78819  -0.78689  -0.77869  -0.77471
 Alpha  occ. eigenvalues --   -0.77201  -0.75627  -0.75424  -0.73781  -0.73410
 Alpha  occ. eigenvalues --   -0.72006  -0.71546  -0.71419  -0.70816  -0.70390
 Alpha  occ. eigenvalues --   -0.69733  -0.69074  -0.68600  -0.68239  -0.67546
 Alpha  occ. eigenvalues --   -0.67325  -0.66905  -0.66731  -0.66557  -0.66419
 Alpha  occ. eigenvalues --   -0.66338  -0.65641  -0.64286  -0.62408  -0.62323
 Alpha  occ. eigenvalues --   -0.61973  -0.61493  -0.60980  -0.60893  -0.60481
 Alpha  occ. eigenvalues --   -0.60290  -0.60088  -0.59653  -0.59614  -0.59249
 Alpha  occ. eigenvalues --   -0.58540  -0.58490  -0.58082  -0.57838  -0.57298
 Alpha  occ. eigenvalues --   -0.57103  -0.57082  -0.56575  -0.56435  -0.56282
 Alpha  occ. eigenvalues --   -0.55995  -0.55439  -0.55320  -0.55127  -0.55117
 Alpha  occ. eigenvalues --   -0.54687  -0.54464  -0.54436  -0.54223  -0.54084
 Alpha  occ. eigenvalues --   -0.54002  -0.53789  -0.53767  -0.53658  -0.53363
 Alpha  occ. eigenvalues --   -0.53268  -0.53079  -0.52680  -0.52584  -0.52257
 Alpha  occ. eigenvalues --   -0.52203  -0.51948  -0.51915  -0.51664  -0.51589
 Alpha  occ. eigenvalues --   -0.51487  -0.51404  -0.51159  -0.51144  -0.51062
 Alpha  occ. eigenvalues --   -0.50979  -0.50855  -0.50313  -0.50174  -0.50050
 Alpha  occ. eigenvalues --   -0.49855  -0.49696  -0.49517  -0.49324  -0.49273
 Alpha  occ. eigenvalues --   -0.49189  -0.49075  -0.48853  -0.48796  -0.48440
 Alpha  occ. eigenvalues --   -0.48411  -0.48297  -0.48098  -0.47934  -0.47612
 Alpha  occ. eigenvalues --   -0.47505  -0.47426  -0.47334  -0.47298  -0.47042
 Alpha  occ. eigenvalues --   -0.47002  -0.46853  -0.46846  -0.46502  -0.46282
 Alpha  occ. eigenvalues --   -0.46159  -0.45973  -0.45824  -0.45547  -0.45423
 Alpha  occ. eigenvalues --   -0.45339  -0.45186  -0.45018  -0.44698  -0.44596
 Alpha  occ. eigenvalues --   -0.44585  -0.44472  -0.44409  -0.44080  -0.43969
 Alpha  occ. eigenvalues --   -0.43909  -0.43684  -0.43509  -0.43450  -0.43409
 Alpha  occ. eigenvalues --   -0.43319  -0.43239  -0.42997  -0.42894  -0.42488
 Alpha  occ. eigenvalues --   -0.42366  -0.42215  -0.41096  -0.40979  -0.40847
 Alpha  occ. eigenvalues --   -0.40664  -0.40088  -0.39981  -0.39646  -0.39473
 Alpha  occ. eigenvalues --   -0.39153  -0.39014  -0.38616  -0.38319  -0.38190
 Alpha  occ. eigenvalues --   -0.38099  -0.37573  -0.36836  -0.36214  -0.35888
 Alpha  occ. eigenvalues --   -0.35782  -0.35369  -0.35354  -0.33835  -0.33658
 Alpha  occ. eigenvalues --   -0.33103  -0.32704  -0.32617  -0.32539  -0.32207
 Alpha  occ. eigenvalues --   -0.31930  -0.31562  -0.30430  -0.26420  -0.26031
 Alpha  occ. eigenvalues --   -0.23556  -0.23274
 Alpha virt. eigenvalues --   -0.08073  -0.07450  -0.00056   0.00511   0.02302
 Alpha virt. eigenvalues --    0.02549   0.04043   0.04596   0.04799   0.06230
 Alpha virt. eigenvalues --    0.06617   0.07324   0.07939   0.08261   0.08464

 Mulliken charges:
               1
     1  Mg   0.958523
     2  C    0.008450
     3  C   -0.083286
     4  C   -0.083857
     5  C   -0.096693
     6  N   -0.330784
     7  C   -0.005574
     8  C   -0.018927
     9  C   -0.091811
    10  C    0.035694
    11  C    0.041613
    12  C   -0.010291
    13  C   -0.168876
    14  H    0.029981
    15  N   -0.448271
    16  C    0.171518
    17  C   -0.181719
    18  C   -0.096694
    19  C    0.137236
    20  C    0.086354
    21  C    0.013493
    22  O   -0.209769
    23  C   -0.014966
    24  N   -0.361590
    25  C    0.084223
    26  C   -0.139048
    27  C   -0.084276
    28  C    0.074684
    29  C    0.050068
    30  C   -0.015331
    31  C   -0.044748
    32  N   -0.442110
    33  C    0.139458
    34  C   -0.188060
    35  C    0.058619
    36  C    0.109821
    37  C    0.078508
    38  C    0.062366
    39  O   -0.216475
    40  C   -0.121661
    41  C    0.313025
    42  O   -0.256668
    43  O   -0.379218
    44  C    0.145008
    45  H    0.008454
    46  H    0.003770
    47  H   -0.014225
    48  H    0.042109
    49  H    0.049760
    50  H    0.035492
    51  H    0.041452
    52  H    0.026931
    53  H    0.059039
    54  H    0.045072
    55  H    0.064521
    56  H    0.055824
    57  H    0.031670
    58  H    0.063217
    59  H    0.053816
    60  H    0.032386
    61  H    0.070927
    62  H    0.058009
    63  H    0.056112
    64  H    0.040617
    65  H    0.038909
    66  H    0.039589
    67  H    0.032354
    68  H    0.030257
    69  H    0.027718
    70  H    0.056421
    71  H    0.025825
    72  H    0.030874
    73  H    0.060942
    74  H    0.060867
    75  H    0.031936
    76  H    0.065607
    77  H    0.053587
    78  H    0.053922
    79  H    0.058304
    80  Mg   0.992368
    81  C   -0.044696
    82  C   -0.105346
    83  C   -0.051612
    84  C   -0.104100
    85  N   -0.349941
    86  C   -0.028339
    87  C   -0.021252
    88  C   -0.162891
    89  C    0.116331
    90  C    0.006242
    91  C    0.037882
    92  C   -0.145918
    93  H    0.028868
    94  N   -0.425433
    95  C    0.160304
    96  C   -0.175189
    97  C   -0.074136
    98  C    0.171392
    99  C    0.066583
   100  C    0.038165
   101  O   -0.260180
   102  C    0.004569
   103  N   -0.396072
   104  C    0.027678
   105  C   -0.070233
   106  C   -0.076014
   107  C    0.086949
   108  C    0.029260
   109  C   -0.031228
   110  C   -0.058243
   111  N   -0.470494
   112  C    0.132193
   113  C   -0.134551
   114  C   -0.037842
   115  C    0.195411
   116  C    0.072426
   117  C    0.096111
   118  O   -0.219412
   119  C   -0.078207
   120  C    0.235517
   121  O   -0.251519
   122  O   -0.328065
   123  C    0.135829
   124  H   -0.002071
   125  H    0.021842
   126  H   -0.004699
   127  H    0.033195
   128  H    0.043002
   129  H    0.043816
   130  H    0.040393
   131  H    0.035211
   132  H    0.039581
   133  H    0.030027
   134  H    0.063195
   135  H    0.056136
   136  H    0.042465
   137  H    0.057041
   138  H    0.056369
   139  H    0.055874
   140  H    0.067049
   141  H    0.045008
   142  H    0.038419
   143  H    0.027394
   144  H    0.039881
   145  H    0.027318
   146  H    0.056777
   147  H    0.029183
   148  H    0.032949
   149  H    0.037801
   150  H    0.047645
   151  H    0.028761
   152  H    0.045977
   153  H    0.055565
   154  H    0.045387
   155  H    0.065556
   156  H    0.042560
   157  H    0.055539
   158  H    0.066689
 Sum of Mulliken charges =  -0.00000

 Dipole moment (field-independent basis, Debye):
    X=             -7.2261    Y=              2.4603    Z=             -2.6423  Tot=              8.0778
 Quadrupole moment (field-independent basis, Debye-Ang):
   XX=           -576.6226   YY=           -505.7108   ZZ=           -486.1919
   XY=             29.1465   XZ=            129.8618   YZ=              4.8950

 Normal termination of Gaussian 16 at Sat Sep 18 22:39:08 2021.
