 Gaussian 16, Revision A.03,
 Gaussian 16:  ES64L-G16RevA.03 25-Dec-2016

 --------------------------------
 #p wB97XD/Def2SVP td=(nstates=5)
 --------------------------------

 --------------------------------
 TDDFT excited states in gaussian
 --------------------------------
 Symbolic Z-matrix:
 Charge =  0 Multiplicity = 1

                         Standard orientation:
 ---------------------------------------------------------------------
 Center     Atomic      Atomic             Coordinates (Angstroms)
 Number     Number       Type             X           Y           Z
 ---------------------------------------------------------------------
      1         12           0      -20.680769    0.154206    0.129684
      2          6           0      -17.669025    1.422345   -0.824894
      3          6           0      -21.230539   -0.668942   -3.194383
      4          6           0      -23.466979   -1.430694    1.128546
      5          6           0      -19.739556    0.419819    3.510415
      6          7           0      -19.439667    0.130776   -1.754750
      7          6           0      -18.250944    0.758558   -1.855751
      8          6           0      -17.643361    0.614158   -3.203107
      9          6           0      -19.010407    0.258392   -4.061663
     10          6           0      -19.997363   -0.130121   -2.940725
     11          6           0      -19.475076    1.432797   -4.972624
     12          6           0      -16.646064   -0.533498   -3.196210
     13          6           0      -17.125138   -1.982123   -2.719022
     14          1           0      -16.642826   -3.231757   -3.445100
     15          7           0      -22.141463   -0.899548   -0.874044
     16          6           0      -22.272005   -1.017812   -2.280902
     17          6           0      -23.557685   -1.576958   -2.534930
     18          6           0      -24.213826   -1.859326   -1.343253
     19          6           0      -23.327088   -1.372919   -0.272887
     20          6           0      -23.971863   -1.782178   -3.977889
     21          6           0      -25.526611   -2.583695   -1.164055
     22          8           0      -26.088949   -2.959346   -2.222771
     23          6           0      -26.065453   -3.051307    0.068838
     24          7           0      -21.367277   -0.608961    2.060885
     25          6           0      -22.600336   -1.175975    2.196403
     26          6           0      -22.903538   -1.512541    3.676097
     27          6           0      -21.671434   -0.898833    4.422601
     28          6           0      -20.827839   -0.391517    3.265287
     29          6           0      -24.242010   -0.990107    4.152657
     30          6           0      -20.930711   -2.008818    5.342819
     31          6           0      -20.493521   -1.490086    6.717505
     32          7           0      -19.021815    0.803696    1.241235
     33          6           0      -18.844234    1.048101    2.565385
     34          6           0      -17.663731    1.859736    2.685952
     35          6           0      -17.131364    2.106848    1.373316
     36          6           0      -17.993065    1.411449    0.541246
     37          6           0      -16.950120    2.156647    3.960264
     38          6           0      -16.086727    2.655760    0.569903
     39          8           0      -15.148141    3.332697    1.008276
     40          6           0      -16.415794    2.267626   -0.859760
     41          6           0      -16.557923    3.505582   -1.664160
     42          8           0      -15.631692    4.290896   -1.712608
     43          8           0      -17.723638    3.598802   -2.361294
     44          6           0      -17.865616    4.806030   -3.177602
     45          1           0      -21.522352   -0.675944   -4.246533
     46          1           0      -24.474866   -1.730265    1.422711
     47          1           0      -19.460168    0.698996    4.528794
     48          1           0      -17.103902    1.465267   -3.618798
     49          1           0      -18.807942   -0.502823   -4.816219
     50          1           0      -19.510069    1.106565   -6.011428
     51          1           0      -18.715294    2.210911   -4.894676
     52          1           0      -20.431636    1.875988   -4.692690
     53          1           0      -15.770922   -0.190145   -2.644161
     54          1           0      -16.251305   -0.496616   -4.211474
     55          1           0      -18.202631   -2.147289   -2.717138
     56          1           0      -16.688237   -2.037673   -1.722386
     57          1           0      -23.552352   -2.746906   -4.263831
     58          1           0      -23.503451   -1.013751   -4.591608
     59          1           0      -25.042849   -1.765221   -4.182100
     60          1           0      -26.672474   -3.946814   -0.067873
     61          1           0      -26.558109   -2.273297    0.653435
     62          1           0      -25.205848   -3.438192    0.614422
     63          1           0      -22.864782   -2.602295    3.692075
     64          1           0      -21.985980   -0.010256    4.969613
     65          1           0      -24.849909   -0.544161    3.365904
     66          1           0      -24.320621   -0.357988    5.036749
     67          1           0      -24.802929   -1.909219    4.324586
     68          1           0      -20.037169   -2.435236    4.886789
     69          1           0      -21.543581   -2.899028    5.483178
     70          1           0      -21.154166   -1.925026    7.466998
     71          1           0      -20.678580   -0.416185    6.749818
     72          1           0      -19.458655   -1.735940    6.956146
     73          1           0      -17.438552    2.826367    4.667059
     74          1           0      -15.985315    2.564494    3.656394
     75          1           0      -16.773678    1.257567    4.550806
     76          1           0      -15.558968    1.699533   -1.223178
     77          1           0      -17.024834    4.838611   -3.871107
     78          1           0      -17.958636    5.719189   -2.589516
     79          1           0      -18.833757    4.819428   -3.678011
     80         12           0       19.933472   -0.767014   -0.060248
     81          6           0       21.263219    2.358526   -0.151216
     82          6           0       16.803145    0.355876    0.858036
     83          6           0       18.873751   -4.015421    0.159306
     84          6           0       23.258460   -2.093603   -0.585130
     85          7           0       19.208698    1.114072    0.504969
     86          6           0       19.866960    2.336876    0.142577
     87          6           0       18.928813    3.475870    0.190691
     88          6           0       17.667561    2.812710    0.906000
     89          6           0       17.863116    1.318708    0.774445
     90          6           0       17.521249    3.235704    2.452563
     91          6           0       18.717114    4.206160   -1.171086
     92          6           0       18.742698    5.699290   -1.104936
     93          1           0       18.033586    6.351559    0.146699
     94          7           0       18.068285   -1.698724    0.370519
     95          6           0       16.946181   -1.014163    0.731938
     96          6           0       15.907275   -1.967016    0.924243
     97          6           0       16.437603   -3.286342    0.642552
     98          6           0       17.878709   -3.063716    0.285463
     99          6           0       14.511105   -1.566672    1.449074
    100          6           0       15.824562   -4.651546    0.615236
    101          8           0       16.385095   -5.742876    0.464031
    102          6           0       14.254977   -4.682610    0.748893
    103          7           0       20.956875   -2.831984   -0.090238
    104          6           0       20.277926   -3.951995   -0.079522
    105          6           0       21.128493   -5.153005   -0.487869
    106          6           0       22.528216   -4.516332   -0.722002
    107          6           0       22.250072   -3.042655   -0.432312
    108          6           0       21.159493   -6.329097    0.615182
    109          6           0       22.960481   -4.771802   -2.232996
    110          6           0       22.199635   -4.104300   -3.405203
    111          7           0       21.907734   -0.043184   -0.158032
    112          6           0       23.098824   -0.692414   -0.422644
    113          6           0       24.110304    0.363617   -0.631202
    114          6           0       23.503261    1.581445   -0.560949
    115          6           0       22.128819    1.264105   -0.261186
    116          6           0       25.574789    0.108620   -0.731427
    117          6           0       23.663973    3.033028   -0.642092
    118          8           0       24.649750    3.722258   -0.843680
    119          6           0       22.192113    3.571354   -0.364262
    120          6           0       22.246406    4.361794    0.882300
    121          8           0       22.646834    3.998955    2.002110
    122          8           0       21.759977    5.600088    0.515058
    123          6           0       21.539553    6.522849    1.636295
    124          1           0       15.786350    0.673683    1.097378
    125          1           0       18.442010   -5.018675    0.130189
    126          1           0       24.254131   -2.472857   -0.821794
    127          1           0       19.411864    4.193711    0.854825
    128          1           0       16.776742    3.107586    0.352226
    129          1           0       18.133639    4.093415    2.730793
    130          1           0       17.963472    2.422902    3.028494
    131          1           0       16.443710    3.315475    2.590132
    132          1           0       17.753695    3.921417   -1.594084
    133          1           0       19.559282    3.850254   -1.764370
    134          1           0       18.208725    6.171762   -1.928463
    135          1           0       19.676750    6.257811   -1.167325
    136          1           0       13.849005   -1.093228    0.724202
    137          1           0       14.758165   -0.934544    2.301835
    138          1           0       13.897315   -2.424700    1.722371
    139          1           0       13.984129   -4.455714    1.780068
    140          1           0       13.897711   -5.605017    0.291409
    141          1           0       13.747047   -3.971698    0.096871
    142          1           0       20.748178   -5.539435   -1.433156
    143          1           0       23.308274   -4.928380   -0.081759
    144          1           0       20.536763   -7.129263    0.213523
    145          1           0       20.722446   -5.978279    1.550631
    146          1           0       22.102784   -6.815935    0.859449
    147          1           0       23.047070   -5.820501   -2.516844
    148          1           0       23.947932   -4.309215   -2.243750
    149          1           0       22.958123   -3.449128   -3.833850
    150          1           0       21.302821   -3.578587   -3.079809
    151          1           0       21.854322   -4.805892   -4.164527
    152          1           0       25.907090    0.901408   -1.400916
    153          1           0       25.807498   -0.882611   -1.120987
    154          1           0       26.021103    0.419143    0.212381
    155          1           0       22.090807    4.245096   -1.214680
    156          1           0       21.277581    7.447175    1.120607
    157          1           0       22.514281    6.658923    2.104800
    158          1           0       20.865580    6.168911    2.416688
 ---------------------------------------------------------------------

 SCF Done:  E(RwB97XD) =  -4070.60656447     A.U. after   20 cycles

 Excitation energies and oscillator strengths:

 Excited State   1:      Singlet-A      1.6461 eV  753.18 nm  f=0.3907  <S**2>=0.000
     309 -> 315       -0.19179
     312 -> 314        0.68160
     309 <- 315       -0.11818
 This state for optimization and/or second-order correction.
 Total Energy, E(TD-HF/TD-DFT) =  -4070.54606980
 Copying the excited state density for this state as the 1-particle RhoCI density.

 Excited State   2:      Singlet-A      1.6886 eV  734.22 nm  f=0.3824  <S**2>=0.000
     310 -> 316        0.18193
     311 -> 313        0.68303
     310 <- 316        0.11274

 Excited State   3:      Singlet-A      2.1633 eV  573.12 nm  f=0.1259  <S**2>=0.000
     310 -> 313        0.64778
     311 -> 316       -0.25636

 Excited State   4:      Singlet-A      2.2139 eV  560.02 nm  f=0.0444  <S**2>=0.000
     309 -> 314        0.60812
     312 -> 315        0.34954

 Excited State   5:      Singlet-A      3.2088 eV  386.39 nm  f=0.0008  <S**2>=0.000
     306 -> 313       -0.33829
     308 -> 313        0.59856

 The electronic state is 1-A.
 Alpha  occ. eigenvalues --  -46.95582 -46.95504 -19.31627 -19.30844 -19.25180
 Alpha  occ. eigenvalues --  -19.24566 -19.24554 -19.24456 -19.23347 -19.23271
 Alpha  occ. eigenvalues --  -14.46880 -14.46758 -14.46707 -14.46689 -14.44481
 Alpha  occ. eigenvalues --  -14.44093 -14.44046 -14.43211 -10.43348 -10.43334
 Alpha  occ. eigenvalues --  -10.39711 -10.39403 -10.38851 -10.38475 -10.36521
 Alpha  occ. eigenvalues --  -10.36046 -10.35793 -10.35776 -10.35553 -10.35372
 Alpha  occ. eigenvalues --  -10.35271 -10.34871 -10.34538 -10.34512 -10.34408
 Alpha  occ. eigenvalues --  -10.34219 -10.34121 -10.33946 -10.33541 -10.33427
 Alpha  occ. eigenvalues --  -10.33201 -10.33068 -10.33027 -10.32760 -10.32633
 Alpha  occ. eigenvalues --  -10.32540 -10.32492 -10.32470 -10.32457 -10.32428
 Alpha  occ. eigenvalues --  -10.32369 -10.32201 -10.32152 -10.32130 -10.31987
 Alpha  occ. eigenvalues --  -10.31923 -10.31845 -10.31787 -10.31631 -10.31562
 Alpha  occ. eigenvalues --  -10.31515 -10.31476 -10.31467 -10.31405 -10.31404
 Alpha  occ. eigenvalues --  -10.31378 -10.31377 -10.31302 -10.31227 -10.30964
 Alpha  occ. eigenvalues --  -10.30815 -10.30457 -10.30440 -10.30420 -10.30374
 Alpha  occ. eigenvalues --  -10.30322 -10.30252 -10.29728 -10.29702 -10.29554
 Alpha  occ. eigenvalues --  -10.29455 -10.29403 -10.29289 -10.28851 -10.28717
 Alpha  occ. eigenvalues --  -10.28590  -3.21438  -3.21410  -1.95027  -1.94971
 Alpha  occ. eigenvalues --   -1.94550  -1.94550  -1.94407  -1.94359  -1.19615
 Alpha  occ. eigenvalues --   -1.18103  -1.12401  -1.11842  -1.11274  -1.10667
 Alpha  occ. eigenvalues --   -1.10240  -1.09630  -1.07108  -1.07018  -1.06578
 Alpha  occ. eigenvalues --   -1.05759  -1.04932  -1.04777  -1.03710  -1.03635
 Alpha  occ. eigenvalues --   -0.96086  -0.94310  -0.91275  -0.91013  -0.90944
 Alpha  occ. eigenvalues --   -0.90670  -0.90642  -0.89881  -0.89747  -0.89180
 Alpha  occ. eigenvalues --   -0.88824  -0.88376  -0.88207  -0.87816  -0.87055
 Alpha  occ. eigenvalues --   -0.86557  -0.86044  -0.85324  -0.85256  -0.84739
 Alpha  occ. eigenvalues --   -0.84272  -0.83450  -0.83429  -0.83157  -0.82891
 Alpha  occ. eigenvalues --   -0.81905  -0.80606  -0.80025  -0.80007  -0.79259
 Alpha  occ. eigenvalues --   -0.79112  -0.79007  -0.78096  -0.77706  -0.76966
 Alpha  occ. eigenvalues --   -0.76895  -0.74515  -0.74422  -0.74152  -0.74148
 Alpha  occ. eigenvalues --   -0.72117  -0.71771  -0.71198  -0.71111  -0.70823
 Alpha  occ. eigenvalues --   -0.70299  -0.69424  -0.69202  -0.68515  -0.67382
 Alpha  occ. eigenvalues --   -0.67244  -0.67234  -0.66925  -0.66653  -0.66399
 Alpha  occ. eigenvalues --   -0.66348  -0.65842  -0.64487  -0.62302  -0.62259
 Alpha  occ. eigenvalues --   -0.61744  -0.61369  -0.61362  -0.60887  -0.60770
 Alpha  occ. eigenvalues --   -0.60748  -0.60413  -0.60065  -0.59912  -0.59463
 Alpha  occ. eigenvalues --   -0.58782  -0.58613  -0.57885  -0.57810  -0.57455
 Alpha  occ. eigenvalues --   -0.57128  -0.56922  -0.56883  -0.56505  -0.56347
 Alpha  occ. eigenvalues --   -0.56252  -0.55737  -0.55476  -0.55435  -0.55127
 Alpha  occ. eigenvalues --   -0.55099  -0.55061  -0.54494  -0.54286  -0.54179
 Alpha  occ. eigenvalues --   -0.54061  -0.53883  -0.53847  -0.53749  -0.53432
 Alpha  occ. eigenvalues --   -0.53378  -0.53054  -0.52964  -0.52848  -0.52817
 Alpha  occ. eigenvalues --   -0.52358  -0.51803  -0.51611  -0.51548  -0.51468
 Alpha  occ. eigenvalues --   -0.51205  -0.51083  -0.50869  -0.50735  -0.50621
 Alpha  occ. eigenvalues --   -0.50472  -0.50454  -0.50446  -0.50374  -0.50103
 Alpha  occ. eigenvalues --   -0.50061  -0.49598  -0.49583  -0.49286  -0.49153
 Alpha  occ. eigenvalues --   -0.49068  -0.48781  -0.48693  -0.48681  -0.48449
 Alpha  occ. eigenvalues --   -0.48413  -0.48105  -0.48041  -0.47752  -0.47709
 Alpha  occ. eigenvalues --   -0.47594  -0.47491  -0.47178  -0.47096  -0.46857
 Alpha  occ. eigenvalues --   -0.46681  -0.46623  -0.46556  -0.46513  -0.46468
 Alpha  occ. eigenvalues --   -0.45831  -0.45729  -0.45546  -0.45395  -0.45147
 Alpha  occ. eigenvalues --   -0.44918  -0.44853  -0.44784  -0.44709  -0.44363
 Alpha  occ. eigenvalues --   -0.44277  -0.44266  -0.44224  -0.44044  -0.43991
 Alpha  occ. eigenvalues --   -0.43869  -0.43850  -0.43774  -0.43589  -0.43418
 Alpha  occ. eigenvalues --   -0.43338  -0.43113  -0.42972  -0.42668  -0.42384
 Alpha  occ. eigenvalues --   -0.42383  -0.41666  -0.41461  -0.41379  -0.41130
 Alpha  occ. eigenvalues --   -0.40696  -0.39832  -0.39826  -0.39742  -0.39506
 Alpha  occ. eigenvalues --   -0.39502  -0.39078  -0.39029  -0.38692  -0.38330
 Alpha  occ. eigenvalues --   -0.38248  -0.37926  -0.36755  -0.36604  -0.36180
 Alpha  occ. eigenvalues --   -0.36013  -0.35694  -0.35332  -0.34029  -0.33401
 Alpha  occ. eigenvalues --   -0.33104  -0.32942  -0.32852  -0.32503  -0.32433
 Alpha  occ. eigenvalues --   -0.32345  -0.32065  -0.31171  -0.26328  -0.26258
 Alpha  occ. eigenvalues --   -0.23511  -0.22740
 Alpha virt. eigenvalues --   -0.07531  -0.06810  -0.00442   0.00016   0.01827
 Alpha virt. eigenvalues --    0.02181   0.04088   0.04248   0.04431   0.05078
 Alpha virt. eigenvalues --    0.06960   0.07322   0.07471   0.07829   0.07988

 Mulliken charges:
               1
     1  Mg   0.931576
     2  C   -0.001011
     3  C   -0.065733
     4  C   -0.091431
     5  C   -0.077562
     6  N   -0.307105
     7  C    0.004060
     8  C   -0.074637
     9  C   -0.126133
    10  C    0.080142
    11  C    0.020509
    12  C    0.007938
    13  C   -0.130966
    14  H    0.036866
    15  N   -0.514498
    16  C    0.148975
    17  C   -0.151880
    18  C   -0.055440
    19  C    0.177962
    20  C    0.087432
    21  C    0.034488
    22  O   -0.271006
    23  C    0.017081
    24  N   -0.324832
    25  C    0.043613
    26  C   -0.057471
    27  C   -0.088537
    28  C    0.106051
    29  C    0.017432
    30  C   -0.009891
    31  C   -0.055790
    32  N   -0.439831
    33  C    0.094645
    34  C   -0.179710
    35  C    0.011860
    36  C    0.117609
    37  C    0.048051
    38  C    0.070948
    39  O   -0.201991
    40  C   -0.081096
    41  C    0.257044
    42  O   -0.227918
    43  O   -0.352585
    44  C    0.138887
    45  H   -0.003822
    46  H   -0.037218
    47  H   -0.005216
    48  H    0.022124
    49  H    0.037571
    50  H    0.038118
    51  H    0.026435
    52  H    0.039102
    53  H    0.024976
    54  H    0.032691
    55  H    0.078034
    56  H    0.066382
    57  H    0.053657
    58  H    0.029916
    59  H    0.063918
    60  H    0.061145
    61  H    0.077289
    62  H    0.047619
    63  H    0.049764
    64  H    0.040781
    65  H    0.036142
    66  H    0.051942
    67  H    0.027145
    68  H    0.036474
    69  H    0.028015
    70  H    0.034985
    71  H    0.031359
    72  H    0.047266
    73  H    0.038333
    74  H    0.058121
    75  H    0.037789
    76  H    0.089562
    77  H    0.063391
    78  H    0.059067
    79  H    0.051029
    80  Mg   0.932690
    81  C   -0.005163
    82  C   -0.105998
    83  C   -0.037068
    84  C   -0.077738
    85  N   -0.442560
    86  C   -0.001066
    87  C   -0.039712
    88  C   -0.135953
    89  C    0.130713
    90  C    0.033360
    91  C    0.069990
    92  C   -0.138386
    93  H    0.000546
    94  N   -0.460885
    95  C    0.168996
    96  C   -0.150594
    97  C   -0.078027
    98  C    0.134138
    99  C    0.056781
   100  C    0.061748
   101  O   -0.237590
   102  C   -0.054537
   103  N   -0.260527
   104  C    0.017978
   105  C   -0.075263
   106  C   -0.047618
   107  C    0.027211
   108  C   -0.001697
   109  C   -0.063205
   110  C   -0.056300
   111  N   -0.406554
   112  C    0.141389
   113  C   -0.241032
   114  C   -0.006292
   115  C    0.119907
   116  C    0.082694
   117  C    0.139179
   118  O   -0.194758
   119  C   -0.109489
   120  C    0.275700
   121  O   -0.259096
   122  O   -0.369958
   123  C    0.139924
   124  H    0.001628
   125  H    0.024209
   126  H    0.003008
   127  H    0.030683
   128  H    0.027245
   129  H    0.043601
   130  H    0.045644
   131  H    0.050368
   132  H    0.039631
   133  H    0.041714
   134  H    0.043915
   135  H    0.061508
   136  H    0.055442
   137  H    0.062206
   138  H    0.016836
   139  H    0.079276
   140  H    0.051749
   141  H    0.041988
   142  H    0.050136
   143  H    0.039028
   144  H    0.042685
   145  H    0.048643
   146  H    0.040688
   147  H    0.041617
   148  H    0.020558
   149  H    0.044546
   150  H    0.039817
   151  H    0.038664
   152  H    0.047098
   153  H    0.040249
   154  H    0.066214
   155  H    0.068450
   156  H    0.059497
   157  H    0.056184
   158  H    0.059394
 Sum of Mulliken charges =  -0.00000

 Dipole moment (field-independent basis, Debye):
    X=             -8.7981    Y=             -0.7095    Z=             -0.8862  Tot=              8.8711
 Quadrupole moment (field-independent basis, Debye-Ang):
   XX=           -537.9428   YY=           -520.9657   ZZ=           -478.4033
   XY=            -33.3691   XZ=            -85.1286   YZ=            -14.9240

 Normal termination of Gaussian 16 at Sun Sep 19 17:41:01 2021.
