 Gaussian 16, Revision A.03,
 Gaussian 16:  ES64L-G16RevA.03 25-Dec-2016

 --------------------------------
 #p wB97XD/Def2SVP td=(nstates=5)
 --------------------------------

 --------------------------------
 TDDFT excited states in gaussian
 --------------------------------
 Symbolic Z-matrix:
 Charge =  0 Multiplicity = 1

                         Standard orientation:
 ---------------------------------------------------------------------
 Center     Atomic      Atomic             Coordinates (Angstroms)
 Number     Number       Type             X           Y           Z
 ---------------------------------------------------------------------
      1         12           0      -11.535589    0.052431   -0.335479
      2          6           0       -9.128622   -1.107630    1.969982
      3          6           0      -11.215022    3.248147    1.025518
      4          6           0      -13.016068    1.269924   -3.153328
      5          6           0      -11.300852   -3.167722   -1.886406
      6          7           0      -10.353766    0.913184    1.299426
      7          6           0       -9.441230    0.277084    2.064264
      8          6           0       -8.703438    1.280039    3.009741
      9          6           0       -9.683906    2.537593    2.910000
     10          6           0      -10.545432    2.224671    1.643924
     11          6           0      -10.673415    2.863707    4.051593
     12          6           0       -7.254259    1.537921    2.447952
     13          6           0       -6.172316    1.723531    3.547781
     14          1           0       -5.096614    2.849749    3.264674
     15          7           0      -12.248449    2.011976   -0.912532
     16          6           0      -12.035326    3.139777   -0.165102
     17          6           0      -12.693532    4.197708   -0.832745
     18          6           0      -13.181879    3.722448   -2.086050
     19          6           0      -12.878485    2.252166   -2.098589
     20          6           0      -12.771569    5.621103   -0.333436
     21          6           0      -13.725535    4.544706   -3.204338
     22          8           0      -13.741592    5.764352   -3.160173
     23          6           0      -14.213305    4.017575   -4.452153
     24          7           0      -11.976473   -0.854538   -2.313070
     25          6           0      -12.755625   -0.128442   -3.225944
     26          6           0      -13.214197   -1.010593   -4.344789
     27          6           0      -12.624253   -2.428695   -4.002898
     28          6           0      -11.926726   -2.172479   -2.678120
     29          6           0      -14.745570   -0.963555   -4.421907
     30          6           0      -11.841539   -3.094647   -5.196592
     31          6           0      -12.316391   -4.441717   -5.650368
     32          7           0      -10.468498   -1.836082   -0.036126
     33          6           0      -10.543237   -3.024178   -0.720802
     34          6           0       -9.791189   -4.079408   -0.006906
     35          6           0       -9.182365   -3.303806    1.015167
     36          6           0       -9.685173   -2.016316    0.998677
     37          6           0       -9.558460   -5.531867   -0.392365
     38          6           0       -8.171652   -3.368078    2.037174
     39          8           0       -7.432874   -4.308510    2.368313
     40          6           0       -8.076139   -2.007139    2.726295
     41          6           0       -8.284520   -2.128476    4.181274
     42          8           0       -7.475269   -1.790943    4.967257
     43          8           0       -9.558958   -2.475955    4.524852
     44          6           0       -9.768371   -2.324143    5.981084
     45          1           0      -11.198678    4.243728    1.474882
     46          1           0      -13.572904    1.709613   -3.982289
     47          1           0      -11.077316   -4.180963   -2.228406
     48          1           0       -8.662971    0.837886    4.005365
     49          1           0       -9.234548    3.447264    2.511991
     50          1           0      -10.917817    1.960289    4.611505
     51          1           0      -11.601592    3.356927    3.762761
     52          1           0      -10.130812    3.521115    4.730093
     53          1           0       -7.250676    2.383803    1.759926
     54          1           0       -7.028637    0.648178    1.860036
     55          1           0       -5.694251    0.744966    3.595456
     56          1           0       -6.770543    1.863974    4.448331
     57          1           0      -13.584894    6.228853   -0.730182
     58          1           0      -11.808487    6.041812   -0.621269
     59          1           0      -12.669591    5.767327    0.741905
     60          1           0      -15.057818    3.370853   -4.210721
     61          1           0      -13.423724    3.499172   -4.996898
     62          1           0      -14.547311    4.850626   -5.070741
     63          1           0      -12.716291   -0.739553   -5.275463
     64          1           0      -13.304925   -3.172500   -3.588138
     65          1           0      -15.180253   -0.137433   -3.858646
     66          1           0      -15.198367   -1.865928   -4.011056
     67          1           0      -15.049391   -0.669007   -5.425975
     68          1           0      -10.810631   -3.150604   -4.847004
     69          1           0      -11.927859   -2.553895   -6.138349
     70          1           0      -11.458777   -5.112786   -5.611090
     71          1           0      -12.648449   -4.426733   -6.688616
     72          1           0      -13.198494   -4.789993   -5.112975
     73          1           0       -8.746308   -5.652222   -1.109607
     74          1           0      -10.462298   -6.035887   -0.736931
     75          1           0       -9.174865   -5.932354    0.545938
     76          1           0       -7.053054   -1.638055    2.666937
     77          1           0      -10.797001   -2.612882    6.198641
     78          1           0       -9.581763   -1.296412    6.292299
     79          1           0       -9.202717   -3.026867    6.591923
     80         12           0       11.331549    0.204818   -0.587513
     81          6           0        8.617390    0.258294    1.651561
     82          6           0       11.247093   -3.265995   -0.395369
     83          6           0       14.089311    0.214847   -2.437436
     84          6           0       11.818783    3.711506    0.009335
     85          7           0       10.109908   -1.305091    0.506384
     86          6           0        8.968802   -1.022073    1.270094
     87          6           0        8.131494   -2.281131    1.398413
     88          6           0        9.086226   -3.442061    0.999120
     89          6           0       10.223073   -2.621001    0.319208
     90          6           0        9.519712   -4.409603    2.144847
     91          6           0        6.781492   -2.253418    0.601218
     92          6           0        5.609897   -3.095708    1.274000
     93          1           0        5.929364   -3.865465    2.558299
     94          7           0       12.388343   -1.270907   -1.389527
     95          6           0       12.160035   -2.630491   -1.264801
     96          6           0       13.058682   -3.375269   -2.098747
     97          6           0       13.981778   -2.406981   -2.608551
     98          6           0       13.479887   -1.112857   -2.182220
     99          6           0       13.056281   -4.931285   -2.198803
    100          6           0       15.216002   -2.627546   -3.420582
    101          8           0       16.015793   -1.692801   -3.664637
    102          6           0       15.779742   -3.953223   -4.011611
    103          7           0       12.916939    1.671973   -0.928114
    104          6           0       13.895407    1.447181   -1.825306
    105          6           0       14.591226    2.776106   -2.213197
    106          6           0       13.892811    3.889482   -1.424287
    107          6           0       12.739881    3.019884   -0.753727
    108          6           0       16.082872    2.675276   -2.114280
    109          6           0       13.367979    5.099031   -2.227330
    110          6           0       12.334453    4.763219   -3.330614
    111          7           0       10.473672    1.736620    0.632799
    112          6           0       10.681125    3.074033    0.624261
    113          6           0        9.578398    3.673801    1.373909
    114          6           0        8.693508    2.644006    1.799867
    115          6           0        9.311170    1.447180    1.362249
    116          6           0        9.330155    5.169732    1.548452
    117          6           0        7.485150    2.351228    2.502427
    118          8           0        6.587528    3.040830    2.978967
    119          6           0        7.409851    0.688213    2.490688
    120          6           0        7.265630    0.186012    3.914990
    121          8           0        8.197455    0.079329    4.687989
    122          8           0        5.973884   -0.219162    4.163376
    123          6           0        5.534617   -0.369161    5.546885
    124          1           0       11.048407   -4.339050   -0.361295
    125          1           0       14.933564    0.163273   -3.127700
    126          1           0       11.954315    4.794529    0.032890
    127          1           0        7.840499   -2.414915    2.440197
    128          1           0        8.574567   -4.022312    0.231797
    129          1           0       10.606647   -4.351154    2.098687
    130          1           0        9.260995   -5.439739    1.896985
    131          1           0        9.214034   -4.204719    3.170825
    132          1           0        6.887823   -2.719172   -0.378019
    133          1           0        6.494395   -1.214823    0.442005
    134          1           0        5.354112   -3.900814    0.585000
    135          1           0        4.778028   -2.412384    1.443029
    136          1           0       14.095495   -5.257314   -2.256511
    137          1           0       12.561271   -5.292496   -3.099612
    138          1           0       12.578622   -5.547828   -1.437494
    139          1           0       15.034430   -4.441271   -4.640276
    140          1           0       16.152645   -4.628429   -3.241501
    141          1           0       16.496184   -3.814704   -4.820451
    142          1           0       14.478537    2.855592   -3.293677
    143          1           0       14.565557    4.100712   -0.592337
    144          1           0       16.563930    2.550210   -3.084534
    145          1           0       16.356003    1.871608   -1.430264
    146          1           0       16.559690    3.540650   -1.652637
    147          1           0       14.266479    5.481336   -2.712158
    148          1           0       12.965474    5.853439   -1.550692
    149          1           0       11.437618    5.319676   -3.059076
    150          1           0       12.174560    3.685630   -3.292997
    151          1           0       12.683202    4.952381   -4.345963
    152          1           0        8.282679    5.439084    1.416019
    153          1           0        9.818182    5.749182    0.765289
    154          1           0        9.761632    5.474336    2.502338
    155          1           0        6.475796    0.468920    1.972804
    156          1           0        6.366882   -0.820042    6.088028
    157          1           0        4.666980   -1.014524    5.684483
    158          1           0        5.249140    0.631849    5.870372
 ---------------------------------------------------------------------

 SCF Done:  E(RwB97XD) =  -4070.59066840     A.U. after   20 cycles

 Excitation energies and oscillator strengths:

 Excited State   1:      Singlet-A      1.6014 eV  774.20 nm  f=0.3814  <S**2>=0.000
     310 -> 316        0.17285
     312 -> 314        0.68537
     310 <- 316        0.11415
 This state for optimization and/or second-order correction.
 Total Energy, E(TD-HF/TD-DFT) =  -4070.53181629
 Copying the excited state density for this state as the 1-particle RhoCI density.

 Excited State   2:      Singlet-A      1.6189 eV  765.85 nm  f=0.4216  <S**2>=0.000
     309 -> 315        0.17877
     311 -> 313        0.68438
     309 <- 315        0.11641

 Excited State   3:      Singlet-A      2.1365 eV  580.32 nm  f=0.1538  <S**2>=0.000
     310 -> 314        0.65182
     312 -> 316       -0.24692

 Excited State   4:      Singlet-A      2.1449 eV  578.04 nm  f=0.1074  <S**2>=0.000
     309 -> 313        0.63680
     311 -> 315       -0.28328

 Excited State   5:      Singlet-A      3.5201 eV  352.22 nm  f=0.0000  <S**2>=0.000
     312 -> 313        0.70701

 The electronic state is 1-A.
 Alpha  occ. eigenvalues --  -46.97184 -46.95153 -19.30364 -19.29316 -19.24870
 Alpha  occ. eigenvalues --  -19.24281 -19.24034 -19.23976 -19.23332 -19.22326
 Alpha  occ. eigenvalues --  -14.47624 -14.47293 -14.47066 -14.45881 -14.44796
 Alpha  occ. eigenvalues --  -14.44499 -14.43919 -14.43852 -10.42808 -10.42587
 Alpha  occ. eigenvalues --  -10.39484 -10.39400 -10.38854 -10.37424 -10.36317
 Alpha  occ. eigenvalues --  -10.36032 -10.35908 -10.35594 -10.35540 -10.35119
 Alpha  occ. eigenvalues --  -10.35019 -10.34936 -10.34842 -10.34685 -10.34666
 Alpha  occ. eigenvalues --  -10.34441 -10.34262 -10.34246 -10.33888 -10.33734
 Alpha  occ. eigenvalues --  -10.33630 -10.33544 -10.33128 -10.33113 -10.33092
 Alpha  occ. eigenvalues --  -10.33061 -10.32911 -10.32728 -10.32600 -10.32525
 Alpha  occ. eigenvalues --  -10.32520 -10.32301 -10.32211 -10.32198 -10.32173
 Alpha  occ. eigenvalues --  -10.32072 -10.32005 -10.31935 -10.31865 -10.31725
 Alpha  occ. eigenvalues --  -10.31589 -10.31576 -10.31519 -10.31433 -10.31386
 Alpha  occ. eigenvalues --  -10.31267 -10.31013 -10.30940 -10.30805 -10.30757
 Alpha  occ. eigenvalues --  -10.30744 -10.30564 -10.30480 -10.30414 -10.30251
 Alpha  occ. eigenvalues --  -10.30127 -10.30024 -10.29990 -10.29604 -10.29556
 Alpha  occ. eigenvalues --  -10.29338 -10.29336 -10.29209 -10.29174 -10.29149
 Alpha  occ. eigenvalues --  -10.28661  -3.22827  -3.21165  -1.96420  -1.95918
 Alpha  occ. eigenvalues --   -1.95779  -1.94724  -1.94287  -1.94144  -1.20163
 Alpha  occ. eigenvalues --   -1.17451  -1.11743  -1.11555  -1.11284  -1.11250
 Alpha  occ. eigenvalues --   -1.10549  -1.09486  -1.07197  -1.06249  -1.05766
 Alpha  occ. eigenvalues --   -1.05464  -1.05370  -1.05130  -1.04583  -1.04022
 Alpha  occ. eigenvalues --   -0.94657  -0.94031  -0.91319  -0.90978  -0.90953
 Alpha  occ. eigenvalues --   -0.90276  -0.90135  -0.90005  -0.89964  -0.89175
 Alpha  occ. eigenvalues --   -0.89021  -0.88682  -0.87774  -0.87143  -0.86804
 Alpha  occ. eigenvalues --   -0.86625  -0.85587  -0.85113  -0.84652  -0.84413
 Alpha  occ. eigenvalues --   -0.83958  -0.82914  -0.82878  -0.82542  -0.82448
 Alpha  occ. eigenvalues --   -0.81869  -0.80641  -0.80572  -0.79577  -0.78826
 Alpha  occ. eigenvalues --   -0.78746  -0.78542  -0.78420  -0.77632  -0.77379
 Alpha  occ. eigenvalues --   -0.76830  -0.75179  -0.74520  -0.74402  -0.72932
 Alpha  occ. eigenvalues --   -0.71728  -0.71385  -0.71230  -0.71007  -0.70200
 Alpha  occ. eigenvalues --   -0.69939  -0.69393  -0.68856  -0.68322  -0.67661
 Alpha  occ. eigenvalues --   -0.67090  -0.67032  -0.66728  -0.66672  -0.66029
 Alpha  occ. eigenvalues --   -0.65965  -0.65336  -0.63482  -0.62836  -0.62117
 Alpha  occ. eigenvalues --   -0.62052  -0.61331  -0.61009  -0.60897  -0.60679
 Alpha  occ. eigenvalues --   -0.60297  -0.59937  -0.59269  -0.59077  -0.58798
 Alpha  occ. eigenvalues --   -0.58476  -0.58049  -0.57793  -0.57565  -0.57560
 Alpha  occ. eigenvalues --   -0.57105  -0.56648  -0.56627  -0.56538  -0.55703
 Alpha  occ. eigenvalues --   -0.55517  -0.55341  -0.55261  -0.55127  -0.54866
 Alpha  occ. eigenvalues --   -0.54782  -0.54591  -0.54580  -0.54377  -0.54226
 Alpha  occ. eigenvalues --   -0.54162  -0.53793  -0.53683  -0.53465  -0.53298
 Alpha  occ. eigenvalues --   -0.53158  -0.52852  -0.52843  -0.52492  -0.51989
 Alpha  occ. eigenvalues --   -0.51895  -0.51817  -0.51559  -0.51384  -0.51261
 Alpha  occ. eigenvalues --   -0.51053  -0.51032  -0.51008  -0.50831  -0.50589
 Alpha  occ. eigenvalues --   -0.50558  -0.50434  -0.50345  -0.50125  -0.50016
 Alpha  occ. eigenvalues --   -0.49722  -0.49554  -0.49472  -0.49281  -0.49246
 Alpha  occ. eigenvalues --   -0.48969  -0.48733  -0.48646  -0.48499  -0.48284
 Alpha  occ. eigenvalues --   -0.48255  -0.48188  -0.48146  -0.47706  -0.47670
 Alpha  occ. eigenvalues --   -0.47270  -0.47117  -0.47064  -0.47032  -0.46812
 Alpha  occ. eigenvalues --   -0.46663  -0.46536  -0.46317  -0.46315  -0.46016
 Alpha  occ. eigenvalues --   -0.46014  -0.45877  -0.45800  -0.45545  -0.45321
 Alpha  occ. eigenvalues --   -0.45262  -0.44981  -0.44951  -0.44864  -0.44836
 Alpha  occ. eigenvalues --   -0.44571  -0.44424  -0.44365  -0.44185  -0.43772
 Alpha  occ. eigenvalues --   -0.43702  -0.43669  -0.43471  -0.43405  -0.43321
 Alpha  occ. eigenvalues --   -0.42927  -0.42663  -0.42520  -0.42378  -0.42096
 Alpha  occ. eigenvalues --   -0.41862  -0.41545  -0.41420  -0.41134  -0.41000
 Alpha  occ. eigenvalues --   -0.40607  -0.40469  -0.39923  -0.39671  -0.39606
 Alpha  occ. eigenvalues --   -0.39472  -0.39263  -0.38944  -0.38778  -0.38351
 Alpha  occ. eigenvalues --   -0.38149  -0.37808  -0.36927  -0.36151  -0.35906
 Alpha  occ. eigenvalues --   -0.35774  -0.35591  -0.35132  -0.33734  -0.33572
 Alpha  occ. eigenvalues --   -0.33007  -0.32861  -0.32640  -0.32633  -0.32154
 Alpha  occ. eigenvalues --   -0.31930  -0.31537  -0.31350  -0.26448  -0.25930
 Alpha  occ. eigenvalues --   -0.23387  -0.23080
 Alpha virt. eigenvalues --   -0.07779  -0.07499  -0.00363   0.00628   0.02113
 Alpha virt. eigenvalues --    0.02308   0.04190   0.04392   0.04528   0.04781
 Alpha virt. eigenvalues --    0.07292   0.07519   0.07905   0.08011   0.08189

 Mulliken charges:
               1
     1  Mg   0.930606
     2  C   -0.012316
     3  C   -0.078605
     4  C   -0.029824
     5  C   -0.055353
     6  N   -0.359430
     7  C   -0.011344
     8  C   -0.090479
     9  C   -0.100273
    10  C    0.079507
    11  C    0.032919
    12  C    0.011818
    13  C   -0.107303
    14  H    0.042860
    15  N   -0.446566
    16  C    0.131647
    17  C   -0.166183
    18  C   -0.071334
    19  C    0.121787
    20  C    0.092224
    21  C   -0.000459
    22  O   -0.245782
    23  C    0.011479
    24  N   -0.354221
    25  C    0.049222
    26  C   -0.068695
    27  C   -0.054121
    28  C    0.053289
    29  C    0.028786
    30  C   -0.008379
    31  C   -0.059049
    32  N   -0.368065
    33  C    0.038780
    34  C   -0.158856
    35  C   -0.038488
    36  C    0.117369
    37  C    0.062064
    38  C    0.094465
    39  O   -0.226115
    40  C   -0.017443
    41  C    0.221450
    42  O   -0.212535
    43  O   -0.366531
    44  C    0.139987
    45  H    0.006277
    46  H   -0.031128
    47  H   -0.001574
    48  H    0.038012
    49  H    0.035706
    50  H    0.032230
    51  H    0.046092
    52  H    0.040428
    53  H    0.042587
    54  H    0.035849
    55  H    0.065693
    56  H    0.053245
    57  H    0.070849
    58  H    0.039998
    59  H    0.017491
    60  H    0.051073
    61  H    0.064249
    62  H    0.052305
    63  H    0.047941
    64  H    0.037657
    65  H    0.035196
    66  H    0.041411
    67  H    0.037055
    68  H    0.041849
    69  H    0.039521
    70  H    0.042167
    71  H    0.030723
    72  H    0.033031
    73  H    0.064512
    74  H    0.051531
    75  H    0.065639
    76  H    0.062054
    77  H    0.046733
    78  H    0.053518
    79  H    0.057571
    80  Mg   0.972085
    81  C    0.006893
    82  C   -0.061590
    83  C   -0.063111
    84  C   -0.063197
    85  N   -0.337646
    86  C   -0.003135
    87  C   -0.035443
    88  C   -0.097876
    89  C    0.010187
    90  C    0.027470
    91  C   -0.006721
    92  C   -0.129188
    93  H    0.034430
    94  N   -0.494857
    95  C    0.189699
    96  C   -0.136952
    97  C   -0.054569
    98  C    0.137564
    99  C    0.058986
   100  C    0.036214
   101  O   -0.271811
   102  C   -0.006976
   103  N   -0.340807
   104  C    0.077632
   105  C   -0.129551
   106  C   -0.020241
   107  C    0.012652
   108  C    0.021441
   109  C   -0.019351
   110  C   -0.045937
   111  N   -0.429188
   112  C    0.150889
   113  C   -0.205307
   114  C    0.004501
   115  C    0.122874
   116  C    0.072302
   117  C    0.116764
   118  O   -0.207343
   119  C   -0.128436
   120  C    0.274809
   121  O   -0.237762
   122  O   -0.379582
   123  C    0.133440
   124  H   -0.002946
   125  H    0.022845
   126  H   -0.004523
   127  H    0.030963
   128  H    0.033220
   129  H    0.030396
   130  H    0.034947
   131  H    0.058636
   132  H    0.029625
   133  H    0.037141
   134  H    0.054647
   135  H    0.069778
   136  H    0.037031
   137  H    0.051038
   138  H    0.045690
   139  H    0.030888
   140  H    0.073458
   141  H    0.048410
   142  H    0.037071
   143  H    0.038676
   144  H    0.043337
   145  H    0.041840
   146  H    0.022129
   147  H    0.033114
   148  H    0.039317
   149  H    0.046937
   150  H    0.038644
   151  H    0.042864
   152  H    0.057685
   153  H    0.018373
   154  H    0.059334
   155  H    0.065979
   156  H    0.059987
   157  H    0.054647
   158  H    0.064568
 Sum of Mulliken charges =  -0.00000

 Dipole moment (field-independent basis, Debye):
    X=             -5.3090    Y=             -5.3333    Z=             -5.4845  Tot=              9.3117
 Quadrupole moment (field-independent basis, Debye-Ang):
   XX=           -466.9547   YY=           -502.3431   ZZ=           -495.2639
   XY=             25.0467   XZ=            -24.9219   YZ=             23.0869

 Normal termination of Gaussian 16 at Sat Sep 18 21:28:17 2021.
