 Gaussian 16, Revision A.03,
 Gaussian 16:  ES64L-G16RevA.03 25-Dec-2016

 --------------------------------
 #p wB97XD/Def2SVP td=(nstates=5)
 --------------------------------

 --------------------------------
 TDDFT excited states in gaussian
 --------------------------------
 Symbolic Z-matrix:
 Charge =  0 Multiplicity = 1

                         Standard orientation:
 ---------------------------------------------------------------------
 Center     Atomic      Atomic             Coordinates (Angstroms)
 Number     Number       Type             X           Y           Z
 ---------------------------------------------------------------------
      1         12           0      -29.201438    0.367304   -0.643995
      2          6           0      -29.051434   -2.271423    1.632569
      3          6           0      -28.155644    2.468035    1.716115
      4          6           0      -30.632920    2.899366   -2.439718
      5          6           0      -30.341804   -1.862013   -3.065974
      6          7           0      -28.498661    0.087952    1.420101
      7          6           0      -28.516941   -1.051268    2.101301
      8          6           0      -27.815098   -0.826910    3.489403
      9          6           0      -27.646712    0.711002    3.523973
     10          6           0      -28.147109    1.147762    2.150388
     11          6           0      -28.579374    1.447580    4.608467
     12          6           0      -26.420221   -1.579730    3.676245
     13          6           0      -26.275189   -2.173389    5.035451
     14          1           0      -25.023791   -1.883903    5.849970
     15          7           0      -29.340099    2.400587   -0.391562
     16          6           0      -28.814459    3.102797    0.660484
     17          6           0      -28.822898    4.532414    0.320390
     18          6           0      -29.550811    4.644262   -0.897046
     19          6           0      -29.914720    3.264048   -1.258129
     20          6           0      -28.239743    5.637017    1.258377
     21          6           0      -29.966164    5.933096   -1.668533
     22          8           0      -30.593892    5.932793   -2.721533
     23          6           0      -29.553785    7.241449   -1.107811
     24          7           0      -30.318062    0.509525   -2.410957
     25          6           0      -30.884581    1.661471   -2.964855
     26          6           0      -31.821901    1.266936   -4.136048
     27          6           0      -31.189406   -0.099973   -4.650188
     28          6           0      -30.569389   -0.484196   -3.276847
     29          6           0      -33.311994    1.221334   -3.734938
     30          6           0      -30.136927   -0.011322   -5.718560
     31          6           0      -28.726685    0.376680   -5.386464
     32          7           0      -29.442767   -1.674399   -0.841089
     33          6           0      -29.948594   -2.452007   -1.857017
     34          6           0      -29.975010   -3.872249   -1.499857
     35          6           0      -29.717153   -3.859378   -0.055477
     36          6           0      -29.413165   -2.479314    0.265927
     37          6           0      -30.425925   -4.960364   -2.332158
     38          6           0      -29.647458   -4.665439    1.157256
     39          8           0      -29.888255   -5.793325    1.375254
     40          6           0      -29.124931   -3.649926    2.301734
     41          6           0      -29.913120   -3.702328    3.586090
     42          8           0      -30.873561   -2.987721    3.857320
     43          8           0      -29.308139   -4.623683    4.440345
     44          6           0      -29.904492   -4.809899    5.775557
     45          1           0      -27.666067    3.261214    2.285640
     46          1           0      -31.078394    3.755534   -2.951324
     47          1           0      -30.612933   -2.514523   -3.898106
     48          1           0      -28.464212   -1.088930    4.325298
     49          1           0      -26.646393    1.082938    3.745545
     50          1           0      -27.989838    1.534193    5.521407
     51          1           0      -29.473143    0.898979    4.904526
     52          1           0      -28.807093    2.444652    4.229696
     53          1           0      -25.575596   -0.906593    3.528354
     54          1           0      -26.214684   -2.373722    2.958169
     55          1           0      -26.214092   -3.241709    4.829748
     56          1           0      -27.094263   -2.040060    5.741606
     57          1           0      -29.065782    5.943355    1.899571
     58          1           0      -27.789712    6.451062    0.689620
     59          1           0      -27.576670    5.255467    2.035544
     60          1           0      -29.594374    7.443920   -0.037665
     61          1           0      -30.138384    8.037364   -1.568517
     62          1           0      -28.599085    7.532754   -1.546681
     63          1           0      -31.637897    2.044246   -4.877134
     64          1           0      -31.946828   -0.800384   -5.001641
     65          1           0      -33.847417    0.296336   -3.949034
     66          1           0      -33.872433    2.107404   -4.033924
     67          1           0      -33.405887    1.306823   -2.652503
     68          1           0      -30.381679    0.670054   -6.532478
     69          1           0      -30.070850   -0.988641   -6.196879
     70          1           0      -28.241808   -0.593266   -5.277470
     71          1           0      -28.587093    0.905626   -4.443431
     72          1           0      -28.305875    0.945537   -6.216203
     73          1           0      -29.788844   -5.808199   -2.079701
     74          1           0      -30.241069   -4.670057   -3.366099
     75          1           0      -31.466455   -5.196817   -2.111898
     76          1           0      -28.103379   -3.944221    2.542447
     77          1           0      -30.963350   -5.020191    5.622499
     78          1           0      -29.836358   -3.894041    6.362048
     79          1           0      -29.508839   -5.578418    6.439794
     80         12           0       29.915999   -0.633127    0.286272
     81          6           0       28.162052    2.496739    0.243639
     82          6           0       27.152513   -1.886959   -1.598118
     83          6           0       31.704069   -3.297654   -0.709701
     84          6           0       32.683568    1.014956    1.435486
     85          7           0       27.955149    0.246146   -0.574208
     86          6           0       27.450779    1.507224   -0.444698
     87          6           0       26.056851    1.654185   -1.148900
     88          6           0       25.650503    0.115561   -1.344636
     89          6           0       27.020133   -0.536323   -1.240895
     90          6           0       24.721973   -0.433060   -0.285624
     91          6           0       26.088021    2.559675   -2.369041
     92          6           0       24.934010    3.582874   -2.531349
     93          1           0       23.715677    3.296313   -3.527042
     94          7           0       29.463843   -2.466107   -0.930974
     95          6           0       28.224921   -2.792495   -1.520966
     96          6           0       28.328856   -4.126146   -2.125679
     97          6           0       29.675564   -4.569372   -1.819606
     98          6           0       30.359333   -3.441957   -1.223347
     99          6           0       27.292592   -4.834506   -2.914226
    100          6           0       30.212872   -5.953467   -2.084282
    101          8           0       29.434415   -6.809538   -2.439775
    102          6           0       31.661639   -6.352504   -1.923352
    103          7           0       31.873540   -0.964766    0.267694
    104          6           0       32.343390   -2.234579   -0.055729
    105          6           0       33.855552   -2.235644    0.180195
    106          6           0       34.106197   -0.951342    1.052368
    107          6           0       32.783175   -0.270348    0.950714
    108          6           0       34.521869   -3.549624    0.730897
    109          6           0       35.330237   -0.051376    0.700159
    110          6           0       36.315417    0.246758    1.782981
    111          7           0       30.355349    1.282610    0.867279
    112          6           0       31.517732    1.814857    1.397351
    113          6           0       31.278618    3.172041    1.925112
    114          6           0       29.958617    3.473348    1.409401
    115          6           0       29.493619    2.309879    0.788780
    116          6           0       32.183172    4.084479    2.710854
    117          6           0       28.919567    4.544212    1.368979
    118          8           0       28.958549    5.682353    1.740959
    119          6           0       27.798396    3.959081    0.516349
    120          6           0       26.526888    4.052594    1.305811
    121          8           0       26.417584    3.394830    2.318251
    122          8           0       25.491514    4.851068    0.733553
    123          6           0       24.155084    4.787523    1.399288
    124          1           0       26.305066   -2.323733   -2.130881
    125          1           0       32.416733   -4.092213   -0.937025
    126          1           0       33.531705    1.439916    1.975796
    127          1           0       25.290847    2.009823   -0.460396
    128          1           0       25.289889   -0.075539   -2.355279
    129          1           0       25.315599   -0.689429    0.591561
    130          1           0       24.198009   -1.280197   -0.728039
    131          1           0       23.945269    0.215677    0.120645
    132          1           0       26.021487    1.899298   -3.233115
    133          1           0       27.089724    2.982898   -2.443235
    134          1           0       25.452816    4.484596   -2.857563
    135          1           0       24.441032    3.831120   -1.591350
    136          1           0       26.806735   -5.524525   -2.225021
    137          1           0       27.779684   -5.478769   -3.646252
    138          1           0       26.527380   -4.271295   -3.449746
    139          1           0       31.909052   -7.358025   -2.263101
    140          1           0       31.857392   -6.305372   -0.852040
    141          1           0       32.440389   -5.718059   -2.344964
    142          1           0       34.232118   -2.184438   -0.841821
    143          1           0       34.110011   -1.251058    2.099920
    144          1           0       33.777182   -4.187596    1.207611
    145          1           0       35.350139   -3.307131    1.396432
    146          1           0       34.994625   -4.099838   -0.082360
    147          1           0       34.965039    0.895265    0.302046
    148          1           0       35.815780   -0.500354   -0.166209
    149          1           0       36.193628    1.282415    2.099592
    150          1           0       37.328108    0.134795    1.395891
    151          1           0       36.263314   -0.352256    2.691882
    152          1           0       31.607622    4.835594    3.251455
    153          1           0       32.858844    4.543575    1.988647
    154          1           0       32.818879    3.460718    3.339527
    155          1           0       27.812948    4.479369   -0.441470
    156          1           0       24.169279    5.418338    2.288255
    157          1           0       23.942829    3.777711    1.749827
    158          1           0       23.365132    5.086920    0.710763
 ---------------------------------------------------------------------

 SCF Done:  E(RwB97XD) =  -4070.61704714     A.U. after   17 cycles

 Excitation energies and oscillator strengths:

 Excited State   1:      Singlet-A      1.6113 eV  769.45 nm  f=0.3895  <S**2>=0.000
     309 -> 315        0.17519
     311 -> 313        0.68618
     309 <- 315        0.11590
 This state for optimization and/or second-order correction.
 Total Energy, E(TD-HF/TD-DFT) =  -4070.55783136
 Copying the excited state density for this state as the 1-particle RhoCI density.

 Excited State   2:      Singlet-A      1.6238 eV  763.54 nm  f=0.3866  <S**2>=0.000
     310 -> 316       -0.18260
     312 -> 314        0.68415
     310 <- 316       -0.11751

 Excited State   3:      Singlet-A      2.1826 eV  568.05 nm  f=0.1249  <S**2>=0.000
     309 -> 313        0.63924
     311 -> 315       -0.28432

 Excited State   4:      Singlet-A      2.2000 eV  563.57 nm  f=0.1018  <S**2>=0.000
     310 -> 314        0.63113
     312 -> 316        0.30773

 Excited State   5:      Singlet-A      3.1514 eV  393.43 nm  f=0.0019  <S**2>=0.000
     306 -> 313       -0.12245
     308 -> 313        0.66850
     311 -> 315        0.10224

 The electronic state is 1-A.
 Alpha  occ. eigenvalues --  -46.95680 -46.94265 -19.30527 -19.30273 -19.25694
 Alpha  occ. eigenvalues --  -19.25051 -19.24806 -19.24758 -19.24183 -19.22983
 Alpha  occ. eigenvalues --  -14.47420 -14.46764 -14.46280 -14.46024 -14.43954
 Alpha  occ. eigenvalues --  -14.43908 -14.43799 -14.43759 -10.44130 -10.43562
 Alpha  occ. eigenvalues --  -10.39595 -10.39553 -10.39457 -10.38462 -10.36053
 Alpha  occ. eigenvalues --  -10.35551 -10.35436 -10.35368 -10.35348 -10.34718
 Alpha  occ. eigenvalues --  -10.34617 -10.34563 -10.34495 -10.34317 -10.34299
 Alpha  occ. eigenvalues --  -10.34024 -10.33881 -10.33807 -10.33534 -10.33519
 Alpha  occ. eigenvalues --  -10.33378 -10.33243 -10.33131 -10.32917 -10.32912
 Alpha  occ. eigenvalues --  -10.32866 -10.32849 -10.32802 -10.32712 -10.32468
 Alpha  occ. eigenvalues --  -10.32379 -10.32359 -10.32234 -10.32105 -10.32078
 Alpha  occ. eigenvalues --  -10.31936 -10.31844 -10.31708 -10.31642 -10.31614
 Alpha  occ. eigenvalues --  -10.31468 -10.31309 -10.31148 -10.31057 -10.30869
 Alpha  occ. eigenvalues --  -10.30825 -10.30739 -10.30617 -10.30506 -10.30405
 Alpha  occ. eigenvalues --  -10.30376 -10.30305 -10.30189 -10.30160 -10.29980
 Alpha  occ. eigenvalues --  -10.29921 -10.29796 -10.29754 -10.29665 -10.29640
 Alpha  occ. eigenvalues --  -10.29552 -10.29477 -10.29383 -10.29371 -10.29291
 Alpha  occ. eigenvalues --  -10.28362  -3.21714  -3.20386  -1.95245  -1.94835
 Alpha  occ. eigenvalues --   -1.94686  -1.93983  -1.93488  -1.93390  -1.17545
 Alpha  occ. eigenvalues --   -1.17337  -1.15230  -1.14008  -1.12413  -1.12347
 Alpha  occ. eigenvalues --   -1.10115  -1.09668  -1.07171  -1.06593  -1.05606
 Alpha  occ. eigenvalues --   -1.05574  -1.04897  -1.04817  -1.04179  -1.03550
 Alpha  occ. eigenvalues --   -0.94770  -0.93858  -0.91279  -0.90892  -0.90777
 Alpha  occ. eigenvalues --   -0.90469  -0.90361  -0.89947  -0.89546  -0.89143
 Alpha  occ. eigenvalues --   -0.88821  -0.88215  -0.88187  -0.87601  -0.86415
 Alpha  occ. eigenvalues --   -0.86059  -0.85866  -0.85492  -0.84449  -0.84421
 Alpha  occ. eigenvalues --   -0.83767  -0.83752  -0.82956  -0.82510  -0.82334
 Alpha  occ. eigenvalues --   -0.82189  -0.80192  -0.80099  -0.79450  -0.79168
 Alpha  occ. eigenvalues --   -0.78759  -0.78682  -0.78272  -0.77762  -0.77179
 Alpha  occ. eigenvalues --   -0.76788  -0.74660  -0.74254  -0.73766  -0.73436
 Alpha  occ. eigenvalues --   -0.71457  -0.71142  -0.70912  -0.70509  -0.69931
 Alpha  occ. eigenvalues --   -0.69684  -0.68702  -0.68699  -0.67869  -0.67641
 Alpha  occ. eigenvalues --   -0.67078  -0.66617  -0.66567  -0.66335  -0.66244
 Alpha  occ. eigenvalues --   -0.66037  -0.64359  -0.63809  -0.62136  -0.61817
 Alpha  occ. eigenvalues --   -0.61548  -0.61519  -0.61206  -0.61058  -0.60879
 Alpha  occ. eigenvalues --   -0.60342  -0.60102  -0.59757  -0.59646  -0.59212
 Alpha  occ. eigenvalues --   -0.58510  -0.57792  -0.57616  -0.57483  -0.57436
 Alpha  occ. eigenvalues --   -0.57301  -0.56758  -0.56247  -0.56056  -0.55846
 Alpha  occ. eigenvalues --   -0.55522  -0.55325  -0.55312  -0.55070  -0.54865
 Alpha  occ. eigenvalues --   -0.54855  -0.54430  -0.54181  -0.54093  -0.53781
 Alpha  occ. eigenvalues --   -0.53702  -0.53684  -0.53552  -0.53310  -0.53252
 Alpha  occ. eigenvalues --   -0.53208  -0.53041  -0.52851  -0.52354  -0.52333
 Alpha  occ. eigenvalues --   -0.52124  -0.52012  -0.51880  -0.51823  -0.51689
 Alpha  occ. eigenvalues --   -0.51551  -0.51433  -0.51254  -0.51047  -0.51027
 Alpha  occ. eigenvalues --   -0.50659  -0.50540  -0.50527  -0.50230  -0.50107
 Alpha  occ. eigenvalues --   -0.49901  -0.49727  -0.49615  -0.49022  -0.48946
 Alpha  occ. eigenvalues --   -0.48893  -0.48773  -0.48512  -0.48384  -0.48353
 Alpha  occ. eigenvalues --   -0.48187  -0.48143  -0.48042  -0.47996  -0.47915
 Alpha  occ. eigenvalues --   -0.47763  -0.47748  -0.47422  -0.47212  -0.47132
 Alpha  occ. eigenvalues --   -0.46917  -0.46872  -0.46610  -0.46552  -0.46277
 Alpha  occ. eigenvalues --   -0.46097  -0.45732  -0.45656  -0.45579  -0.45414
 Alpha  occ. eigenvalues --   -0.45261  -0.45256  -0.45201  -0.44828  -0.44713
 Alpha  occ. eigenvalues --   -0.44592  -0.44564  -0.44498  -0.44406  -0.43846
 Alpha  occ. eigenvalues --   -0.43787  -0.43564  -0.43514  -0.43444  -0.43362
 Alpha  occ. eigenvalues --   -0.43085  -0.43031  -0.42742  -0.42482  -0.42381
 Alpha  occ. eigenvalues --   -0.42166  -0.42117  -0.41196  -0.41039  -0.40594
 Alpha  occ. eigenvalues --   -0.40430  -0.39958  -0.39664  -0.39603  -0.39365
 Alpha  occ. eigenvalues --   -0.39171  -0.38945  -0.38653  -0.38623  -0.38597
 Alpha  occ. eigenvalues --   -0.37841  -0.37778  -0.37010  -0.36426  -0.36403
 Alpha  occ. eigenvalues --   -0.36279  -0.35469  -0.35065  -0.33645  -0.33401
 Alpha  occ. eigenvalues --   -0.33332  -0.33279  -0.33130  -0.32410  -0.32188
 Alpha  occ. eigenvalues --   -0.31873  -0.31767  -0.30925  -0.26238  -0.25906
 Alpha  occ. eigenvalues --   -0.22931  -0.22586
 Alpha virt. eigenvalues --   -0.07354  -0.06812   0.00423   0.00537   0.02482
 Alpha virt. eigenvalues --    0.02708   0.04222   0.04539   0.04810   0.05910
 Alpha virt. eigenvalues --    0.06501   0.06729   0.06905   0.07966   0.08074

 Mulliken charges:
               1
     1  Mg   0.983964
     2  C    0.016710
     3  C   -0.089987
     4  C   -0.082530
     5  C   -0.106050
     6  N   -0.316790
     7  C    0.009697
     8  C   -0.040650
     9  C   -0.128941
    10  C    0.104265
    11  C   -0.004728
    12  C    0.028241
    13  C   -0.147885
    14  H    0.026106
    15  N   -0.453177
    16  C    0.111666
    17  C   -0.155622
    18  C   -0.103423
    19  C    0.123784
    20  C    0.045814
    21  C    0.084856
    22  O   -0.233057
    23  C   -0.023562
    24  N   -0.364479
    25  C    0.051375
    26  C   -0.053001
    27  C   -0.060228
    28  C    0.046908
    29  C    0.044656
    30  C   -0.025394
    31  C   -0.034978
    32  N   -0.448077
    33  C    0.163622
    34  C   -0.168861
    35  C   -0.084478
    36  C    0.117410
    37  C    0.077011
    38  C    0.137587
    39  O   -0.142200
    40  C   -0.138940
    41  C    0.283386
    42  O   -0.249090
    43  O   -0.383352
    44  C    0.147006
    45  H   -0.013083
    46  H    0.021626
    47  H   -0.009714
    48  H    0.043040
    49  H    0.044050
    50  H    0.031215
    51  H    0.051234
    52  H    0.038065
    53  H    0.037906
    54  H    0.036947
    55  H    0.053920
    56  H    0.051453
    57  H    0.057678
    58  H    0.063553
    59  H    0.032687
    60  H    0.059392
    61  H    0.038692
    62  H    0.062599
    63  H    0.024372
    64  H    0.023873
    65  H    0.039148
    66  H    0.044481
    67  H    0.032102
    68  H    0.026714
    69  H    0.023447
    70  H    0.026962
    71  H    0.051705
    72  H    0.040160
    73  H    0.057378
    74  H    0.036666
    75  H    0.074606
    76  H    0.075949
    77  H    0.054258
    78  H    0.040558
    79  H    0.061777
    80  Mg   0.981366
    81  C   -0.076478
    82  C   -0.054026
    83  C   -0.079810
    84  C   -0.124165
    85  N   -0.313073
    86  C   -0.015734
    87  C   -0.066002
    88  C   -0.119820
    89  C    0.049024
    90  C    0.041537
    91  C    0.037355
    92  C   -0.107605
    93  H    0.023519
    94  N   -0.419434
    95  C    0.112242
    96  C   -0.143735
    97  C   -0.073706
    98  C    0.168525
    99  C    0.081103
   100  C    0.035426
   101  O   -0.234895
   102  C   -0.012037
   103  N   -0.451660
   104  C    0.091893
   105  C   -0.128613
   106  C   -0.033701
   107  C    0.088900
   108  C    0.013827
   109  C    0.000981
   110  C   -0.047263
   111  N   -0.442007
   112  C    0.135323
   113  C   -0.189408
   114  C   -0.106345
   115  C    0.178016
   116  C    0.090767
   117  C    0.132736
   118  O   -0.174081
   119  C   -0.015189
   120  C    0.278360
   121  O   -0.234437
   122  O   -0.404984
   123  C    0.133365
   124  H   -0.006119
   125  H   -0.037476
   126  H   -0.011921
   127  H    0.025603
   128  H    0.028726
   129  H    0.043273
   130  H    0.042624
   131  H    0.036699
   132  H    0.037370
   133  H    0.040619
   134  H    0.055489
   135  H    0.048116
   136  H    0.055540
   137  H    0.053886
   138  H    0.036864
   139  H    0.051246
   140  H    0.050092
   141  H    0.057939
   142  H    0.051519
   143  H    0.033593
   144  H    0.044838
   145  H    0.038347
   146  H    0.031058
   147  H    0.038650
   148  H    0.025387
   149  H    0.036253
   150  H    0.036916
   151  H    0.035851
   152  H    0.071582
   153  H    0.053875
   154  H    0.034432
   155  H    0.072709
   156  H    0.063776
   157  H    0.051500
   158  H    0.065089
 Sum of Mulliken charges =  -0.00000

 Dipole moment (field-independent basis, Debye):
    X=              4.4596    Y=              1.3856    Z=              1.0715  Tot=              4.7913
 Quadrupole moment (field-independent basis, Debye-Ang):
   XX=           -528.3493   YY=           -559.1447   ZZ=           -491.0167
   XY=            -82.2243   XZ=              4.8959   YZ=              0.8334

 Normal termination of Gaussian 16 at Sat Sep 18 20:14:58 2021.
