 Gaussian 16, Revision A.03,
 Gaussian 16:  ES64L-G16RevA.03 25-Dec-2016

 --------------------------------
 #p wB97XD/Def2SVP td=(nstates=5)
 --------------------------------

 --------------------------------
 TDDFT excited states in gaussian
 --------------------------------
 Symbolic Z-matrix:
 Charge =  0 Multiplicity = 1

                         Standard orientation:
 ---------------------------------------------------------------------
 Center     Atomic      Atomic             Coordinates (Angstroms)
 Number     Number       Type             X           Y           Z
 ---------------------------------------------------------------------
      1         12           0      -24.738342    0.675705    0.357550
      2          6           0      -22.922107   -2.190031    0.961605
      3          6           0      -27.367726   -1.335587   -0.507372
      4          6           0      -26.430491    3.465152   -0.514244
      5          6           0      -21.849088    2.581006    0.690971
      6          7           0      -24.982385   -1.571827    0.134022
      7          6           0      -24.228505   -2.489203    0.604752
      8          6           0      -24.806697   -3.996327    0.553256
      9          6           0      -26.149106   -3.688660   -0.220625
     10          6           0      -26.174530   -2.088730   -0.297085
     11          6           0      -26.214029   -4.256449   -1.734061
     12          6           0      -25.022155   -4.694324    1.965589
     13          6           0      -24.847419   -6.252454    2.045039
     14          1           0      -24.745616   -6.984437    0.741021
     15          7           0      -26.606071    1.027022   -0.312418
     16          6           0      -27.644413    0.042966   -0.550439
     17          6           0      -28.852204    0.766955   -0.933015
     18          6           0      -28.566720    2.150240   -1.049089
     19          6           0      -27.169230    2.274636   -0.576681
     20          6           0      -30.093890   -0.032722   -1.100284
     21          6           0      -29.468273    3.347779   -1.430360
     22          8           0      -29.101018    4.472935   -1.595789
     23          6           0      -30.922965    2.978243   -1.784457
     24          7           0      -24.244007    2.756116   -0.001495
     25          6           0      -25.065742    3.697267   -0.343927
     26          6           0      -24.319068    5.018090   -0.684721
     27          6           0      -22.874765    4.764638   -0.190174
     28          6           0      -22.962361    3.275748    0.220061
     29          6           0      -24.419434    5.339346   -2.191112
     30          6           0      -22.450996    5.745616    0.945729
     31          6           0      -22.210831    7.195652    0.495292
     32          7           0      -22.745960    0.313199    0.752122
     33          6           0      -21.714802    1.213050    0.955160
     34          6           0      -20.567275    0.438994    1.349420
     35          6           0      -20.931213   -0.940870    1.343398
     36          6           0      -22.308873   -0.899586    0.995343
     37          6           0      -19.282971    0.971016    1.623221
     38          6           0      -20.551557   -2.291116    1.612702
     39          8           0      -19.404579   -2.743429    1.904989
     40          6           0      -21.821830   -3.155003    1.252234
     41          6           0      -21.439392   -4.062553    0.191630
     42          8           0      -21.393322   -3.759446   -1.000323
     43          8           0      -21.007338   -5.220235    0.787135
     44          6           0      -20.342610   -6.144148   -0.156073
     45          1           0      -28.215326   -1.951395   -0.813789
     46          1           0      -27.047558    4.324732   -0.786574
     47          1           0      -20.987349    3.232440    0.853507
     48          1           0      -24.106064   -4.512594   -0.103503
     49          1           0      -26.995539   -4.122638    0.311278
     50          1           0      -25.192669   -4.446716   -2.065011
     51          1           0      -26.681466   -3.516530   -2.383588
     52          1           0      -26.787065   -5.172190   -1.883104
     53          1           0      -26.060003   -4.465061    2.205806
     54          1           0      -24.572082   -4.196646    2.825261
     55          1           0      -25.633216   -6.754623    2.609224
     56          1           0      -23.893349   -6.477197    2.521931
     57          1           0      -30.145520   -0.457055   -2.103378
     58          1           0      -30.988130    0.493466   -0.765977
     59          1           0      -30.030768   -0.860288   -0.394105
     60          1           0      -31.548147    2.721500   -0.928709
     61          1           0      -30.769772    2.138236   -2.461215
     62          1           0      -31.472032    3.716435   -2.368246
     63          1           0      -24.828918    5.743455   -0.051136
     64          1           0      -22.185635    4.821655   -1.032727
     65          1           0      -24.593838    4.485911   -2.846714
     66          1           0      -23.542838    5.759966   -2.684938
     67          1           0      -25.250332    6.039234   -2.279328
     68          1           0      -21.504134    5.407367    1.364324
     69          1           0      -23.195812    5.730477    1.742138
     70          1           0      -22.490756    7.263571   -0.555969
     71          1           0      -21.136616    7.368208    0.427368
     72          1           0      -22.617513    8.009456    1.095171
     73          1           0      -19.478668    1.849386    2.238378
     74          1           0      -18.709339    1.316571    0.763353
     75          1           0      -18.669926    0.184042    2.063688
     76          1           0      -21.991985   -3.726560    2.165011
     77          1           0      -19.424815   -5.645567   -0.469062
     78          1           0      -21.013740   -6.467106   -0.951238
     79          1           0      -20.067193   -7.035940    0.407129
     80         12           0       24.822889    0.488439   -0.053514
     81          6           0       23.609720   -2.641014   -0.950851
     82          6           0       24.724981   -0.538594    3.218910
     83          6           0       25.776241    3.672427    0.878279
     84          6           0       24.366076    1.650580   -3.307946
     85          7           0       24.322861   -1.412959    0.975987
     86          6           0       23.961577   -2.584751    0.425888
     87          6           0       23.889761   -3.771787    1.414532
     88          6           0       24.021103   -3.014202    2.804741
     89          6           0       24.344134   -1.514794    2.337078
     90          6           0       22.686236   -3.191354    3.612651
     91          6           0       25.122480   -4.753751    1.064675
     92          6           0       24.769322   -6.247421    0.802323
     93          1           0       23.386672   -6.693210    1.401734
     94          7           0       25.139101    1.495674    1.763664
     95          6           0       25.126346    0.843895    3.014152
     96          6           0       25.659099    1.745887    4.012906
     97          6           0       25.918163    2.968759    3.381091
     98          6           0       25.687435    2.740206    1.906608
     99          6           0       25.567168    1.419111    5.510218
    100          6           0       26.395935    4.296356    4.026934
    101          8           0       26.616216    5.355146    3.409645
    102          6           0       26.697907    4.301894    5.535382
    103          7           0       24.949357    2.386475   -1.100628
    104          6           0       25.444650    3.553855   -0.443716
    105          6           0       25.339660    4.779024   -1.375786
    106          6           0       25.157159    4.053935   -2.789971
    107          6           0       24.845940    2.589467   -2.383908
    108          6           0       24.221760    5.688703   -0.893584
    109          6           0       26.486149    4.122052   -3.654376
    110          6           0       27.906756    3.676906   -3.166206
    111          7           0       24.072751   -0.254781   -1.760559
    112          6           0       23.920834    0.319165   -3.026512
    113          6           0       23.379922   -0.655337   -3.917522
    114          6           0       23.281435   -1.823579   -3.183508
    115          6           0       23.612888   -1.526351   -1.838467
    116          6           0       22.943899   -0.448545   -5.353658
    117          6           0       22.918699   -3.182923   -3.262464
    118          8           0       22.436187   -3.746036   -4.192826
    119          6           0       23.008285   -3.733685   -1.779196
    120          6           0       21.596720   -4.049896   -1.368485
    121          8           0       20.946187   -3.373741   -0.599255
    122          8           0       21.224848   -5.152778   -2.029076
    123          6           0       19.792945   -5.316681   -2.087524
    124          1           0       24.775223   -0.880159    4.254663
    125          1           0       25.840851    4.707984    1.216766
    126          1           0       24.206328    2.002381   -4.329816
    127          1           0       22.981577   -4.371141    1.353621
    128          1           0       24.857971   -3.336236    3.424882
    129          1           0       22.319866   -2.289722    4.104072
    130          1           0       23.026415   -3.940683    4.326853
    131          1           0       21.978129   -3.679539    2.943476
    132          1           0       25.877022   -4.607369    1.837269
    133          1           0       25.586511   -4.358284    0.160803
    134          1           0       25.604897   -6.744537    1.293866
    135          1           0       24.765618   -6.542547   -0.246539
    136          1           0       25.024250    2.238524    5.981962
    137          1           0       26.568043    1.431401    5.943814
    138          1           0       25.081321    0.453929    5.649929
    139          1           0       25.736073    4.261135    6.048245
    140          1           0       27.100150    5.292185    5.748327
    141          1           0       27.498253    3.593981    5.749404
    142          1           0       26.337304    5.218910   -1.363287
    143          1           0       24.420020    4.589543   -3.387086
    144          1           0       24.054883    5.629033    0.182037
    145          1           0       23.285128    5.443114   -1.393571
    146          1           0       24.473392    6.734901   -1.066295
    147          1           0       26.570221    5.134866   -4.048507
    148          1           0       26.283132    3.406496   -4.451200
    149          1           0       28.381733    4.528612   -2.679077
    150          1           0       28.448642    3.402391   -4.072006
    151          1           0       27.946028    2.766246   -2.567640
    152          1           0       23.763283   -0.113104   -5.989674
    153          1           0       22.194415    0.339623   -5.284729
    154          1           0       22.647940   -1.349722   -5.892507
    155          1           0       23.577351   -4.647975   -1.609894
    156          1           0       19.442337   -5.824704   -2.985598
    157          1           0       19.112756   -4.497009   -1.856482
    158          1           0       19.399746   -5.971510   -1.309602
 ---------------------------------------------------------------------

 SCF Done:  E(RwB97XD) =  -4070.62634410     A.U. after   19 cycles

 Excitation energies and oscillator strengths:

 Excited State   1:      Singlet-A      1.6514 eV  750.77 nm  f=0.3887  <S**2>=0.000
     309 -> 316       -0.18079
     312 -> 313        0.68427
     309 <- 316       -0.11555
 This state for optimization and/or second-order correction.
 Total Energy, E(TD-HF/TD-DFT) =  -4070.56565511
 Copying the excited state density for this state as the 1-particle RhoCI density.

 Excited State   2:      Singlet-A      1.7222 eV  719.93 nm  f=0.3807  <S**2>=0.000
     310 -> 315        0.20373
     311 -> 314        0.67765
     310 <- 315        0.11867

 Excited State   3:      Singlet-A      2.1613 eV  573.65 nm  f=0.1063  <S**2>=0.000
     310 -> 314        0.64084
     311 -> 315       -0.28349

 Excited State   4:      Singlet-A      2.1706 eV  571.19 nm  f=0.1262  <S**2>=0.000
     309 -> 313        0.64463
     312 -> 316        0.27776

 Excited State   5:      Singlet-A      3.4206 eV  362.47 nm  f=0.0250  <S**2>=0.000
     303 -> 313       -0.50597
     305 -> 313       -0.21841
     307 -> 313        0.35960
     312 -> 316        0.19442

 The electronic state is 1-A.
 Alpha  occ. eigenvalues --  -46.94729 -46.94390 -19.31366 -19.29991 -19.25187
 Alpha  occ. eigenvalues --  -19.24991 -19.24419 -19.24218 -19.23553 -19.23271
 Alpha  occ. eigenvalues --  -14.46812 -14.46774 -14.46091 -14.45995 -14.44322
 Alpha  occ. eigenvalues --  -14.44088 -14.43672 -14.43487 -10.43140 -10.42362
 Alpha  occ. eigenvalues --  -10.40254 -10.39022 -10.38838 -10.38763 -10.35917
 Alpha  occ. eigenvalues --  -10.35643 -10.35076 -10.34972 -10.34795 -10.34749
 Alpha  occ. eigenvalues --  -10.34666 -10.34449 -10.34423 -10.34302 -10.34292
 Alpha  occ. eigenvalues --  -10.34251 -10.33860 -10.33795 -10.33610 -10.33585
 Alpha  occ. eigenvalues --  -10.33575 -10.33136 -10.33047 -10.32989 -10.32936
 Alpha  occ. eigenvalues --  -10.32867 -10.32589 -10.32415 -10.32320 -10.32229
 Alpha  occ. eigenvalues --  -10.32176 -10.32118 -10.31884 -10.31831 -10.31727
 Alpha  occ. eigenvalues --  -10.31717 -10.31680 -10.31624 -10.31604 -10.31569
 Alpha  occ. eigenvalues --  -10.31138 -10.31134 -10.31130 -10.31050 -10.31018
 Alpha  occ. eigenvalues --  -10.31011 -10.30753 -10.30721 -10.30653 -10.30545
 Alpha  occ. eigenvalues --  -10.30467 -10.30458 -10.30170 -10.30151 -10.30014
 Alpha  occ. eigenvalues --  -10.29629 -10.29591 -10.29506 -10.29400 -10.29361
 Alpha  occ. eigenvalues --  -10.29182 -10.29152 -10.29054 -10.28753 -10.28452
 Alpha  occ. eigenvalues --  -10.28444  -3.20772  -3.20423  -1.94356  -1.94016
 Alpha  occ. eigenvalues --   -1.93903  -1.93745  -1.93525  -1.93416  -1.20336
 Alpha  occ. eigenvalues --   -1.17655  -1.14748  -1.14277  -1.11253  -1.10456
 Alpha  occ. eigenvalues --   -1.09380  -1.08926  -1.07378  -1.06286  -1.06158
 Alpha  occ. eigenvalues --   -1.05455  -1.05302  -1.04716  -1.03109  -1.02925
 Alpha  occ. eigenvalues --   -0.94796  -0.94474  -0.91177  -0.90404  -0.90256
 Alpha  occ. eigenvalues --   -0.89960  -0.89704  -0.89600  -0.89371  -0.88996
 Alpha  occ. eigenvalues --   -0.88876  -0.88778  -0.88402  -0.87894  -0.85855
 Alpha  occ. eigenvalues --   -0.85834  -0.85328  -0.85234  -0.84206  -0.84126
 Alpha  occ. eigenvalues --   -0.83630  -0.83131  -0.82971  -0.82777  -0.82224
 Alpha  occ. eigenvalues --   -0.81843  -0.80517  -0.79613  -0.79279  -0.78989
 Alpha  occ. eigenvalues --   -0.78630  -0.78272  -0.77756  -0.77645  -0.76858
 Alpha  occ. eigenvalues --   -0.76751  -0.74937  -0.74173  -0.73426  -0.73114
 Alpha  occ. eigenvalues --   -0.71294  -0.70795  -0.70715  -0.70606  -0.70143
 Alpha  occ. eigenvalues --   -0.69907  -0.68988  -0.68298  -0.67782  -0.67732
 Alpha  occ. eigenvalues --   -0.67290  -0.66750  -0.66516  -0.66430  -0.66059
 Alpha  occ. eigenvalues --   -0.65840  -0.64341  -0.63519  -0.62028  -0.61957
 Alpha  occ. eigenvalues --   -0.61387  -0.61349  -0.61066  -0.60877  -0.60358
 Alpha  occ. eigenvalues --   -0.60248  -0.59969  -0.59836  -0.59609  -0.59212
 Alpha  occ. eigenvalues --   -0.58180  -0.57971  -0.57634  -0.57574  -0.57147
 Alpha  occ. eigenvalues --   -0.56877  -0.56431  -0.56338  -0.55869  -0.55867
 Alpha  occ. eigenvalues --   -0.55297  -0.55286  -0.55099  -0.55033  -0.54894
 Alpha  occ. eigenvalues --   -0.54666  -0.54412  -0.54073  -0.53996  -0.53870
 Alpha  occ. eigenvalues --   -0.53799  -0.53784  -0.53653  -0.53231  -0.53056
 Alpha  occ. eigenvalues --   -0.52838  -0.52834  -0.52639  -0.52552  -0.52342
 Alpha  occ. eigenvalues --   -0.51819  -0.51734  -0.51426  -0.51303  -0.51046
 Alpha  occ. eigenvalues --   -0.51033  -0.50823  -0.50711  -0.50470  -0.50456
 Alpha  occ. eigenvalues --   -0.50358  -0.50195  -0.50113  -0.49824  -0.49739
 Alpha  occ. eigenvalues --   -0.49685  -0.49633  -0.49367  -0.49062  -0.48954
 Alpha  occ. eigenvalues --   -0.48556  -0.48553  -0.48351  -0.48155  -0.48135
 Alpha  occ. eigenvalues --   -0.48062  -0.47942  -0.47721  -0.47520  -0.47458
 Alpha  occ. eigenvalues --   -0.47113  -0.47058  -0.46868  -0.46751  -0.46495
 Alpha  occ. eigenvalues --   -0.46410  -0.46294  -0.46221  -0.46191  -0.46065
 Alpha  occ. eigenvalues --   -0.45722  -0.45643  -0.45546  -0.45444  -0.45341
 Alpha  occ. eigenvalues --   -0.45150  -0.44966  -0.44883  -0.44868  -0.44655
 Alpha  occ. eigenvalues --   -0.44544  -0.44538  -0.44260  -0.44198  -0.43771
 Alpha  occ. eigenvalues --   -0.43678  -0.43641  -0.43614  -0.43367  -0.43238
 Alpha  occ. eigenvalues --   -0.43073  -0.42666  -0.42573  -0.42509  -0.42155
 Alpha  occ. eigenvalues --   -0.42099  -0.41687  -0.41424  -0.41251  -0.41015
 Alpha  occ. eigenvalues --   -0.40117  -0.39873  -0.39636  -0.39515  -0.39364
 Alpha  occ. eigenvalues --   -0.39068  -0.39034  -0.38953  -0.38538  -0.38413
 Alpha  occ. eigenvalues --   -0.38215  -0.38125  -0.36726  -0.36274  -0.36056
 Alpha  occ. eigenvalues --   -0.35854  -0.35600  -0.34903  -0.33801  -0.33780
 Alpha  occ. eigenvalues --   -0.33329  -0.33025  -0.32455  -0.32424  -0.32281
 Alpha  occ. eigenvalues --   -0.32254  -0.31665  -0.31288  -0.25657  -0.25577
 Alpha  occ. eigenvalues --   -0.23037  -0.22752
 Alpha virt. eigenvalues --   -0.06871  -0.06748   0.00240   0.00635   0.02043
 Alpha virt. eigenvalues --    0.02644   0.04219   0.04630   0.05647   0.05720
 Alpha virt. eigenvalues --    0.07138   0.07670   0.08306   0.08354   0.08637

 Mulliken charges:
               1
     1  Mg   0.972760
     2  C    0.036703
     3  C   -0.076494
     4  C   -0.083450
     5  C   -0.099860
     6  N   -0.274816
     7  C   -0.097177
     8  C   -0.014339
     9  C   -0.137547
    10  C    0.065970
    11  C    0.000614
    12  C    0.023653
    13  C   -0.131679
    14  H    0.035215
    15  N   -0.531949
    16  C    0.160546
    17  C   -0.146709
    18  C   -0.099952
    19  C    0.147703
    20  C    0.050119
    21  C    0.084676
    22  O   -0.192552
    23  C   -0.045223
    24  N   -0.332387
    25  C    0.040158
    26  C   -0.054419
    27  C   -0.067591
    28  C    0.054648
    29  C    0.016548
    30  C   -0.022538
    31  C   -0.039126
    32  N   -0.427701
    33  C    0.163598
    34  C   -0.180255
    35  C    0.016151
    36  C    0.116653
    37  C    0.057365
    38  C    0.086129
    39  O   -0.253851
    40  C   -0.075505
    41  C    0.267890
    42  O   -0.262086
    43  O   -0.366882
    44  C    0.144980
    45  H   -0.003063
    46  H    0.012722
    47  H   -0.006258
    48  H    0.049142
    49  H    0.040259
    50  H    0.048186
    51  H    0.038267
    52  H    0.039837
    53  H    0.016284
    54  H    0.039523
    55  H    0.057641
    56  H    0.064719
    57  H    0.067865
    58  H    0.043830
    59  H    0.042698
    60  H    0.070885
    61  H    0.053248
    62  H    0.049665
    63  H    0.038218
    64  H    0.035343
    65  H    0.043609
    66  H    0.034042
    67  H    0.050537
    68  H    0.028764
    69  H    0.032090
    70  H    0.024466
    71  H    0.026133
    72  H    0.050564
    73  H    0.038280
    74  H    0.050050
    75  H    0.057926
    76  H    0.063372
    77  H    0.068108
    78  H    0.056057
    79  H    0.049004
    80  Mg   0.964224
    81  C   -0.022343
    82  C   -0.067103
    83  C   -0.064515
    84  C   -0.108212
    85  N   -0.333603
    86  C    0.014158
    87  C   -0.076115
    88  C   -0.120530
    89  C    0.066903
    90  C    0.027394
    91  C   -0.000261
    92  C   -0.127172
    93  H    0.035038
    94  N   -0.460770
    95  C    0.133567
    96  C   -0.174267
    97  C   -0.090011
    98  C    0.138076
    99  C    0.086429
   100  C    0.051253
   101  O   -0.252435
   102  C   -0.016332
   103  N   -0.338827
   104  C    0.022009
   105  C   -0.061294
   106  C   -0.072430
   107  C    0.097021
   108  C    0.042008
   109  C   -0.059405
   110  C   -0.054426
   111  N   -0.488432
   112  C    0.148278
   113  C   -0.184024
   114  C   -0.008179
   115  C    0.148201
   116  C    0.079502
   117  C    0.095177
   118  O   -0.162822
   119  C   -0.097350
   120  C    0.245573
   121  O   -0.236978
   122  O   -0.309773
   123  C    0.140926
   124  H   -0.012934
   125  H    0.030861
   126  H    0.003266
   127  H    0.039835
   128  H    0.038811
   129  H    0.052175
   130  H    0.032871
   131  H    0.049498
   132  H    0.033222
   133  H    0.042334
   134  H    0.057010
   135  H    0.070055
   136  H    0.044594
   137  H    0.039346
   138  H    0.041539
   139  H    0.061820
   140  H    0.044445
   141  H    0.063962
   142  H    0.035083
   143  H    0.030285
   144  H    0.046261
   145  H    0.035078
   146  H    0.037241
   147  H    0.038888
   148  H    0.021489
   149  H    0.047707
   150  H    0.037232
   151  H    0.043651
   152  H    0.037556
   153  H    0.056862
   154  H    0.057397
   155  H    0.056481
   156  H    0.058027
   157  H    0.054737
   158  H    0.025185
 Sum of Mulliken charges =  -0.00000

 Dipole moment (field-independent basis, Debye):
    X=             -3.7469    Y=             -2.2928    Z=              1.3365  Tot=              4.5916
 Quadrupole moment (field-independent basis, Debye-Ang):
   XX=           -215.4838   YY=           -491.2541   ZZ=           -496.7301
   XY=            -15.8782   XZ=              3.1632   YZ=            -20.5072

 Normal termination of Gaussian 16 at Mon Sep 20 10:44:34 2021.
