 Gaussian 16, Revision A.03,
 Gaussian 16:  ES64L-G16RevA.03 25-Dec-2016

 --------------------------------
 #p wB97XD/Def2SVP td=(nstates=5)
 --------------------------------

 --------------------------------
 TDDFT excited states in gaussian
 --------------------------------
 Symbolic Z-matrix:
 Charge =  0 Multiplicity = 1

                         Standard orientation:
 ---------------------------------------------------------------------
 Center     Atomic      Atomic             Coordinates (Angstroms)
 Number     Number       Type             X           Y           Z
 ---------------------------------------------------------------------
      1         12           0      -13.321264   -0.654669   -0.155811
      2          6           0      -11.951844    2.110369    1.491886
      3          6           0      -15.212711    1.328302   -1.961359
      4          6           0      -15.141932   -3.385483   -1.171500
      5          6           0      -11.674197   -2.783932    2.128685
      6          7           0      -13.442349    1.446822   -0.257819
      7          6           0      -12.773391    2.433370    0.432790
      8          6           0      -13.048516    3.815011   -0.146506
      9          6           0      -14.260786    3.523083   -1.087948
     10          6           0      -14.245530    2.037881   -1.194332
     11          6           0      -15.611863    4.131721   -0.780267
     12          6           0      -11.815595    4.506228   -0.811613
     13          6           0      -12.077440    5.908202   -1.372572
     14          1           0      -11.117169    6.998416   -0.920012
     15          7           0      -15.077179   -0.984339   -1.412593
     16          6           0      -15.609580   -0.011938   -2.181815
     17          6           0      -16.592103   -0.587174   -3.058007
     18          6           0      -16.658499   -1.958585   -2.757428
     19          6           0      -15.602155   -2.153356   -1.727350
     20          6           0      -17.414552    0.213784   -4.045232
     21          6           0      -17.487323   -3.034760   -3.378602
     22          8           0      -17.601659   -4.219429   -2.964665
     23          6           0      -18.263587   -2.758408   -4.660405
     24          7           0      -13.408823   -2.733271    0.415415
     25          6           0      -14.287923   -3.619266   -0.107883
     26          6           0      -13.909083   -5.117411    0.387462
     27          6           0      -12.509960   -4.892132    1.061028
     28          6           0      -12.455933   -3.401855    1.167456
     29          6           0      -15.043661   -5.643194    1.351109
     30          6           0      -11.347760   -5.320877    0.092533
     31          6           0      -11.320123   -4.773630   -1.326098
     32          7           0      -11.977941   -0.431309    1.499525
     33          6           0      -11.424198   -1.403982    2.285878
     34          6           0      -10.616237   -0.763327    3.216488
     35          6           0      -10.755458    0.641051    3.021929
     36          6           0      -11.603171    0.794988    1.956613
     37          6           0       -9.821671   -1.350980    4.328990
     38          6           0      -10.395311    2.004599    3.472503
     39          8           0       -9.725145    2.436742    4.403352
     40          6           0      -11.095750    3.016032    2.409059
     41          6           0      -11.769217    4.135698    3.119389
     42          8           0      -12.362804    4.032729    4.233835
     43          8           0      -11.475053    5.245806    2.456125
     44          6           0      -11.643510    6.460088    3.231248
     45          1           0      -15.781616    1.937570   -2.666934
     46          1           0      -15.687084   -4.269748   -1.510132
     47          1           0      -11.083144   -3.475965    2.730575
     48          1           0      -13.255097    4.430597    0.729188
     49          1           0      -14.090214    3.850180   -2.114201
     50          1           0      -15.622477    4.997378   -0.118008
     51          1           0      -16.270027    3.356451   -0.387079
     52          1           0      -16.115465    4.281896   -1.735424
     53          1           0      -11.410987    3.860854   -1.591706
     54          1           0      -11.013916    4.581843   -0.077700
     55          1           0      -12.930900    6.377770   -0.883800
     56          1           0      -12.194878    5.886070   -2.456403
     57          1           0      -17.302165    1.294903   -3.964532
     58          1           0      -18.494661    0.172220   -3.906879
     59          1           0      -17.219079   -0.047298   -5.085749
     60          1           0      -19.071552   -2.068579   -4.418212
     61          1           0      -18.863733   -3.614937   -4.966626
     62          1           0      -17.626357   -2.463677   -5.494959
     63          1           0      -13.887469   -5.790446   -0.469674
     64          1           0      -12.591736   -5.365665    2.039362
     65          1           0      -15.954589   -5.045273    1.317796
     66          1           0      -14.763590   -5.656448    2.404555
     67          1           0      -15.404858   -6.638566    1.096530
     68          1           0      -11.511596   -6.398505    0.101554
     69          1           0      -10.344449   -5.142922    0.478394
     70          1           0      -12.267373   -4.286625   -1.558702
     71          1           0      -11.019605   -5.469287   -2.108831
     72          1           0      -10.478526   -4.081826   -1.290255
     73          1           0       -9.123402   -2.129285    4.020135
     74          1           0      -10.557315   -1.822980    4.979612
     75          1           0       -9.293139   -0.596198    4.910374
     76          1           0      -10.252378    3.427925    1.855432
     77          1           0      -10.800630    7.131194    3.061433
     78          1           0      -11.686207    6.340490    4.313562
     79          1           0      -12.554230    6.928229    2.856282
     80         12           0       13.760628   -0.613108    0.115267
     81          6           0       11.557152    2.061262   -0.605135
     82          6           0       16.331820    1.553050   -0.177986
     83          6           0       15.757920   -3.151453    0.649994
     84          6           0       10.973551   -2.820474   -0.361787
     85          7           0       13.963404    1.587679   -0.449814
     86          6           0       12.896462    2.470396   -0.434966
     87          6           0       13.473074    3.843711   -0.377202
     88          6           0       14.930823    3.672885   -0.805691
     89          6           0       15.147604    2.181447   -0.446918
     90          6           0       15.092013    3.899628   -2.355631
     91          6           0       13.354668    4.626877    1.038855
     92          6           0       12.969667    6.137559    1.077227
     93          1           0       13.762159    7.086704    0.132484
     94          7           0       15.803311   -0.742141    0.203856
     95          6           0       16.644173    0.241705    0.077070
     96          6           0       18.009387   -0.301403    0.184384
     97          6           0       17.893777   -1.648208    0.644269
     98          6           0       16.436460   -1.920522    0.490251
     99          6           0       19.378777    0.421886   -0.085859
    100          6           0       18.937040   -2.641926    1.154163
    101          8           0       18.699276   -3.837176    1.413015
    102          6           0       20.335001   -2.239275    1.148187
    103          7           0       13.394126   -2.757382   -0.037691
    104          6           0       14.419618   -3.610959    0.360495
    105          6           0       13.833256   -5.064434    0.538933
    106          6           0       12.310214   -4.859737    0.343958
    107          6           0       12.193676   -3.374142   -0.004362
    108          6           0       14.521910   -6.100020   -0.350388
    109          6           0       11.400531   -5.352982    1.497218
    110          6           0       10.067423   -6.040112    1.119822
    111          7           0       11.696354   -0.473997   -0.392425
    112          6           0       10.712110   -1.435480   -0.598605
    113          6           0        9.447128   -0.766976   -0.768556
    114          6           0        9.742937    0.595398   -0.834732
    115          6           0       11.133754    0.760182   -0.587547
    116          6           0        8.177230   -1.361492   -0.833228
    117          6           0        9.180032    1.947665   -0.963213
    118          8           0        8.039355    2.361960   -1.095862
    119          6           0       10.358631    2.960732   -0.790064
    120          6           0       10.388048    3.834717   -2.031243
    121          8           0       10.871250    3.700077   -3.132603
    122          8           0        9.782325    4.973076   -1.583583
    123          6           0        9.921115    6.197852   -2.407080
    124          1           0       17.166765    2.257370   -0.182345
    125          1           0       16.427430   -3.926268    1.029131
    126          1           0       10.085496   -3.450790   -0.286997
    127          1           0       13.029204    4.577473   -1.050472
    128          1           0       15.623983    4.221442   -0.168414
    129          1           0       16.050384    4.331766   -2.641538
    130          1           0       14.398674    4.639363   -2.756598
    131          1           0       15.030573    2.902794   -2.790921
    132          1           0       14.252149    4.441527    1.628084
    133          1           0       12.609728    4.134610    1.665129
    134          1           0       13.268218    6.422791    2.086647
    135          1           0       11.899394    6.095082    0.875069
    136          1           0       19.993311    0.602864    0.795720
    137          1           0       19.143871    1.374892   -0.560716
    138          1           0       20.092211   -0.143190   -0.685753
    139          1           0       20.474638   -1.307819    1.697447
    140          1           0       20.699120   -2.119104    0.127777
    141          1           0       20.872424   -2.962210    1.761119
    142          1           0       13.943418   -5.301991    1.597118
    143          1           0       11.983246   -5.295132   -0.600102
    144          1           0       14.002660   -6.148253   -1.308115
    145          1           0       14.471444   -7.122765    0.021807
    146          1           0       15.493769   -5.713731   -0.655812
    147          1           0       11.195425   -4.597290    2.255323
    148          1           0       11.926634   -6.071083    2.127657
    149          1           0        9.325897   -5.246361    1.211543
    150          1           0        9.891901   -6.759620    1.920219
    151          1           0       10.126940   -6.448583    0.111378
    152          1           0        7.352639   -0.836143   -1.314529
    153          1           0        7.913777   -1.645133    0.186200
    154          1           0        8.310823   -2.255487   -1.441273
    155          1           0       10.208652    3.557265    0.109612
    156          1           0       10.130370    6.988840   -1.687478
    157          1           0        9.041259    6.499072   -2.975038
    158          1           0       10.775515    6.101094   -3.076446
 ---------------------------------------------------------------------

 SCF Done:  E(RwB97XD) =  -4070.61453492     A.U. after   19 cycles

 Excitation energies and oscillator strengths:

 Excited State   1:      Singlet-A      1.6671 eV  743.72 nm  f=0.5648  <S**2>=0.000
     309 -> 316       -0.16327
     311 -> 313        0.65539
     312 -> 314        0.20315
     309 <- 316       -0.10647
 This state for optimization and/or second-order correction.
 Total Energy, E(TD-HF/TD-DFT) =  -4070.55327097
 Copying the excited state density for this state as the 1-particle RhoCI density.

 Excited State   2:      Singlet-A      1.6749 eV  740.25 nm  f=0.2141  <S**2>=0.000
     310 -> 315        0.18815
     311 -> 313       -0.20511
     312 -> 314        0.64817
     310 <- 315        0.11224

 Excited State   3:      Singlet-A      2.0910 eV  592.95 nm  f=0.1628  <S**2>=0.000
     309 -> 313        0.66095
     311 -> 316        0.23068

 Excited State   4:      Singlet-A      2.2066 eV  561.87 nm  f=0.0673  <S**2>=0.000
     310 -> 314        0.62033
     312 -> 315       -0.32390

 Excited State   5:      Singlet-A      3.0716 eV  403.65 nm  f=0.0089  <S**2>=0.000
     308 -> 313        0.67873

 The electronic state is 1-A.
 Alpha  occ. eigenvalues --  -46.95687 -46.95667 -19.31794 -19.29586 -19.24955
 Alpha  occ. eigenvalues --  -19.24284 -19.24177 -19.23964 -19.23704 -19.23402
 Alpha  occ. eigenvalues --  -14.47462 -14.46371 -14.46346 -14.45978 -14.44409
 Alpha  occ. eigenvalues --  -14.44311 -14.43534 -14.42539 -10.43068 -10.43013
 Alpha  occ. eigenvalues --  -10.39758 -10.39475 -10.38808 -10.38770 -10.36149
 Alpha  occ. eigenvalues --  -10.35754 -10.35681 -10.35184 -10.35119 -10.34954
 Alpha  occ. eigenvalues --  -10.34827 -10.34810 -10.34799 -10.34692 -10.34306
 Alpha  occ. eigenvalues --  -10.34021 -10.34007 -10.33969 -10.33953 -10.33810
 Alpha  occ. eigenvalues --  -10.33629 -10.33541 -10.33154 -10.32538 -10.32338
 Alpha  occ. eigenvalues --  -10.32304 -10.32301 -10.32300 -10.32178 -10.32089
 Alpha  occ. eigenvalues --  -10.31940 -10.31908 -10.31833 -10.31811 -10.31768
 Alpha  occ. eigenvalues --  -10.31759 -10.31752 -10.31750 -10.31621 -10.31597
 Alpha  occ. eigenvalues --  -10.31561 -10.31558 -10.31328 -10.31274 -10.31231
 Alpha  occ. eigenvalues --  -10.30962 -10.30746 -10.30547 -10.30448 -10.30396
 Alpha  occ. eigenvalues --  -10.30366 -10.30332 -10.30278 -10.30206 -10.30168
 Alpha  occ. eigenvalues --  -10.30001 -10.29903 -10.29608 -10.29544 -10.29490
 Alpha  occ. eigenvalues --  -10.29452 -10.29190 -10.29068 -10.28815 -10.28649
 Alpha  occ. eigenvalues --  -10.28208  -3.21531  -3.21512  -1.95114  -1.95107
 Alpha  occ. eigenvalues --   -1.94653  -1.94603  -1.94492  -1.94490  -1.20227
 Alpha  occ. eigenvalues --   -1.18270  -1.11801  -1.11562  -1.10932  -1.10599
 Alpha  occ. eigenvalues --   -1.09948  -1.08040  -1.07454  -1.07165  -1.06331
 Alpha  occ. eigenvalues --   -1.05923  -1.05271  -1.05027  -1.04412  -1.04069
 Alpha  occ. eigenvalues --   -0.94723  -0.93733  -0.91433  -0.91144  -0.90742
 Alpha  occ. eigenvalues --   -0.90343  -0.90298  -0.89919  -0.89855  -0.89465
 Alpha  occ. eigenvalues --   -0.89052  -0.89008  -0.88785  -0.87537  -0.86659
 Alpha  occ. eigenvalues --   -0.86115  -0.85616  -0.85460  -0.84717  -0.84589
 Alpha  occ. eigenvalues --   -0.84387  -0.83763  -0.83423  -0.83247  -0.82584
 Alpha  occ. eigenvalues --   -0.82545  -0.80830  -0.80325  -0.79446  -0.79350
 Alpha  occ. eigenvalues --   -0.79202  -0.78929  -0.78004  -0.77765  -0.77133
 Alpha  occ. eigenvalues --   -0.77027  -0.74665  -0.74472  -0.73768  -0.73662
 Alpha  occ. eigenvalues --   -0.71830  -0.71036  -0.70839  -0.70644  -0.70302
 Alpha  occ. eigenvalues --   -0.69672  -0.69634  -0.69301  -0.67406  -0.67403
 Alpha  occ. eigenvalues --   -0.67263  -0.67146  -0.66944  -0.66623  -0.66459
 Alpha  occ. eigenvalues --   -0.66303  -0.64646  -0.63916  -0.63025  -0.62465
 Alpha  occ. eigenvalues --   -0.61687  -0.61536  -0.61207  -0.61171  -0.60484
 Alpha  occ. eigenvalues --   -0.60268  -0.59873  -0.59474  -0.59457  -0.59190
 Alpha  occ. eigenvalues --   -0.58171  -0.58138  -0.57902  -0.57836  -0.57666
 Alpha  occ. eigenvalues --   -0.57328  -0.57233  -0.57113  -0.56384  -0.56283
 Alpha  occ. eigenvalues --   -0.55618  -0.55487  -0.55193  -0.55162  -0.55113
 Alpha  occ. eigenvalues --   -0.55050  -0.54855  -0.54850  -0.54416  -0.54310
 Alpha  occ. eigenvalues --   -0.54012  -0.53592  -0.53581  -0.53481  -0.53462
 Alpha  occ. eigenvalues --   -0.53129  -0.52858  -0.52695  -0.52469  -0.52368
 Alpha  occ. eigenvalues --   -0.52325  -0.51983  -0.51876  -0.51572  -0.51479
 Alpha  occ. eigenvalues --   -0.51307  -0.51020  -0.50911  -0.50767  -0.50711
 Alpha  occ. eigenvalues --   -0.50444  -0.50399  -0.50204  -0.50079  -0.49968
 Alpha  occ. eigenvalues --   -0.49550  -0.49290  -0.49169  -0.49084  -0.49007
 Alpha  occ. eigenvalues --   -0.48834  -0.48635  -0.48551  -0.48394  -0.48233
 Alpha  occ. eigenvalues --   -0.48169  -0.47835  -0.47824  -0.47715  -0.47442
 Alpha  occ. eigenvalues --   -0.47307  -0.47030  -0.46945  -0.46794  -0.46583
 Alpha  occ. eigenvalues --   -0.46567  -0.46300  -0.46280  -0.46150  -0.45978
 Alpha  occ. eigenvalues --   -0.45745  -0.45744  -0.45596  -0.45589  -0.45305
 Alpha  occ. eigenvalues --   -0.45095  -0.44924  -0.44868  -0.44775  -0.44663
 Alpha  occ. eigenvalues --   -0.44513  -0.44266  -0.44205  -0.44067  -0.43943
 Alpha  occ. eigenvalues --   -0.43899  -0.43764  -0.43480  -0.43325  -0.43180
 Alpha  occ. eigenvalues --   -0.43091  -0.42776  -0.42711  -0.42416  -0.42332
 Alpha  occ. eigenvalues --   -0.42102  -0.41739  -0.41465  -0.41459  -0.41085
 Alpha  occ. eigenvalues --   -0.40648  -0.40561  -0.39796  -0.39667  -0.39316
 Alpha  occ. eigenvalues --   -0.39305  -0.38816  -0.38551  -0.38510  -0.38453
 Alpha  occ. eigenvalues --   -0.38281  -0.37813  -0.36630  -0.36073  -0.35898
 Alpha  occ. eigenvalues --   -0.35891  -0.35290  -0.34991  -0.34112  -0.33664
 Alpha  occ. eigenvalues --   -0.33342  -0.33134  -0.32914  -0.32708  -0.32410
 Alpha  occ. eigenvalues --   -0.32020  -0.31398  -0.30577  -0.25937  -0.25868
 Alpha  occ. eigenvalues --   -0.23541  -0.22752
 Alpha virt. eigenvalues --   -0.07670  -0.06599  -0.00123   0.00695   0.01949
 Alpha virt. eigenvalues --    0.02033   0.04309   0.04588   0.05002   0.05048
 Alpha virt. eigenvalues --    0.06675   0.07203   0.07877   0.08063   0.08328

 Mulliken charges:
               1
     1  Mg   0.940873
     2  C    0.025559
     3  C   -0.076085
     4  C   -0.054400
     5  C   -0.071360
     6  N   -0.396433
     7  C   -0.020289
     8  C   -0.029561
     9  C   -0.089400
    10  C    0.104896
    11  C    0.044387
    12  C    0.022459
    13  C   -0.128890
    14  H    0.030842
    15  N   -0.379614
    16  C    0.094871
    17  C   -0.112106
    18  C   -0.048776
    19  C    0.101433
    20  C    0.053101
    21  C    0.041179
    22  O   -0.259425
    23  C   -0.008905
    24  N   -0.351620
    25  C    0.069187
    26  C   -0.145159
    27  C   -0.029957
    28  C    0.039015
    29  C    0.014296
    30  C   -0.014289
    31  C   -0.051476
    32  N   -0.418322
    33  C    0.151699
    34  C   -0.204196
    35  C   -0.041149
    36  C    0.088538
    37  C    0.077120
    38  C    0.162019
    39  O   -0.201809
    40  C   -0.129162
    41  C    0.263510
    42  O   -0.280705
    43  O   -0.330262
    44  C    0.127215
    45  H   -0.027695
    46  H    0.024784
    47  H   -0.001155
    48  H    0.031440
    49  H    0.031596
    50  H    0.056273
    51  H    0.033504
    52  H    0.025641
    53  H    0.024589
    54  H    0.045034
    55  H    0.046379
    56  H    0.062218
    57  H    0.028537
    58  H    0.048628
    59  H    0.055097
    60  H    0.043678
    61  H    0.044554
    62  H    0.064214
    63  H    0.043750
    64  H    0.030651
    65  H    0.043494
    66  H    0.032376
    67  H    0.040026
    68  H    0.029492
    69  H    0.031018
    70  H    0.055268
    71  H    0.043844
    72  H    0.034001
    73  H    0.035319
    74  H    0.042726
    75  H    0.058009
    76  H    0.082274
    77  H    0.053600
    78  H    0.078484
    79  H    0.049502
    80  Mg   0.942137
    81  C   -0.051937
    82  C   -0.101185
    83  C   -0.067669
    84  C   -0.090802
    85  N   -0.320328
    86  C    0.052280
    87  C   -0.094500
    88  C   -0.080736
    89  C   -0.005959
    90  C    0.041927
    91  C   -0.020909
    92  C   -0.113895
    93  H    0.029486
    94  N   -0.428123
    95  C    0.195009
    96  C   -0.167389
    97  C   -0.071108
    98  C    0.113753
    99  C    0.058984
   100  C    0.067111
   101  O   -0.250769
   102  C   -0.004483
   103  N   -0.356315
   104  C    0.033159
   105  C   -0.062079
   106  C   -0.056410
   107  C    0.068558
   108  C    0.048411
   109  C   -0.039073
   110  C   -0.040947
   111  N   -0.439360
   112  C    0.135288
   113  C   -0.196838
   114  C   -0.015713
   115  C    0.167602
   116  C    0.061251
   117  C    0.109542
   118  O   -0.199586
   119  C   -0.077076
   120  C    0.279390
   121  O   -0.226534
   122  O   -0.373773
   123  C    0.131620
   124  H   -0.012456
   125  H    0.026179
   126  H   -0.012861
   127  H    0.024458
   128  H    0.020087
   129  H    0.029307
   130  H    0.045876
   131  H    0.057391
   132  H    0.021596
   133  H    0.024645
   134  H    0.065283
   135  H    0.071851
   136  H    0.043645
   137  H    0.040940
   138  H    0.041398
   139  H    0.037790
   140  H    0.075191
   141  H    0.054615
   142  H    0.039258
   143  H    0.033277
   144  H    0.015893
   145  H    0.046687
   146  H    0.047905
   147  H    0.025432
   148  H    0.022989
   149  H    0.043328
   150  H    0.039911
   151  H    0.045329
   152  H    0.059985
   153  H    0.054367
   154  H    0.037820
   155  H    0.081516
   156  H    0.047602
   157  H    0.063732
   158  H    0.058026
 Sum of Mulliken charges =  -0.00000

 Dipole moment (field-independent basis, Debye):
    X=              2.0940    Y=              2.3659    Z=             -3.6379  Tot=              4.8184
 Quadrupole moment (field-independent basis, Debye-Ang):
   XX=           -397.7657   YY=           -462.8351   ZZ=           -531.1693
   XY=              0.5191   XZ=            111.6224   YZ=            -18.2014

 Normal termination of Gaussian 16 at Sun Sep 19 01:53:43 2021.
