 Gaussian 16, Revision A.03,
 Gaussian 16:  ES64L-G16RevA.03 25-Dec-2016

 --------------------------------
 #p wB97XD/Def2SVP td=(nstates=5)
 --------------------------------

 --------------------------------
 TDDFT excited states in gaussian
 --------------------------------
 Symbolic Z-matrix:
 Charge =  0 Multiplicity = 1

                         Standard orientation:
 ---------------------------------------------------------------------
 Center     Atomic      Atomic             Coordinates (Angstroms)
 Number     Number       Type             X           Y           Z
 ---------------------------------------------------------------------
      1         12           0       30.520671    0.459069    0.550200
      2          6           0       30.606636   -2.550198   -1.285853
      3          6           0       29.042923    1.974298   -2.157521
      4          6           0       30.473045    3.382859    2.202382
      5          6           0       32.529541   -0.970282    3.033058
      6          7           0       29.820451   -0.313120   -1.371960
      7          6           0       29.904099   -1.498642   -1.968894
      8          6           0       29.276672   -1.608983   -3.374145
      9          6           0       29.090080   -0.034792   -3.625779
     10          6           0       29.384724    0.602777   -2.289986
     11          6           0       29.975195    0.514827   -4.717945
     12          6           0       27.869345   -2.425736   -3.417851
     13          6           0       27.590250   -3.069205   -4.779286
     14          1           0       27.472446   -4.614617   -4.738124
     15          7           0       29.697608    2.416027    0.167039
     16          6           0       29.162195    2.828637   -1.078223
     17          6           0       28.544974    4.117198   -0.858273
     18          6           0       28.922179    4.547387    0.410683
     19          6           0       29.720969    3.437221    1.018350
     20          6           0       27.839420    4.912636   -1.940361
     21          6           0       28.601653    5.809169    1.178752
     22          8           0       28.977903    5.928755    2.308115
     23          6           0       27.756588    6.899519    0.599494
     24          7           0       31.528021    1.188578    2.246709
     25          6           0       31.288252    2.420352    2.782400
     26          6           0       32.058247    2.467174    4.131352
     27          6           0       32.177569    1.027783    4.599157
     28          6           0       32.105920    0.320418    3.225377
     29          6           0       33.455373    3.039591    3.896360
     30          6           0       31.136835    0.600659    5.566858
     31          6           0       29.692313    0.932049    5.284683
     32          7           0       31.387816   -1.378882    0.885947
     33          6           0       32.185293   -1.837400    1.917583
     34          6           0       32.521070   -3.247402    1.666064
     35          6           0       31.898803   -3.552077    0.442939
     36          6           0       31.246483   -2.423625    0.026940
     37          6           0       33.370530   -4.103855    2.502037
     38          6           0       31.553262   -4.605578   -0.473376
     39          8           0       31.825672   -5.841874   -0.455133
     40          6           0       30.654519   -3.954419   -1.628064
     41          6           0       31.407379   -4.157402   -2.917375
     42          8           0       32.570175   -3.907619   -3.036609
     43          8           0       30.629597   -4.613056   -4.016174
     44          6           0       31.291645   -4.502894   -5.351606
     45          1           0       28.620831    2.486077   -3.024247
     46          1           0       30.567703    4.337666    2.724459
     47          1           0       33.004330   -1.526665    3.844229
     48          1           0       29.951973   -2.143423   -4.043473
     49          1           0       28.041279    0.059689   -3.909882
     50          1           0       29.357878    0.554576   -5.615264
     51          1           0       30.908474   -0.038275   -4.825732
     52          1           0       30.105643    1.561612   -4.443687
     53          1           0       27.042257   -1.748889   -3.201370
     54          1           0       27.836863   -3.176558   -2.628092
     55          1           0       28.428917   -2.697873   -5.368587
     56          1           0       26.713663   -2.640247   -5.264390
     57          1           0       27.596108    4.171013   -2.700269
     58          1           0       28.637180    5.542420   -2.333096
     59          1           0       26.930449    5.393657   -1.578554
     60          1           0       26.787018    6.401662    0.621108
     61          1           0       27.995752    7.161226   -0.430885
     62          1           0       27.788844    7.783639    1.237122
     63          1           0       31.618363    3.106513    4.895976
     64          1           0       33.100859    0.782621    5.123018
     65          1           0       34.313930    2.369635    3.848971
     66          1           0       33.644339    3.765727    4.686937
     67          1           0       33.431941    3.607841    2.965801
     68          1           0       31.362004    0.934455    6.580041
     69          1           0       31.224580   -0.485573    5.579305
     70          1           0       29.207435   -0.022611    5.078663
     71          1           0       29.369663    1.598912    4.484575
     72          1           0       29.245861    1.303797    6.206818
     73          1           0       34.398382   -3.752842    2.410946
     74          1           0       33.191583   -5.105075    2.110235
     75          1           0       33.115566   -4.010296    3.558517
     76          1           0       29.694810   -4.464869   -1.545350
     77          1           0       32.011831   -5.310211   -5.484172
     78          1           0       31.800225   -3.549499   -5.501818
     79          1           0       30.645429   -4.643401   -6.217599
     80         12           0      -31.068499   -0.471651   -0.042387
     81          6           0      -28.080133    1.317670   -0.174874
     82          6           0      -29.739084   -2.426341    2.466880
     83          6           0      -33.997763   -1.950505   -0.015858
     84          6           0      -32.652836    2.264352   -1.855313
     85          7           0      -29.011723   -0.541592    0.987859
     86          6           0      -27.952745    0.301362    0.799128
     87          6           0      -26.796283   -0.099804    1.644350
     88          6           0      -27.355581   -1.285212    2.527945
     89          6           0      -28.825008   -1.475119    1.983391
     90          6           0      -26.448564   -2.540482    2.577546
     91          6           0      -26.251236    1.058195    2.515208
     92          6           0      -24.742722    1.211995    2.329231
     93          1           0      -23.856710    1.215942    3.611406
     94          7           0      -31.761712   -2.012059    1.059899
     95          6           0      -31.068531   -2.740423    2.025565
     96          6           0      -31.977987   -3.801857    2.437492
     97          6           0      -33.242318   -3.709012    1.689848
     98          6           0      -33.030944   -2.538970    0.780124
     99          6           0      -31.701629   -4.678232    3.554378
    100          6           0      -34.411714   -4.543663    2.012515
    101          8           0      -34.417418   -5.413250    2.858515
    102          6           0      -35.759011   -4.354354    1.407686
    103          7           0      -32.968225    0.102557   -0.767154
    104          6           0      -33.953931   -0.846795   -0.862933
    105          6           0      -35.178058   -0.261123   -1.534589
    106          6           0      -34.874970    1.186260   -1.646138
    107          6           0      -33.457882    1.238058   -1.355008
    108          6           0      -35.626931   -0.989579   -2.867136
    109          6           0      -35.589236    2.052767   -0.552796
    110          6           0      -35.917729    3.426484   -0.917202
    111          7           0      -30.520482    1.420039   -0.900144
    112          6           0      -31.227787    2.371394   -1.646832
    113          6           0      -30.299671    3.284537   -2.236443
    114          6           0      -29.072428    2.956453   -1.672560
    115          6           0      -29.259484    1.814737   -0.814278
    116          6           0      -30.683512    4.359305   -3.185303
    117          6           0      -27.718452    3.336638   -1.590075
    118          8           0      -27.129244    4.244908   -2.132212
    119          6           0      -27.022316    2.291652   -0.689851
    120          6           0      -25.915981    1.674046   -1.438213
    121          8           0      -26.013792    0.698299   -2.201332
    122          8           0      -24.779926    2.436711   -1.292624
    123          6           0      -23.517045    1.986409   -1.854877
    124          1           0      -29.232822   -3.043670    3.211163
    125          1           0      -35.030816   -2.304288   -0.060588
    126          1           0      -33.164857    3.047667   -2.418120
    127          1           0      -26.135250   -0.628254    0.956840
    128          1           0      -27.444372   -1.036077    3.584923
    129          1           0      -25.486359   -2.143133    2.252213
    130          1           0      -26.794765   -3.415925    2.028039
    131          1           0      -26.340678   -2.878141    3.608009
    132          1           0      -26.339104    0.886765    3.587893
    133          1           0      -26.801878    1.949082    2.213737
    134          1           0      -24.717044    2.238764    1.964583
    135          1           0      -24.437975    0.500773    1.562928
    136          1           0      -30.709547   -4.434792    3.935255
    137          1           0      -31.629216   -5.741073    3.321730
    138          1           0      -32.422943   -4.486958    4.349651
    139          1           0      -35.467549   -4.281764    0.359871
    140          1           0      -36.173631   -3.412954    1.769145
    141          1           0      -36.399430   -5.217796    1.589075
    142          1           0      -35.970205   -0.462875   -0.814488
    143          1           0      -34.950737    1.649006   -2.630176
    144          1           0      -35.081245   -1.924841   -2.993474
    145          1           0      -35.637547   -0.357588   -3.755840
    146          1           0      -36.632521   -1.405354   -2.810123
    147          1           0      -34.986230    2.050020    0.355294
    148          1           0      -36.536008    1.598476   -0.261085
    149          1           0      -36.891474    3.432577   -1.408184
    150          1           0      -35.146954    3.886313   -1.536602
    151          1           0      -36.163091    3.994696   -0.019385
    152          1           0      -31.459802    4.020552   -3.871261
    153          1           0      -29.845152    4.779567   -3.741082
    154          1           0      -31.178910    5.093767   -2.550216
    155          1           0      -26.476525    2.742521    0.139069
    156          1           0      -23.375511    2.019984   -2.935177
    157          1           0      -23.293078    0.984722   -1.488609
    158          1           0      -22.793407    2.712203   -1.485692
 ---------------------------------------------------------------------

 SCF Done:  E(RwB97XD) =  -4070.57578385     A.U. after   20 cycles

 Excitation energies and oscillator strengths:

 Excited State   1:      Singlet-A      1.6144 eV  767.98 nm  f=0.3641  <S**2>=0.000
     309 -> 315       -0.19431
     311 -> 313        0.68134
     309 <- 315       -0.12117
 This state for optimization and/or second-order correction.
 Total Energy, E(TD-HF/TD-DFT) =  -4070.51645540
 Copying the excited state density for this state as the 1-particle RhoCI density.

 Excited State   2:      Singlet-A      1.6528 eV  750.16 nm  f=0.3719  <S**2>=0.000
     310 -> 316       -0.17779
     312 -> 314        0.68544
     310 <- 316       -0.11378

 Excited State   3:      Singlet-A      2.1299 eV  582.13 nm  f=0.0997  <S**2>=0.000
     309 -> 313        0.63360
     311 -> 315        0.30002

 Excited State   4:      Singlet-A      2.1347 eV  580.81 nm  f=0.1151  <S**2>=0.000
     310 -> 314        0.64481
     312 -> 316        0.27141

 Excited State   5:      Singlet-A      3.2692 eV  379.25 nm  f=0.0024  <S**2>=0.000
     305 -> 313       -0.24500
     306 -> 313        0.52258
     307 -> 313       -0.35501

 The electronic state is 1-A.
 Alpha  occ. eigenvalues --  -46.95304 -46.94955 -19.30118 -19.29711 -19.24934
 Alpha  occ. eigenvalues --  -19.24336 -19.24147 -19.23416 -19.23272 -19.22421
 Alpha  occ. eigenvalues --  -14.48031 -14.46939 -14.46570 -14.45927 -14.44924
 Alpha  occ. eigenvalues --  -14.44338 -14.43781 -14.43623 -10.43235 -10.42961
 Alpha  occ. eigenvalues --  -10.39182 -10.38752 -10.38219 -10.37666 -10.35944
 Alpha  occ. eigenvalues --  -10.35697 -10.35668 -10.35604 -10.35448 -10.35428
 Alpha  occ. eigenvalues --  -10.35364 -10.35166 -10.35102 -10.35098 -10.35062
 Alpha  occ. eigenvalues --  -10.34751 -10.34515 -10.34475 -10.33907 -10.33659
 Alpha  occ. eigenvalues --  -10.33343 -10.33113 -10.32985 -10.32954 -10.32778
 Alpha  occ. eigenvalues --  -10.32726 -10.32721 -10.32517 -10.32446 -10.32393
 Alpha  occ. eigenvalues --  -10.32319 -10.32317 -10.32309 -10.32287 -10.32246
 Alpha  occ. eigenvalues --  -10.32221 -10.32186 -10.32086 -10.31876 -10.31702
 Alpha  occ. eigenvalues --  -10.31427 -10.31360 -10.31338 -10.31221 -10.31174
 Alpha  occ. eigenvalues --  -10.31147 -10.31145 -10.31139 -10.30703 -10.30687
 Alpha  occ. eigenvalues --  -10.30615 -10.30498 -10.30373 -10.30351 -10.30299
 Alpha  occ. eigenvalues --  -10.30110 -10.29663 -10.29377 -10.29292 -10.29077
 Alpha  occ. eigenvalues --  -10.28958 -10.28918 -10.28801 -10.28769 -10.28388
 Alpha  occ. eigenvalues --  -10.28272  -3.21241  -3.20888  -1.94833  -1.94500
 Alpha  occ. eigenvalues --   -1.94374  -1.94197  -1.93988  -1.93875  -1.17730
 Alpha  occ. eigenvalues --   -1.17648  -1.14380  -1.12306  -1.12076  -1.09566
 Alpha  occ. eigenvalues --   -1.08918  -1.08844  -1.07318  -1.07005  -1.05833
 Alpha  occ. eigenvalues --   -1.05632  -1.05024  -1.04919  -1.03759  -1.03645
 Alpha  occ. eigenvalues --   -0.94916  -0.94652  -0.92666  -0.91992  -0.91476
 Alpha  occ. eigenvalues --   -0.91320  -0.91009  -0.90769  -0.89809  -0.89663
 Alpha  occ. eigenvalues --   -0.89206  -0.88848  -0.88288  -0.88107  -0.87183
 Alpha  occ. eigenvalues --   -0.86612  -0.86469  -0.85421  -0.85394  -0.84586
 Alpha  occ. eigenvalues --   -0.84517  -0.84426  -0.83395  -0.83044  -0.82807
 Alpha  occ. eigenvalues --   -0.81867  -0.80927  -0.80607  -0.79933  -0.79255
 Alpha  occ. eigenvalues --   -0.79084  -0.79003  -0.78262  -0.78210  -0.77358
 Alpha  occ. eigenvalues --   -0.76939  -0.75418  -0.74429  -0.74043  -0.73308
 Alpha  occ. eigenvalues --   -0.71607  -0.71335  -0.71046  -0.70846  -0.69963
 Alpha  occ. eigenvalues --   -0.69819  -0.69492  -0.69096  -0.68426  -0.67910
 Alpha  occ. eigenvalues --   -0.67781  -0.67308  -0.66961  -0.66712  -0.66204
 Alpha  occ. eigenvalues --   -0.65335  -0.64039  -0.63754  -0.62735  -0.62418
 Alpha  occ. eigenvalues --   -0.61908  -0.61492  -0.61471  -0.61151  -0.60992
 Alpha  occ. eigenvalues --   -0.60956  -0.60539  -0.59949  -0.59594  -0.59400
 Alpha  occ. eigenvalues --   -0.58421  -0.58417  -0.57840  -0.57757  -0.57432
 Alpha  occ. eigenvalues --   -0.57153  -0.56704  -0.56444  -0.56387  -0.56191
 Alpha  occ. eigenvalues --   -0.56005  -0.55941  -0.55676  -0.55599  -0.55161
 Alpha  occ. eigenvalues --   -0.54987  -0.54763  -0.54511  -0.54357  -0.54250
 Alpha  occ. eigenvalues --   -0.54048  -0.53811  -0.53699  -0.53625  -0.53605
 Alpha  occ. eigenvalues --   -0.53448  -0.53233  -0.53206  -0.52746  -0.52624
 Alpha  occ. eigenvalues --   -0.52377  -0.52199  -0.51982  -0.51913  -0.51635
 Alpha  occ. eigenvalues --   -0.51625  -0.51543  -0.51367  -0.51082  -0.51079
 Alpha  occ. eigenvalues --   -0.51030  -0.50793  -0.50500  -0.50430  -0.50270
 Alpha  occ. eigenvalues --   -0.50155  -0.49682  -0.49586  -0.49531  -0.49096
 Alpha  occ. eigenvalues --   -0.49089  -0.48961  -0.48739  -0.48669  -0.48586
 Alpha  occ. eigenvalues --   -0.48272  -0.48263  -0.48185  -0.47799  -0.47690
 Alpha  occ. eigenvalues --   -0.47460  -0.47332  -0.47259  -0.47112  -0.46917
 Alpha  occ. eigenvalues --   -0.46904  -0.46540  -0.46481  -0.46236  -0.46087
 Alpha  occ. eigenvalues --   -0.45992  -0.45647  -0.45608  -0.45440  -0.45436
 Alpha  occ. eigenvalues --   -0.45183  -0.45134  -0.45038  -0.45001  -0.44877
 Alpha  occ. eigenvalues --   -0.44776  -0.44485  -0.44465  -0.44400  -0.44004
 Alpha  occ. eigenvalues --   -0.43746  -0.43667  -0.43559  -0.43492  -0.43385
 Alpha  occ. eigenvalues --   -0.43103  -0.42955  -0.42895  -0.42606  -0.42287
 Alpha  occ. eigenvalues --   -0.42184  -0.42161  -0.41652  -0.41422  -0.41127
 Alpha  occ. eigenvalues --   -0.40470  -0.40310  -0.39683  -0.39669  -0.39318
 Alpha  occ. eigenvalues --   -0.39285  -0.39090  -0.39088  -0.38391  -0.38380
 Alpha  occ. eigenvalues --   -0.38319  -0.38226  -0.36625  -0.36505  -0.36365
 Alpha  occ. eigenvalues --   -0.35756  -0.35408  -0.35219  -0.33911  -0.33618
 Alpha  occ. eigenvalues --   -0.33377  -0.32681  -0.32337  -0.32148  -0.32061
 Alpha  occ. eigenvalues --   -0.31708  -0.31555  -0.31452  -0.26247  -0.26080
 Alpha  occ. eigenvalues --   -0.23395  -0.23209
 Alpha virt. eigenvalues --   -0.07537  -0.07299  -0.00615   0.00183   0.02296
 Alpha virt. eigenvalues --    0.02477   0.04294   0.04444   0.05817   0.06260
 Alpha virt. eigenvalues --    0.06471   0.07144   0.07434   0.07715   0.07916

 Mulliken charges:
               1
     1  Mg   0.953665
     2  C   -0.042953
     3  C   -0.110312
     4  C   -0.074548
     5  C   -0.071263
     6  N   -0.320947
     7  C   -0.004175
     8  C   -0.076531
     9  C   -0.141350
    10  C    0.116673
    11  C    0.056680
    12  C    0.009251
    13  C   -0.101854
    14  H    0.060743
    15  N   -0.444467
    16  C    0.147290
    17  C   -0.177302
    18  C   -0.058252
    19  C    0.148209
    20  C    0.068482
    21  C    0.023252
    22  O   -0.209948
    23  C   -0.010057
    24  N   -0.406276
    25  C    0.080568
    26  C   -0.094230
    27  C   -0.044036
    28  C    0.107949
    29  C    0.034248
    30  C    0.007538
    31  C   -0.069583
    32  N   -0.442703
    33  C    0.083689
    34  C   -0.209110
    35  C    0.007023
    36  C    0.127427
    37  C    0.079114
    38  C    0.099183
    39  O   -0.251503
    40  C   -0.045816
    41  C    0.263451
    42  O   -0.210414
    43  O   -0.401526
    44  C    0.135698
    45  H    0.006492
    46  H    0.021270
    47  H   -0.000377
    48  H    0.038189
    49  H    0.035960
    50  H    0.032105
    51  H    0.057755
    52  H    0.022852
    53  H    0.027407
    54  H    0.042827
    55  H    0.027494
    56  H    0.044606
    57  H    0.032532
    58  H    0.076059
    59  H    0.059567
    60  H    0.059923
    61  H    0.052754
    62  H    0.061977
    63  H    0.025011
    64  H    0.018254
    65  H    0.045000
    66  H    0.032944
    67  H    0.031277
    68  H    0.032134
    69  H    0.016189
    70  H    0.030687
    71  H    0.056747
    72  H    0.029942
    73  H    0.053934
    74  H    0.066193
    75  H    0.035065
    76  H    0.077678
    77  H    0.056921
    78  H    0.049863
    79  H    0.051794
    80  Mg   0.953518
    81  C    0.048378
    82  C   -0.057389
    83  C   -0.121926
    84  C   -0.096251
    85  N   -0.342647
    86  C   -0.024289
    87  C   -0.029561
    88  C   -0.145889
    89  C    0.045680
    90  C    0.012163
    91  C    0.023761
    92  C   -0.137361
    93  H    0.039212
    94  N   -0.537359
    95  C    0.202013
    96  C   -0.171543
    97  C   -0.063909
    98  C    0.269721
    99  C    0.097533
   100  C   -0.011575
   101  O   -0.238976
   102  C    0.006776
   103  N   -0.369012
   104  C    0.069759
   105  C   -0.083368
   106  C   -0.081694
   107  C    0.063077
   108  C    0.032032
   109  C    0.003076
   110  C   -0.018636
   111  N   -0.407108
   112  C    0.111716
   113  C   -0.185389
   114  C   -0.015244
   115  C    0.112835
   116  C    0.089606
   117  C    0.108520
   118  O   -0.187635
   119  C   -0.127661
   120  C    0.253661
   121  O   -0.269056
   122  O   -0.361197
   123  C    0.149007
   124  H    0.001530
   125  H   -0.005746
   126  H   -0.002771
   127  H    0.049523
   128  H    0.042581
   129  H    0.038424
   130  H    0.051712
   131  H    0.032392
   132  H    0.051888
   133  H    0.051984
   134  H    0.064241
   135  H    0.053283
   136  H    0.001050
   137  H    0.057471
   138  H    0.064852
   139  H    0.039554
   140  H    0.062488
   141  H    0.058228
   142  H    0.032801
   143  H    0.027087
   144  H    0.034034
   145  H    0.045460
   146  H    0.027835
   147  H    0.039409
   148  H    0.020004
   149  H    0.027133
   150  H    0.029215
   151  H    0.034565
   152  H    0.036187
   153  H    0.067937
   154  H    0.051134
   155  H    0.050904
   156  H    0.058130
   157  H    0.047295
   158  H    0.050815
 Sum of Mulliken charges =  -0.00000

 Dipole moment (field-independent basis, Debye):
    X=             -5.5939    Y=              6.4573    Z=             -1.9200  Tot=              8.7565
 Quadrupole moment (field-independent basis, Debye-Ang):
   XX=           -594.5523   YY=           -567.4011   ZZ=           -479.4101
   XY=            131.4261   XZ=            -36.3338   YZ=             -1.9721

 Normal termination of Gaussian 16 at Sat Sep 18 11:38:03 2021.
