 Gaussian 16, Revision A.03,
 Gaussian 16:  ES64L-G16RevA.03 25-Dec-2016

 --------------------------------
 #p wB97XD/Def2SVP td=(nstates=5)
 --------------------------------

 --------------------------------
 TDDFT excited states in gaussian
 --------------------------------
 Symbolic Z-matrix:
 Charge =  0 Multiplicity = 1

                         Standard orientation:
 ---------------------------------------------------------------------
 Center     Atomic      Atomic             Coordinates (Angstroms)
 Number     Number       Type             X           Y           Z
 ---------------------------------------------------------------------
      1         12           0      -11.771052    0.169996   -0.572079
      2          6           0       -8.636158   -1.279020    0.668248
      3          6           0      -13.249723   -2.694592    0.687824
      4          6           0      -14.523929    1.778292   -0.642227
      5          6           0       -9.814269    3.095612   -1.295637
      6          7           0      -10.953143   -1.757059    0.721081
      7          6           0       -9.675865   -2.126170    1.082441
      8          6           0       -9.738655   -3.434564    1.952460
      9          6           0      -11.149116   -3.996375    1.703113
     10          6           0      -11.827742   -2.758949    1.001604
     11          6           0      -11.303043   -5.277523    0.782323
     12          6           0       -9.382510   -3.205871    3.461349
     13          6           0       -8.556049   -4.284215    4.128393
     14          1           0       -9.319987   -5.282025    5.054317
     15          7           0      -13.627007   -0.394066   -0.178923
     16          6           0      -14.080304   -1.621380    0.222013
     17          6           0      -15.563207   -1.594893    0.348865
     18          6           0      -15.924092   -0.272460   -0.018824
     19          6           0      -14.670705    0.439300   -0.256229
     20          6           0      -16.472511   -2.727835    0.852177
     21          6           0      -17.297804    0.399116    0.065041
     22          8           0      -18.248418   -0.306285    0.391920
     23          6           0      -17.554813    1.752263   -0.235176
     24          7           0      -12.074007    2.267053   -0.669454
     25          6           0      -13.390629    2.585323   -0.937256
     26          6           0      -13.446213    4.097402   -1.384285
     27          6           0      -11.951413    4.568466   -1.278916
     28          6           0      -11.230739    3.203201   -1.171285
     29          6           0      -14.081111    4.365384   -2.776446
     30          6           0      -11.548457    5.583135   -0.134189
     31          6           0      -11.857020    7.075166   -0.348409
     32          7           0       -9.667336    0.852942   -0.438348
     33          6           0       -9.048430    2.000861   -0.891353
     34          6           0       -7.610830    1.901371   -0.819099
     35          6           0       -7.400473    0.603910   -0.218496
     36          6           0       -8.662708   -0.022885    0.070509
     37          6           0       -6.670343    2.998455   -1.212631
     38          6           0       -6.407966   -0.244712    0.270461
     39          8           0       -5.210652   -0.064201    0.446579
     40          6           0       -7.132465   -1.426939    0.976968
     41          6           0       -6.579172   -2.663815    0.308554
     42          8           0       -6.152057   -3.639205    0.931270
     43          8           0       -6.729908   -2.713858   -1.135673
     44          6           0       -6.515407   -4.056671   -1.672671
     45          1           0      -13.733935   -3.618383    1.009719
     46          1           0      -15.388980    2.399103   -0.884559
     47          1           0       -9.354185    4.024935   -1.637638
     48          1           0       -9.106151   -4.189926    1.483946
     49          1           0      -11.700336   -4.135289    2.633139
     50          1           0      -11.532396   -6.086489    1.475595
     51          1           0      -10.359692   -5.531397    0.299728
     52          1           0      -12.026597   -5.191047   -0.028223
     53          1           0      -10.239946   -3.196536    4.134753
     54          1           0       -8.805410   -2.288472    3.579243
     55          1           0       -7.728519   -3.783061    4.630561
     56          1           0       -8.119246   -4.896807    3.339059
     57          1           0      -17.383524   -2.762706    0.254140
     58          1           0      -16.630950   -2.485995    1.903070
     59          1           0      -15.997175   -3.698820    0.719899
     60          1           0      -17.386085    1.897975   -1.302611
     61          1           0      -17.014740    2.469698    0.382726
     62          1           0      -18.588376    1.841359    0.101104
     63          1           0      -14.015299    4.733836   -0.707475
     64          1           0      -11.596752    4.977356   -2.224716
     65          1           0      -13.310997    4.888503   -3.343511
     66          1           0      -14.947105    5.011815   -2.637481
     67          1           0      -14.329090    3.366619   -3.137796
     68          1           0      -10.469280    5.450316   -0.051116
     69          1           0      -12.082037    5.360223    0.790006
     70          1           0      -12.246196    7.054369   -1.366758
     71          1           0      -10.940307    7.663338   -0.410318
     72          1           0      -12.571795    7.537646    0.331829
     73          1           0       -6.962891    3.856327   -0.608603
     74          1           0       -6.806986    3.341597   -2.237990
     75          1           0       -5.643126    2.809599   -0.900538
     76          1           0       -6.803031   -1.422145    2.015804
     77          1           0       -7.124383   -3.911864   -2.565820
     78          1           0       -6.757578   -4.833831   -0.947806
     79          1           0       -5.478295   -4.088745   -2.006773
     80         12           0       11.211668    0.830279   -0.131591
     81          6           0       10.593836   -2.600668   -0.547729
     82          6           0        7.853976    1.322860    0.028408
     83          6           0       11.948635    3.910610    0.683784
     84          6           0       14.617214   -0.153623    0.501337
     85          7           0        9.475720   -0.483077   -0.315875
     86          6           0        9.445576   -1.841377   -0.460603
     87          6           0        8.010010   -2.320221   -0.197538
     88          6           0        7.194944   -1.089796   -0.580178
     89          6           0        8.220076   -0.014802   -0.170996
     90          6           0        6.871875   -1.027718   -2.090943
     91          6           0        7.807311   -2.728504    1.308480
     92          6           0        7.525987   -4.273602    1.650125
     93          1           0        8.518938   -5.033623    2.545942
     94          7           0       10.065222    2.388754    0.353809
     95          6           0        8.689435    2.408299    0.341856
     96          6           0        8.261482    3.755410    0.555365
     97          6           0        9.412010    4.607602    0.638036
     98          6           0       10.562375    3.660584    0.568062
     99          6           0        6.754242    4.177604    0.632084
    100          6           0        9.364277    6.174722    0.749593
    101          8           0        8.321041    6.747633    0.675230
    102          6           0       10.619014    6.911628    0.660626
    103          7           0       12.974526    1.693387    0.813117
    104          6           0       13.051735    3.036423    0.657291
    105          6           0       14.477661    3.542096    0.516030
    106          6           0       15.314430    2.311463    0.830641
    107          6           0       14.234567    1.179850    0.717553
    108          6           0       14.785050    4.120181   -0.914773
    109          6           0       16.129267    2.240611    2.206931
    110          6           0       17.628854    2.361803    2.253026
    111          7           0       12.425807   -0.916713   -0.230545
    112          6           0       13.775150   -1.169885    0.047732
    113          6           0       14.090720   -2.576722   -0.074106
    114          6           0       12.874714   -3.159612   -0.333616
    115          6           0       11.861396   -2.147577   -0.402702
    116          6           0       15.417846   -3.177469    0.137451
    117          6           0       12.217858   -4.435411   -0.573567
    118          8           0       12.709239   -5.564166   -0.696833
    119          6           0       10.758723   -4.119806   -0.826808
    120          6           0       10.439069   -4.568818   -2.248516
    121          8           0       11.057511   -4.113175   -3.207735
    122          8           0        9.495558   -5.607822   -2.262808
    123          6           0        9.172114   -6.104379   -3.573583
    124          1           0        6.777349    1.466153   -0.081901
    125          1           0       12.159833    4.979720    0.630164
    126          1           0       15.671338   -0.426855    0.585195
    127          1           0        7.879752   -3.242912   -0.763579
    128          1           0        6.281159   -1.093135    0.012726
    129          1           0        5.800535   -0.843371   -2.019340
    130          1           0        7.125949   -2.018935   -2.467542
    131          1           0        7.387630   -0.264837   -2.674255
    132          1           0        6.928630   -2.195016    1.670779
    133          1           0        8.651021   -2.333066    1.873506
    134          1           0        7.579123   -4.791661    0.692281
    135          1           0        6.530605   -4.478500    2.042437
    136          1           0        6.437437    4.792652    1.473806
    137          1           0        6.191135    3.244252    0.662510
    138          1           0        6.422268    4.714625   -0.256637
    139          1           0       11.352439    6.645383    1.422056
    140          1           0       10.397850    7.975891    0.740999
    141          1           0       10.999568    6.882045   -0.359434
    142          1           0       14.692756    4.380359    1.179556
    143          1           0       16.020750    2.118701    0.023124
    144          1           0       14.724631    5.207303   -0.962965
    145          1           0       14.182375    3.595941   -1.656415
    146          1           0       15.820134    3.863871   -1.145145
    147          1           0       15.850987    1.473108    2.928346
    148          1           0       15.720313    3.166582    2.612079
    149          1           0       17.976810    3.267210    2.749279
    150          1           0       18.024431    2.380698    1.237228
    151          1           0       17.954416    1.466999    2.783035
    152          1           0       15.976468   -2.520285    0.804452
    153          1           0       15.905400   -3.155385   -0.837592
    154          1           0       15.339083   -4.210038    0.474504
    155          1           0       10.252382   -4.766302   -0.111315
    156          1           0        8.501698   -5.465120   -4.148651
    157          1           0        8.700670   -7.085549   -3.525057
    158          1           0       10.035774   -6.272061   -4.216499
 ---------------------------------------------------------------------

 SCF Done:  E(RwB97XD) =  -4070.56173551     A.U. after   20 cycles

 Excitation energies and oscillator strengths:

 Excited State   1:      Singlet-A      1.6633 eV  745.40 nm  f=0.4713  <S**2>=0.000
     309 -> 315        0.12159
     310 -> 316        0.15629
     311 -> 313        0.41092
     312 -> 314        0.54168
 This state for optimization and/or second-order correction.
 Total Energy, E(TD-HF/TD-DFT) =  -4070.50060917
 Copying the excited state density for this state as the 1-particle RhoCI density.

 Excited State   2:      Singlet-A      1.6716 eV  741.73 nm  f=0.2514  <S**2>=0.000
     309 -> 315        0.16126
     310 -> 316       -0.12055
     311 -> 313        0.53824
     312 -> 314       -0.41265

 Excited State   3:      Singlet-A      2.1893 eV  566.32 nm  f=0.0665  <S**2>=0.000
     309 -> 313        0.61439
     311 -> 315       -0.33131

 Excited State   4:      Singlet-A      2.2259 eV  557.01 nm  f=0.0515  <S**2>=0.000
     310 -> 314        0.60370
     312 -> 316       -0.35659

 Excited State   5:      Singlet-A      3.5602 eV  348.25 nm  f=0.0000  <S**2>=0.000
     312 -> 313        0.70675

 The electronic state is 1-A.
 Alpha  occ. eigenvalues --  -46.97129 -46.94850 -19.31112 -19.29002 -19.25382
 Alpha  occ. eigenvalues --  -19.25092 -19.23903 -19.23857 -19.23682 -19.22947
 Alpha  occ. eigenvalues --  -14.47381 -14.46598 -14.46556 -14.46486 -14.45446
 Alpha  occ. eigenvalues --  -14.43811 -14.43799 -14.43771 -10.43978 -10.43332
 Alpha  occ. eigenvalues --  -10.38919 -10.38815 -10.38439 -10.37534 -10.36442
 Alpha  occ. eigenvalues --  -10.36001 -10.35680 -10.35639 -10.35489 -10.35086
 Alpha  occ. eigenvalues --  -10.35031 -10.34998 -10.34975 -10.34674 -10.34564
 Alpha  occ. eigenvalues --  -10.34524 -10.34374 -10.33904 -10.33657 -10.33395
 Alpha  occ. eigenvalues --  -10.33363 -10.33267 -10.33100 -10.33033 -10.33015
 Alpha  occ. eigenvalues --  -10.32938 -10.32710 -10.32468 -10.32443 -10.32420
 Alpha  occ. eigenvalues --  -10.32332 -10.32310 -10.32309 -10.32134 -10.32051
 Alpha  occ. eigenvalues --  -10.31997 -10.31765 -10.31764 -10.31717 -10.31680
 Alpha  occ. eigenvalues --  -10.31622 -10.31472 -10.31428 -10.30971 -10.30906
 Alpha  occ. eigenvalues --  -10.30877 -10.30849 -10.30790 -10.30769 -10.30765
 Alpha  occ. eigenvalues --  -10.30762 -10.30709 -10.30644 -10.30595 -10.30533
 Alpha  occ. eigenvalues --  -10.30226 -10.30141 -10.30068 -10.29970 -10.29838
 Alpha  occ. eigenvalues --  -10.29714 -10.29661 -10.29377 -10.29289 -10.29208
 Alpha  occ. eigenvalues --  -10.29025  -3.23032  -3.20895  -1.96556  -1.96198
 Alpha  occ. eigenvalues --   -1.95952  -1.94461  -1.94034  -1.93863  -1.17995
 Alpha  occ. eigenvalues --   -1.16145  -1.13939  -1.12711  -1.11244  -1.11183
 Alpha  occ. eigenvalues --   -1.10292  -1.08615  -1.07140  -1.06590  -1.06104
 Alpha  occ. eigenvalues --   -1.05395  -1.05385  -1.04732  -1.03933  -1.03122
 Alpha  occ. eigenvalues --   -0.94914  -0.94875  -0.90927  -0.90864  -0.90856
 Alpha  occ. eigenvalues --   -0.90618  -0.90431  -0.90280  -0.89400  -0.89014
 Alpha  occ. eigenvalues --   -0.88917  -0.88867  -0.87888  -0.86955  -0.86757
 Alpha  occ. eigenvalues --   -0.86328  -0.85989  -0.85794  -0.85630  -0.84518
 Alpha  occ. eigenvalues --   -0.84282  -0.84249  -0.83148  -0.82831  -0.82642
 Alpha  occ. eigenvalues --   -0.81893  -0.80272  -0.79785  -0.79309  -0.79000
 Alpha  occ. eigenvalues --   -0.78995  -0.78175  -0.77997  -0.77816  -0.77267
 Alpha  occ. eigenvalues --   -0.76850  -0.74861  -0.74698  -0.73955  -0.73928
 Alpha  occ. eigenvalues --   -0.71129  -0.70807  -0.70578  -0.70408  -0.69881
 Alpha  occ. eigenvalues --   -0.69748  -0.69036  -0.68572  -0.67624  -0.67548
 Alpha  occ. eigenvalues --   -0.67376  -0.67360  -0.67031  -0.66677  -0.66294
 Alpha  occ. eigenvalues --   -0.66068  -0.64552  -0.63948  -0.62447  -0.62018
 Alpha  occ. eigenvalues --   -0.61871  -0.61849  -0.61300  -0.60940  -0.60935
 Alpha  occ. eigenvalues --   -0.60696  -0.60307  -0.59533  -0.59224  -0.59029
 Alpha  occ. eigenvalues --   -0.58721  -0.58044  -0.57882  -0.57626  -0.57074
 Alpha  occ. eigenvalues --   -0.56795  -0.56720  -0.56327  -0.55880  -0.55756
 Alpha  occ. eigenvalues --   -0.55717  -0.55508  -0.55323  -0.55273  -0.54949
 Alpha  occ. eigenvalues --   -0.54883  -0.54726  -0.54549  -0.54474  -0.54450
 Alpha  occ. eigenvalues --   -0.53949  -0.53944  -0.53721  -0.53557  -0.53456
 Alpha  occ. eigenvalues --   -0.53010  -0.52768  -0.52622  -0.52548  -0.52223
 Alpha  occ. eigenvalues --   -0.51922  -0.51854  -0.51836  -0.51538  -0.51530
 Alpha  occ. eigenvalues --   -0.51406  -0.51146  -0.51077  -0.50938  -0.50853
 Alpha  occ. eigenvalues --   -0.50592  -0.50405  -0.50367  -0.50132  -0.50106
 Alpha  occ. eigenvalues --   -0.49931  -0.49842  -0.49712  -0.49272  -0.49253
 Alpha  occ. eigenvalues --   -0.48885  -0.48694  -0.48506  -0.48343  -0.48146
 Alpha  occ. eigenvalues --   -0.48086  -0.48021  -0.47891  -0.47847  -0.47694
 Alpha  occ. eigenvalues --   -0.47353  -0.47180  -0.47109  -0.46936  -0.46643
 Alpha  occ. eigenvalues --   -0.46485  -0.46357  -0.46219  -0.46073  -0.46050
 Alpha  occ. eigenvalues --   -0.45936  -0.45761  -0.45621  -0.45597  -0.45338
 Alpha  occ. eigenvalues --   -0.45194  -0.45092  -0.44819  -0.44590  -0.44423
 Alpha  occ. eigenvalues --   -0.44356  -0.44299  -0.44216  -0.44076  -0.43960
 Alpha  occ. eigenvalues --   -0.43922  -0.43705  -0.43478  -0.43467  -0.43348
 Alpha  occ. eigenvalues --   -0.43294  -0.42786  -0.42569  -0.42393  -0.42196
 Alpha  occ. eigenvalues --   -0.42159  -0.42124  -0.41852  -0.41748  -0.41253
 Alpha  occ. eigenvalues --   -0.40808  -0.40742  -0.39843  -0.39758  -0.39650
 Alpha  occ. eigenvalues --   -0.39265  -0.39199  -0.38989  -0.38444  -0.38381
 Alpha  occ. eigenvalues --   -0.38324  -0.37411  -0.36658  -0.36593  -0.36538
 Alpha  occ. eigenvalues --   -0.35973  -0.35561  -0.35315  -0.33872  -0.33561
 Alpha  occ. eigenvalues --   -0.33373  -0.33238  -0.33031  -0.32775  -0.32170
 Alpha  occ. eigenvalues --   -0.32151  -0.31640  -0.30907  -0.26437  -0.26141
 Alpha  occ. eigenvalues --   -0.23304  -0.22622
 Alpha virt. eigenvalues --   -0.07173  -0.06478  -0.00837  -0.00154   0.01840
 Alpha virt. eigenvalues --    0.02767   0.03604   0.04282   0.04773   0.05358
 Alpha virt. eigenvalues --    0.06541   0.06781   0.06919   0.07671   0.08113

 Mulliken charges:
               1
     1  Mg   0.966353
     2  C   -0.023877
     3  C   -0.063256
     4  C   -0.092022
     5  C   -0.100966
     6  N   -0.282641
     7  C   -0.034104
     8  C    0.018249
     9  C   -0.119715
    10  C   -0.008021
    11  C    0.015375
    12  C    0.017578
    13  C   -0.125826
    14  H    0.022373
    15  N   -0.499439
    16  C    0.163207
    17  C   -0.190099
    18  C   -0.055627
    19  C    0.215236
    20  C    0.096952
    21  C    0.017752
    22  O   -0.245671
    23  C    0.020219
    24  N   -0.384940
    25  C    0.048397
    26  C   -0.125755
    27  C   -0.090056
    28  C    0.045119
    29  C    0.037732
    30  C   -0.003833
    31  C   -0.042750
    32  N   -0.423464
    33  C    0.155278
    34  C   -0.159616
    35  C   -0.021172
    36  C    0.159164
    37  C    0.093562
    38  C    0.074370
    39  O   -0.216880
    40  C   -0.098666
    41  C    0.286576
    42  O   -0.256989
    43  O   -0.417775
    44  C    0.139138
    45  H   -0.001225
    46  H   -0.023676
    47  H   -0.001820
    48  H    0.034541
    49  H    0.044353
    50  H    0.048635
    51  H    0.036539
    52  H    0.049405
    53  H    0.048556
    54  H    0.043937
    55  H    0.057307
    56  H    0.052472
    57  H    0.068306
    58  H    0.069432
    59  H    0.030886
    60  H    0.075425
    61  H    0.064021
    62  H    0.054896
    63  H    0.035983
    64  H    0.019974
    65  H    0.037896
    66  H    0.042308
    67  H    0.042207
    68  H    0.028987
    69  H    0.036420
    70  H    0.015391
    71  H    0.040310
    72  H    0.050315
    73  H    0.034341
    74  H    0.047834
    75  H    0.062639
    76  H    0.072050
    77  H    0.050873
    78  H    0.068923
    79  H    0.052087
    80  Mg   0.956636
    81  C   -0.054654
    82  C   -0.097953
    83  C   -0.053296
    84  C   -0.094584
    85  N   -0.331724
    86  C   -0.023761
    87  C   -0.114977
    88  C   -0.115780
    89  C    0.038917
    90  C    0.060497
    91  C    0.025195
    92  C   -0.134420
    93  H    0.044090
    94  N   -0.518662
    95  C    0.210566
    96  C   -0.172749
    97  C   -0.106435
    98  C    0.151663
    99  C    0.083292
   100  C    0.062003
   101  O   -0.196849
   102  C   -0.021275
   103  N   -0.326713
   104  C    0.062317
   105  C   -0.102035
   106  C   -0.069961
   107  C    0.069698
   108  C    0.021194
   109  C   -0.022303
   110  C   -0.034735
   111  N   -0.428925
   112  C    0.127707
   113  C   -0.206978
   114  C   -0.016874
   115  C    0.192707
   116  C    0.097477
   117  C    0.099104
   118  O   -0.221219
   119  C   -0.021973
   120  C    0.288826
   121  O   -0.244634
   122  O   -0.362375
   123  C    0.139966
   124  H    0.002721
   125  H   -0.029563
   126  H   -0.001970
   127  H    0.017346
   128  H    0.025131
   129  H    0.044274
   130  H    0.038570
   131  H    0.054626
   132  H    0.033652
   133  H    0.055301
   134  H    0.047777
   135  H    0.059748
   136  H    0.056184
   137  H    0.012963
   138  H    0.051536
   139  H    0.070813
   140  H    0.041672
   141  H    0.069341
   142  H    0.033188
   143  H    0.024091
   144  H    0.045881
   145  H    0.041590
   146  H    0.029361
   147  H    0.043981
   148  H    0.016235
   149  H    0.043804
   150  H    0.026187
   151  H    0.041469
   152  H    0.036481
   153  H    0.057981
   154  H    0.065867
   155  H    0.061223
   156  H    0.042489
   157  H    0.050379
   158  H    0.053658
 Sum of Mulliken charges =  -0.00000

 Dipole moment (field-independent basis, Debye):
    X=             -3.8302    Y=              4.0972    Z=             -3.2303  Tot=              6.4724
 Quadrupole moment (field-independent basis, Debye-Ang):
   XX=           -427.0488   YY=           -499.7446   ZZ=           -506.8902
   XY=             39.4966   XZ=             31.8928   YZ=             -3.8962

 Normal termination of Gaussian 16 at Mon Sep 20 07:41:27 2021.
