 Gaussian 16, Revision A.03,
 Gaussian 16:  ES64L-G16RevA.03 25-Dec-2016

 --------------------------------
 #p wB97XD/Def2SVP td=(nstates=5)
 --------------------------------

 --------------------------------
 TDDFT excited states in gaussian
 --------------------------------
 Symbolic Z-matrix:
 Charge =  0 Multiplicity = 1

                         Standard orientation:
 ---------------------------------------------------------------------
 Center     Atomic      Atomic             Coordinates (Angstroms)
 Number     Number       Type             X           Y           Z
 ---------------------------------------------------------------------
      1         12           0        9.831822   -0.027232    0.742797
      2          6           0        9.070057    1.687320   -2.180056
      3          6           0        6.618346    0.806745    1.982400
      4          6           0       10.036704   -2.514657    2.964258
      5          6           0       12.668927   -1.318159   -0.904325
      6          7           0        7.865338    0.861331   -0.203508
      7          6           0        7.961040    1.690527   -1.295116
      8          6           0        6.689917    2.446716   -1.523150
      9          6           0        6.011657    2.373925   -0.078488
     10          6           0        6.840105    1.255603    0.647328
     11          6           0        5.985238    3.750725    0.758411
     12          6           0        5.881558    1.835638   -2.780361
     13          6           0        5.005724    2.769647   -3.448759
     14          1           0        3.543325    2.285723   -3.545266
     15          7           0        8.626237   -0.650282    2.365841
     16          6           0        7.332215   -0.172896    2.716027
     17          6           0        6.922209   -0.868033    3.924485
     18          6           0        7.904558   -1.832263    4.257104
     19          6           0        8.972955   -1.639046    3.219844
     20          6           0        5.586869   -0.661178    4.536194
     21          6           0        7.771864   -2.868850    5.450091
     22          8           0        6.750230   -2.803812    6.132016
     23          6           0        8.958792   -3.687806    5.945660
     24          7           0       11.113544   -1.702421    0.889614
     25          6           0       11.033269   -2.492652    1.990046
     26          6           0       12.112391   -3.744021    1.958412
     27          6           0       13.101887   -3.217287    0.811659
     28          6           0       12.318877   -2.005403    0.214663
     29          6           0       12.901404   -4.004833    3.297091
     30          6           0       13.400966   -4.271914   -0.255459
     31          6           0       14.853714   -4.722870   -0.540058
     32          7           0       10.844770    0.355132   -1.015490
     33          6           0       11.980491   -0.211260   -1.517217
     34          6           0       12.356144    0.476455   -2.721699
     35          6           0       11.153260    1.214563   -3.034983
     36          6           0       10.264928    1.048442   -1.958784
     37          6           0       13.565127    0.200627   -3.568180
     38          6           0       10.517738    2.002997   -4.070023
     39          8           0       10.980370    2.490061   -5.056497
     40          6           0        9.090440    2.432783   -3.551003
     41          6           0        8.917987    3.949820   -3.317138
     42          8           0        9.684959    4.640506   -2.681315
     43          8           0        7.797650    4.414438   -4.036535
     44          6           0        7.595052    5.831406   -4.070031
     45          1           0        5.647405    1.156370    2.337261
     46          1           0       10.033379   -3.466504    3.499131
     47          1           0       13.566410   -1.732590   -1.367173
     48          1           0        6.853946    3.522217   -1.597749
     49          1           0        4.985420    2.027687   -0.206391
     50          1           0        4.929333    3.954712    0.935588
     51          1           0        6.464762    4.575963    0.232878
     52          1           0        6.486498    3.540991    1.703762
     53          1           0        5.278085    1.047980   -2.329544
     54          1           0        6.695786    1.387847   -3.350752
     55          1           0        5.418672    2.906374   -4.447480
     56          1           0        4.969000    3.708649   -2.896534
     57          1           0        5.092508    0.222705    4.133525
     58          1           0        5.694664   -0.443611    5.599101
     59          1           0        4.929778   -1.510962    4.349775
     60          1           0        9.318122   -4.422129    5.224034
     61          1           0        8.653420   -4.176593    6.871411
     62          1           0        9.751173   -2.984415    6.201791
     63          1           0       11.513402   -4.577295    1.592055
     64          1           0       14.018073   -2.750566    1.174081
     65          1           0       12.603771   -4.964915    3.717699
     66          1           0       12.667597   -3.217959    4.015215
     67          1           0       13.960692   -4.006991    3.037940
     68          1           0       12.927052   -4.027320   -1.205809
     69          1           0       12.874678   -5.216893   -0.121749
     70          1           0       15.294424   -4.430160   -1.493439
     71          1           0       14.806460   -5.811716   -0.569436
     72          1           0       15.535684   -4.373064    0.235893
     73          1           0       13.712300    1.073185   -4.205123
     74          1           0       13.405426   -0.498614   -4.388343
     75          1           0       14.449485   -0.121288   -3.018919
     76          1           0        8.436000    2.133443   -4.370143
     77          1           0        6.513714    5.866464   -4.206533
     78          1           0        7.991024    6.279621   -4.981132
     79          1           0        8.015859    6.306045   -3.184515
     80         12           0       -9.795513   -0.756194   -0.260413
     81          6           0       -8.253185    1.957399    1.451228
     82          6           0       -6.664702   -1.856433   -1.160460
     83          6           0      -11.403711   -3.168124   -1.846343
     84          6           0      -12.994491    0.776547    0.319733
     85          7           0       -7.624111    0.020059    0.051516
     86          6           0       -7.313261    1.085813    0.876048
     87          6           0       -5.748419    1.146000    0.936989
     88          6           0       -5.211932   -0.090725    0.037165
     89          6           0       -6.567915   -0.661154   -0.390864
     90          6           0       -4.226487    0.269289   -1.094104
     91          6           0       -5.087090    1.270252    2.371561
     92          6           0       -4.216218    2.474239    2.584278
     93          1           0       -3.469636    3.170988    1.477501
     94          7           0       -9.089537   -2.442934   -1.294334
     95          6           0       -7.778650   -2.691921   -1.553902
     96          6           0       -7.736356   -4.007153   -2.139503
     97          6           0       -9.070683   -4.357291   -2.438831
     98          6           0       -9.978278   -3.301010   -1.883960
     99          6           0       -6.383396   -4.656801   -2.475538
    100          6           0       -9.536946   -5.503323   -3.284637
    101          8           0      -10.746200   -5.649976   -3.582034
    102          6           0       -8.540082   -6.456172   -3.832159
    103          7           0      -11.945563   -1.060665   -0.732367
    104          6           0      -12.313557   -2.149846   -1.311936
    105          6           0      -13.907875   -2.397701   -1.466498
    106          6           0      -14.394809   -1.110903   -0.782978
    107          6           0      -13.108457   -0.433394   -0.378428
    108          6           0      -14.275028   -2.532105   -2.989742
    109          6           0      -15.372182   -1.280377    0.432876
    110          6           0      -14.755981   -1.817609    1.746422
    111          7           0      -10.453200    1.003193    0.547674
    112          6           0      -11.780958    1.474363    0.676797
    113          6           0      -11.741664    2.718874    1.456781
    114          6           0      -10.382493    2.937736    1.786348
    115          6           0       -9.634913    1.838057    1.244551
    116          6           0      -12.980979    3.573166    1.859137
    117          6           0       -9.570027    3.801933    2.464285
    118          8           0       -9.788973    4.849607    3.037548
    119          6           0       -8.133982    3.216591    2.360225
    120          6           0       -7.259572    4.240718    1.837066
    121          8           0       -7.057165    4.449732    0.635601
    122          8           0       -6.869135    5.100464    2.870625
    123          6           0       -6.122930    6.300537    2.417756
    124          1           0       -5.773519   -2.162867   -1.712828
    125          1           0      -11.906034   -3.876758   -2.508256
    126          1           0      -13.939915    1.282112    0.526944
    127          1           0       -5.619081    2.140337    0.511554
    128          1           0       -4.627794   -0.756731    0.670682
    129          1           0       -3.302266   -0.301635   -0.996121
    130          1           0       -3.971645    1.322933   -1.206814
    131          1           0       -4.752134   -0.030599   -2.000674
    132          1           0       -4.510080    0.372734    2.595185
    133          1           0       -5.923133    1.375240    3.063060
    134          1           0       -3.323381    2.117672    3.099125
    135          1           0       -4.792202    3.204902    3.151043
    136          1           0       -5.555958   -4.176267   -1.952985
    137          1           0       -6.209815   -4.607555   -3.549735
    138          1           0       -6.490709   -5.689643   -2.145703
    139          1           0       -8.004703   -6.876306   -2.980693
    140          1           0       -7.801805   -5.946929   -4.452798
    141          1           0       -9.024268   -7.194765   -4.469753
    142          1           0      -14.228450   -3.278760   -0.910012
    143          1           0      -14.778826   -0.422417   -1.536067
    144          1           0      -13.557326   -1.939645   -3.557121
    145          1           0      -15.258997   -2.086853   -3.141073
    146          1           0      -14.296520   -3.531507   -3.425057
    147          1           0      -16.267772   -1.813081    0.114682
    148          1           0      -15.800588   -0.300892    0.643110
    149          1           0      -13.925392   -2.515993    1.649652
    150          1           0      -15.564456   -2.216494    2.360133
    151          1           0      -14.417369   -0.929229    2.279323
    152          1           0      -13.001906    3.825299    2.919419
    153          1           0      -13.929155    3.116938    1.576918
    154          1           0      -12.841796    4.590752    1.493238
    155          1           0       -7.908869    3.008409    3.405694
    156          1           0       -6.780126    6.976920    1.871817
    157          1           0       -5.303670    6.090202    1.731201
    158          1           0       -5.601187    6.684474    3.294553
 ---------------------------------------------------------------------

 SCF Done:  E(RwB97XD) =  -4070.58157553     A.U. after   19 cycles

 Excitation energies and oscillator strengths:

 Excited State   1:      Singlet-A      1.6342 eV  758.68 nm  f=0.3877  <S**2>=0.000
     309 -> 316       -0.17859
     311 -> 313        0.68607
     309 <- 316       -0.11666
 This state for optimization and/or second-order correction.
 Total Energy, E(TD-HF/TD-DFT) =  -4070.52151905
 Copying the excited state density for this state as the 1-particle RhoCI density.

 Excited State   2:      Singlet-A      1.7184 eV  721.50 nm  f=0.3698  <S**2>=0.000
     310 -> 315        0.19150
     312 -> 314        0.67996
     310 <- 315        0.11527

 Excited State   3:      Singlet-A      2.1593 eV  574.18 nm  f=0.1132  <S**2>=0.000
     310 -> 314        0.63889
     312 -> 315       -0.28237

 Excited State   4:      Singlet-A      2.1958 eV  564.64 nm  f=0.1029  <S**2>=0.000
     309 -> 313        0.63386
     311 -> 316        0.29391

 Excited State   5:      Singlet-A      3.5644 eV  347.84 nm  f=0.0000  <S**2>=0.000
     312 -> 313        0.70676

 The electronic state is 1-A.
 Alpha  occ. eigenvalues --  -46.96258 -46.96168 -19.30428 -19.29480 -19.25739
 Alpha  occ. eigenvalues --  -19.24881 -19.24209 -19.23886 -19.23347 -19.22516
 Alpha  occ. eigenvalues --  -14.47280 -14.47040 -14.46721 -14.46472 -14.44944
 Alpha  occ. eigenvalues --  -14.44394 -14.44254 -14.43732 -10.44027 -10.42438
 Alpha  occ. eigenvalues --  -10.40534 -10.39098 -10.38075 -10.37225 -10.36014
 Alpha  occ. eigenvalues --  -10.36003 -10.35832 -10.35809 -10.35603 -10.35404
 Alpha  occ. eigenvalues --  -10.35241 -10.35224 -10.35126 -10.35071 -10.34641
 Alpha  occ. eigenvalues --  -10.34564 -10.34545 -10.34163 -10.33812 -10.33711
 Alpha  occ. eigenvalues --  -10.33616 -10.33455 -10.32896 -10.32825 -10.32795
 Alpha  occ. eigenvalues --  -10.32732 -10.32667 -10.32661 -10.32471 -10.32455
 Alpha  occ. eigenvalues --  -10.32370 -10.32220 -10.32194 -10.32136 -10.32135
 Alpha  occ. eigenvalues --  -10.32123 -10.32108 -10.32085 -10.31979 -10.31973
 Alpha  occ. eigenvalues --  -10.31817 -10.31799 -10.31704 -10.31506 -10.31449
 Alpha  occ. eigenvalues --  -10.31204 -10.31167 -10.31160 -10.31059 -10.30836
 Alpha  occ. eigenvalues --  -10.30687 -10.30604 -10.30556 -10.30471 -10.30458
 Alpha  occ. eigenvalues --  -10.30336 -10.30268 -10.30224 -10.29915 -10.29811
 Alpha  occ. eigenvalues --  -10.29755 -10.29682 -10.29621 -10.29566 -10.28741
 Alpha  occ. eigenvalues --  -10.27846  -3.22142  -3.21973  -1.95673  -1.95571
 Alpha  occ. eigenvalues --   -1.95316  -1.95125  -1.95073  -1.94894  -1.18310
 Alpha  occ. eigenvalues --   -1.16486  -1.13088  -1.12674  -1.11422  -1.11004
 Alpha  occ. eigenvalues --   -1.10740  -1.08486  -1.08140  -1.07005  -1.05789
 Alpha  occ. eigenvalues --   -1.05088  -1.05079  -1.04495  -1.03742  -1.03689
 Alpha  occ. eigenvalues --   -0.94298  -0.94237  -0.91606  -0.91207  -0.90380
 Alpha  occ. eigenvalues --   -0.90284  -0.90182  -0.89706  -0.89246  -0.88914
 Alpha  occ. eigenvalues --   -0.88719  -0.88499  -0.87874  -0.87418  -0.86246
 Alpha  occ. eigenvalues --   -0.86106  -0.85337  -0.85238  -0.84727  -0.84466
 Alpha  occ. eigenvalues --   -0.84265  -0.84200  -0.83200  -0.82615  -0.82331
 Alpha  occ. eigenvalues --   -0.82045  -0.80340  -0.79853  -0.79478  -0.79411
 Alpha  occ. eigenvalues --   -0.78802  -0.78372  -0.78144  -0.77650  -0.77002
 Alpha  occ. eigenvalues --   -0.76961  -0.74762  -0.74508  -0.73555  -0.73438
 Alpha  occ. eigenvalues --   -0.72362  -0.71239  -0.71040  -0.70519  -0.69835
 Alpha  occ. eigenvalues --   -0.69519  -0.68958  -0.68592  -0.67951  -0.67257
 Alpha  occ. eigenvalues --   -0.66945  -0.66907  -0.66614  -0.66569  -0.66232
 Alpha  occ. eigenvalues --   -0.66204  -0.64881  -0.63411  -0.62279  -0.61810
 Alpha  occ. eigenvalues --   -0.61541  -0.61502  -0.61095  -0.60627  -0.60620
 Alpha  occ. eigenvalues --   -0.60117  -0.60085  -0.59894  -0.59561  -0.59532
 Alpha  occ. eigenvalues --   -0.58443  -0.58226  -0.58003  -0.57381  -0.57218
 Alpha  occ. eigenvalues --   -0.57050  -0.56928  -0.56771  -0.56025  -0.55518
 Alpha  occ. eigenvalues --   -0.55291  -0.55225  -0.54963  -0.54816  -0.54782
 Alpha  occ. eigenvalues --   -0.54608  -0.54521  -0.54513  -0.54154  -0.53989
 Alpha  occ. eigenvalues --   -0.53802  -0.53690  -0.53479  -0.53245  -0.53054
 Alpha  occ. eigenvalues --   -0.52803  -0.52730  -0.52456  -0.52276  -0.52114
 Alpha  occ. eigenvalues --   -0.51795  -0.51756  -0.51690  -0.51480  -0.51252
 Alpha  occ. eigenvalues --   -0.51198  -0.51144  -0.51141  -0.50956  -0.50816
 Alpha  occ. eigenvalues --   -0.50809  -0.50535  -0.50467  -0.50023  -0.49977
 Alpha  occ. eigenvalues --   -0.49898  -0.49891  -0.49451  -0.49324  -0.49254
 Alpha  occ. eigenvalues --   -0.49108  -0.49029  -0.48660  -0.48568  -0.48462
 Alpha  occ. eigenvalues --   -0.48454  -0.48189  -0.48103  -0.47994  -0.47740
 Alpha  occ. eigenvalues --   -0.47682  -0.47438  -0.47279  -0.46984  -0.46855
 Alpha  occ. eigenvalues --   -0.46843  -0.46526  -0.46508  -0.46142  -0.46134
 Alpha  occ. eigenvalues --   -0.45994  -0.45740  -0.45672  -0.45553  -0.45454
 Alpha  occ. eigenvalues --   -0.45411  -0.45182  -0.45154  -0.44835  -0.44709
 Alpha  occ. eigenvalues --   -0.44692  -0.44518  -0.44391  -0.44284  -0.44280
 Alpha  occ. eigenvalues --   -0.43813  -0.43772  -0.43557  -0.43486  -0.43387
 Alpha  occ. eigenvalues --   -0.43209  -0.43058  -0.43036  -0.42992  -0.42511
 Alpha  occ. eigenvalues --   -0.42471  -0.41996  -0.41810  -0.41720  -0.41026
 Alpha  occ. eigenvalues --   -0.40716  -0.40285  -0.39805  -0.39146  -0.38896
 Alpha  occ. eigenvalues --   -0.38763  -0.38663  -0.38448  -0.38341  -0.38072
 Alpha  occ. eigenvalues --   -0.37680  -0.37504  -0.36837  -0.36347  -0.35927
 Alpha  occ. eigenvalues --   -0.35644  -0.35579  -0.35323  -0.33697  -0.33561
 Alpha  occ. eigenvalues --   -0.33549  -0.33195  -0.32542  -0.32527  -0.32038
 Alpha  occ. eigenvalues --   -0.31951  -0.31669  -0.31398  -0.26364  -0.25750
 Alpha  occ. eigenvalues --   -0.23089  -0.23079
 Alpha virt. eigenvalues --   -0.07230  -0.06895   0.00118   0.00146   0.02190
 Alpha virt. eigenvalues --    0.02406   0.04153   0.04402   0.04421   0.05684
 Alpha virt. eigenvalues --    0.06644   0.06973   0.07198   0.08099   0.08303

 Mulliken charges:
               1
     1  Mg   0.961205
     2  C   -0.078438
     3  C   -0.075629
     4  C   -0.093978
     5  C   -0.090958
     6  N   -0.325488
     7  C   -0.039361
     8  C   -0.084183
     9  C   -0.134093
    10  C    0.034453
    11  C    0.015065
    12  C    0.052914
    13  C   -0.093932
    14  H    0.019000
    15  N   -0.466668
    16  C    0.174518
    17  C   -0.161889
    18  C   -0.102829
    19  C    0.203807
    20  C    0.095457
    21  C    0.075821
    22  O   -0.234679
    23  C   -0.028048
    24  N   -0.403816
    25  C    0.073681
    26  C   -0.123888
    27  C   -0.024151
    28  C    0.034418
    29  C    0.024339
    30  C   -0.029776
    31  C   -0.054260
    32  N   -0.416262
    33  C    0.139670
    34  C   -0.160625
    35  C   -0.085600
    36  C    0.221733
    37  C    0.066524
    38  C    0.109054
    39  O   -0.181413
    40  C   -0.079782
    41  C    0.276325
    42  O   -0.220784
    43  O   -0.387313
    44  C    0.130400
    45  H    0.010928
    46  H   -0.019770
    47  H   -0.007134
    48  H    0.027678
    49  H    0.036398
    50  H    0.043748
    51  H    0.052789
    52  H    0.042322
    53  H    0.036179
    54  H    0.036998
    55  H    0.063706
    56  H    0.050106
    57  H    0.010505
    58  H    0.057030
    59  H    0.065505
    60  H    0.070996
    61  H    0.057677
    62  H    0.068000
    63  H    0.055776
    64  H    0.043762
    65  H    0.039919
    66  H    0.046212
    67  H    0.045384
    68  H    0.031458
    69  H    0.018844
    70  H    0.040162
    71  H    0.034107
    72  H    0.032408
    73  H    0.050089
    74  H    0.043664
    75  H    0.043717
    76  H    0.072451
    77  H    0.046181
    78  H    0.054470
    79  H    0.067196
    80  Mg   0.949316
    81  C    0.012603
    82  C   -0.090472
    83  C   -0.048055
    84  C   -0.087753
    85  N   -0.314531
    86  C   -0.013150
    87  C   -0.056249
    88  C   -0.105063
    89  C    0.077771
    90  C    0.018392
    91  C    0.000095
    92  C   -0.139173
    93  H    0.030559
    94  N   -0.486344
    95  C    0.140162
    96  C   -0.180397
    97  C   -0.072191
    98  C    0.161202
    99  C    0.073159
   100  C    0.036486
   101  O   -0.261844
   102  C    0.006458
   103  N   -0.272003
   104  C    0.015712
   105  C   -0.110019
   106  C    0.029195
   107  C   -0.040037
   108  C   -0.003665
   109  C   -0.032824
   110  C   -0.036133
   111  N   -0.476743
   112  C    0.148495
   113  C   -0.176003
   114  C    0.006731
   115  C    0.138774
   116  C    0.087132
   117  C    0.031628
   118  O   -0.201510
   119  C   -0.063179
   120  C    0.266926
   121  O   -0.263338
   122  O   -0.378985
   123  C    0.150156
   124  H    0.007899
   125  H    0.029095
   126  H   -0.009053
   127  H    0.057176
   128  H    0.045000
   129  H    0.034894
   130  H    0.051422
   131  H    0.033741
   132  H    0.031801
   133  H    0.036553
   134  H    0.048127
   135  H    0.062429
   136  H    0.047855
   137  H    0.064224
   138  H    0.046340
   139  H    0.050981
   140  H    0.050451
   141  H    0.058580
   142  H    0.052437
   143  H    0.036495
   144  H    0.045576
   145  H    0.037096
   146  H    0.064110
   147  H    0.030936
   148  H    0.025089
   149  H    0.049806
   150  H    0.041260
   151  H    0.038645
   152  H    0.043761
   153  H    0.031588
   154  H    0.051126
   155  H    0.073547
   156  H    0.064761
   157  H    0.041350
   158  H    0.053613
 Sum of Mulliken charges =  -0.00000

 Dipole moment (field-independent basis, Debye):
    X=              2.1932    Y=             -6.4191    Z=              1.8291  Tot=              7.0257
 Quadrupole moment (field-independent basis, Debye-Ang):
   XX=           -477.0283   YY=           -511.8959   ZZ=           -541.6924
   XY=            -19.3256   XZ=             42.8880   YZ=             -0.0560

 Normal termination of Gaussian 16 at Sun Sep 19 03:07:44 2021.
