 Gaussian 16, Revision A.03,
 Gaussian 16:  ES64L-G16RevA.03 25-Dec-2016

 --------------------------------
 #p wB97XD/Def2SVP td=(nstates=5)
 --------------------------------

 --------------------------------
 TDDFT excited states in gaussian
 --------------------------------
 Symbolic Z-matrix:
 Charge =  0 Multiplicity = 1

                         Standard orientation:
 ---------------------------------------------------------------------
 Center     Atomic      Atomic             Coordinates (Angstroms)
 Number     Number       Type             X           Y           Z
 ---------------------------------------------------------------------
      1         12           0      -29.921314    0.245889   -0.508669
      2          6           0      -26.375373    0.520207    0.276187
      3          6           0      -29.086988   -2.246882   -2.717643
      4          6           0      -33.000350   -1.005564   -0.140139
      5          6           0      -30.545257    2.823380    1.615849
      6          7           0      -27.930192   -0.873706   -0.987158
      7          6           0      -26.589498   -0.522399   -0.590861
      8          6           0      -25.586778   -1.329259   -1.420505
      9          6           0      -26.430704   -1.905276   -2.595596
     10          6           0      -27.936913   -1.679399   -2.132770
     11          6           0      -26.161679   -1.177118   -3.996704
     12          6           0      -24.700410   -2.290006   -0.683156
     13          6           0      -25.123400   -2.697763    0.747893
     14          1           0      -24.417004   -3.713658    1.664090
     15          7           0      -30.966287   -1.343833   -1.437217
     16          6           0      -30.426295   -2.266413   -2.305799
     17          6           0      -31.532864   -3.147299   -2.793919
     18          6           0      -32.600859   -2.840467   -1.954628
     19          6           0      -32.241491   -1.730982   -1.074586
     20          6           0      -31.291746   -4.160672   -3.856041
     21          6           0      -33.965011   -3.589974   -1.956243
     22          8           0      -34.078130   -4.563297   -2.680072
     23          6           0      -35.095713   -3.295848   -1.027032
     24          7           0      -31.463901    0.788296    0.732797
     25          6           0      -32.698481    0.163333    0.560656
     26          6           0      -33.789607    0.876268    1.359439
     27          6           0      -33.123798    2.261499    1.688223
     28          6           0      -31.671148    1.977882    1.299250
     29          6           0      -35.188381    1.046532    0.712806
     30          6           0      -33.297949    2.778451    3.152292
     31          6           0      -34.309980    3.998411    3.346743
     32          7           0      -28.737800    1.517590    0.661314
     33          6           0      -29.156654    2.596738    1.425886
     34          6           0      -28.000155    3.331055    1.876946
     35          6           0      -26.942508    2.490561    1.503956
     36          6           0      -27.467439    1.415514    0.745009
     37          6           0      -28.079075    4.610952    2.727036
     38          6           0      -25.520687    2.330491    1.500780
     39          8           0      -24.705564    3.139690    1.987795
     40          6           0      -25.038809    1.119946    0.584522
     41          6           0      -24.132544    0.342197    1.452808
     42          8           0      -24.357261   -0.031371    2.608860
     43          8           0      -23.061074    0.010312    0.691704
     44          6           0      -21.909426   -0.622705    1.407721
     45          1           0      -28.821421   -3.050869   -3.406547
     46          1           0      -34.006824   -1.418065   -0.040989
     47          1           0      -30.774826    3.721609    2.192215
     48          1           0      -25.001204   -0.485393   -1.785406
     49          1           0      -26.371038   -2.991226   -2.670203
     50          1           0      -25.683455   -1.954679   -4.591036
     51          1           0      -25.550516   -0.289343   -3.832348
     52          1           0      -27.148745   -0.952253   -4.402292
     53          1           0      -23.695921   -1.870129   -0.732903
     54          1           0      -24.723726   -3.145393   -1.359168
     55          1           0      -26.154176   -3.037647    0.642646
     56          1           0      -25.119064   -1.819002    1.393076
     57          1           0      -31.370153   -5.130297   -3.365196
     58          1           0      -30.300214   -3.986004   -4.272629
     59          1           0      -32.008041   -4.013104   -4.665037
     60          1           0      -34.946059   -3.470441    0.037756
     61          1           0      -35.955137   -3.944889   -1.192492
     62          1           0      -35.329931   -2.272708   -1.320685
     63          1           0      -33.818877    0.177238    2.196065
     64          1           0      -33.544858    2.946094    0.951587
     65          1           0      -35.920370    0.316911    1.060620
     66          1           0      -35.115329    0.879001   -0.361244
     67          1           0      -35.502225    2.077050    0.882599
     68          1           0      -32.365860    3.064602    3.640360
     69          1           0      -33.625510    1.896228    3.702423
     70          1           0      -34.863346    3.689745    4.233300
     71          1           0      -34.987567    4.172574    2.510758
     72          1           0      -33.702631    4.900141    3.416338
     73          1           0      -27.248866    5.306172    2.600498
     74          1           0      -28.034590    4.189046    3.730501
     75          1           0      -28.930856    5.216245    2.417666
     76          1           0      -24.548180    1.516864   -0.305424
     77          1           0      -21.119808   -0.846841    0.689690
     78          1           0      -22.204244   -1.561882    1.876219
     79          1           0      -21.633434    0.154431    2.119067
     80         12           0       29.731127   -0.392259    0.323434
     81          6           0       27.004480    1.804744   -0.637065
     82          6           0       31.259380    0.664600   -2.489463
     83          6           0       32.091846   -2.376338    1.156033
     84          6           0       27.745167   -1.551990    3.015619
     85          7           0       29.141140    1.169319   -1.413500
     86          6           0       28.062944    1.966204   -1.510038
     87          6           0       28.237760    2.960530   -2.673795
     88          6           0       29.401577    2.176130   -3.441114
     89          6           0       30.004007    1.341036   -2.390753
     90          6           0       29.088851    1.568068   -4.798108
     91          6           0       28.598623    4.339797   -2.095595
     92          6           0       28.193077    5.514344   -3.034001
     93          1           0       27.235720    5.331029   -4.300799
     94          7           0       31.515303   -0.796288   -0.525187
     95          6           0       31.965984   -0.335786   -1.747465
     96          6           0       33.249900   -0.973901   -2.021690
     97          6           0       33.546179   -1.814114   -0.920113
     98          6           0       32.347126   -1.679759   -0.045175
     99          6           0       34.039593   -0.752534   -3.234262
    100          6           0       34.863555   -2.700765   -0.612824
    101          8           0       35.033616   -3.224041    0.454258
    102          6           0       36.088789   -2.670027   -1.544009
    103          7           0       29.759797   -1.961658    1.725060
    104          6           0       30.940833   -2.526566    1.962805
    105          6           0       30.967873   -3.426369    3.168996
    106          6           0       29.754924   -2.843113    3.934273
    107          6           0       28.967668   -2.196586    2.742890
    108          6           0       30.767414   -4.978148    2.837456
    109          6           0       30.090533   -1.847673    5.122860
    110          6           0       31.422378   -2.003232    5.913121
    111          7           0       27.768349   -0.082833    1.005088
    112          6           0       27.111529   -0.536678    2.101156
    113          6           0       25.897554    0.119528    2.287621
    114          6           0       25.818541    0.976071    1.226885
    115          6           0       26.963463    0.866725    0.462651
    116          6           0       24.947499   -0.066071    3.467582
    117          6           0       24.935679    2.008080    0.662751
    118          8           0       23.781086    2.334877    0.893312
    119          6           0       25.763028    2.627890   -0.546564
    120          6           0       24.904448    2.606369   -1.717869
    121          8           0       24.645030    1.632165   -2.431413
    122          8           0       24.233295    3.776904   -1.732860
    123          6           0       23.079451    3.745553   -2.613624
    124          1           0       31.662521    0.869779   -3.483438
    125          1           0       32.900868   -3.071545    1.387359
    126          1           0       27.211862   -1.872064    3.912963
    127          1           0       27.367742    2.966865   -3.330520
    128          1           0       30.146998    2.930511   -3.689095
    129          1           0       29.624648    2.067558   -5.604717
    130          1           0       28.019021    1.624188   -4.998256
    131          1           0       29.293337    0.499452   -4.864425
    132          1           0       29.686447    4.395485   -2.049365
    133          1           0       28.238548    4.504201   -1.080175
    134          1           0       29.059118    6.098602   -3.346650
    135          1           0       27.802199    6.239730   -2.320604
    136          1           0       33.808203    0.206021   -3.698249
    137          1           0       33.784178   -1.582623   -3.893133
    138          1           0       35.116972   -0.741986   -3.067751
    139          1           0       36.590621   -1.703112   -1.579857
    140          1           0       35.723725   -3.079762   -2.486042
    141          1           0       36.808909   -3.426798   -1.231744
    142          1           0       31.960605   -3.245606    3.580503
    143          1           0       29.116488   -3.610297    4.371691
    144          1           0       31.552516   -5.431821    3.441917
    145          1           0       30.923249   -5.239204    1.790127
    146          1           0       29.817723   -5.410736    3.149869
    147          1           0       29.252964   -1.844480    5.818958
    148          1           0       30.222835   -0.917783    4.569488
    149          1           0       32.225055   -1.460039    5.414959
    150          1           0       31.539542   -3.084519    5.993195
    151          1           0       31.334294   -1.655007    6.941656
    152          1           0       25.596379   -0.347360    4.297337
    153          1           0       24.253870   -0.895837    3.334853
    154          1           0       24.435218    0.879489    3.644395
    155          1           0       26.006242    3.651299   -0.258179
    156          1           0       22.513825    4.676855   -2.619000
    157          1           0       22.439791    2.865137   -2.549793
    158          1           0       23.399085    3.692094   -3.654905
 ---------------------------------------------------------------------

 SCF Done:  E(RwB97XD) =  -4070.55197572     A.U. after   19 cycles

 Excitation energies and oscillator strengths:

 Excited State   1:      Singlet-A      1.6104 eV  769.88 nm  f=0.3584  <S**2>=0.000
     309 -> 315        0.16152
     312 -> 313        0.68856
     309 <- 315        0.11000
 This state for optimization and/or second-order correction.
 Total Energy, E(TD-HF/TD-DFT) =  -4070.49279323
 Copying the excited state density for this state as the 1-particle RhoCI density.

 Excited State   2:      Singlet-A      1.7990 eV  689.20 nm  f=0.3722  <S**2>=0.000
     310 -> 316       -0.19145
     311 -> 314        0.67947
     310 <- 316       -0.11149

 Excited State   3:      Singlet-A      2.1925 eV  565.49 nm  f=0.1525  <S**2>=0.000
     310 -> 314        0.65251
     311 -> 316        0.25642

 Excited State   4:      Singlet-A      2.2276 eV  556.58 nm  f=0.0764  <S**2>=0.000
     309 -> 313        0.61814
     312 -> 315       -0.32516

 Excited State   5:      Singlet-A      3.3589 eV  369.12 nm  f=0.1111  <S**2>=0.000
     304 -> 313       -0.46170
     308 -> 313        0.33591
     308 -> 318       -0.13919
     308 -> 320       -0.15421
     309 -> 313       -0.10219
     312 -> 315       -0.29986

 The electronic state is 1-A.
 Alpha  occ. eigenvalues --  -46.95673 -46.95631 -19.30539 -19.30080 -19.25575
 Alpha  occ. eigenvalues --  -19.24325 -19.24124 -19.23838 -19.23676 -19.22072
 Alpha  occ. eigenvalues --  -14.47047 -14.46176 -14.46058 -14.45643 -14.44544
 Alpha  occ. eigenvalues --  -14.44345 -14.43249 -14.43182 -10.42938 -10.42008
 Alpha  occ. eigenvalues --  -10.41009 -10.39506 -10.38778 -10.37503 -10.36041
 Alpha  occ. eigenvalues --  -10.35837 -10.35726 -10.35403 -10.34990 -10.34944
 Alpha  occ. eigenvalues --  -10.34930 -10.34838 -10.34829 -10.34679 -10.34506
 Alpha  occ. eigenvalues --  -10.34235 -10.33637 -10.33548 -10.33543 -10.33185
 Alpha  occ. eigenvalues --  -10.33044 -10.32932 -10.32783 -10.32693 -10.32538
 Alpha  occ. eigenvalues --  -10.32431 -10.32377 -10.32337 -10.32029 -10.31965
 Alpha  occ. eigenvalues --  -10.31944 -10.31858 -10.31834 -10.31661 -10.31649
 Alpha  occ. eigenvalues --  -10.31643 -10.31615 -10.31529 -10.31518 -10.31431
 Alpha  occ. eigenvalues --  -10.31416 -10.31372 -10.31288 -10.31261 -10.31257
 Alpha  occ. eigenvalues --  -10.31204 -10.31109 -10.31092 -10.31033 -10.30805
 Alpha  occ. eigenvalues --  -10.30773 -10.30686 -10.30495 -10.30217 -10.30201
 Alpha  occ. eigenvalues --  -10.30113 -10.29931 -10.29866 -10.29854 -10.29847
 Alpha  occ. eigenvalues --  -10.29439 -10.29406 -10.29345 -10.29020 -10.27923
 Alpha  occ. eigenvalues --  -10.27663  -3.21627  -3.21572  -1.95216  -1.95130
 Alpha  occ. eigenvalues --   -1.94767  -1.94717  -1.94577  -1.94518  -1.18627
 Alpha  occ. eigenvalues --   -1.18204  -1.14869  -1.12935  -1.11622  -1.09613
 Alpha  occ. eigenvalues --   -1.08831  -1.08778  -1.07781  -1.07207  -1.06808
 Alpha  occ. eigenvalues --   -1.06708  -1.06011  -1.05399  -1.04906  -1.02331
 Alpha  occ. eigenvalues --   -0.94271  -0.93858  -0.91241  -0.91156  -0.90863
 Alpha  occ. eigenvalues --   -0.90591  -0.90479  -0.89935  -0.89484  -0.88807
 Alpha  occ. eigenvalues --   -0.88781  -0.88625  -0.87978  -0.87464  -0.86276
 Alpha  occ. eigenvalues --   -0.86272  -0.85577  -0.84980  -0.84647  -0.84241
 Alpha  occ. eigenvalues --   -0.84238  -0.83869  -0.82893  -0.82643  -0.82093
 Alpha  occ. eigenvalues --   -0.82045  -0.80608  -0.80005  -0.79638  -0.78712
 Alpha  occ. eigenvalues --   -0.78510  -0.78398  -0.77900  -0.77619  -0.77178
 Alpha  occ. eigenvalues --   -0.77169  -0.74980  -0.74692  -0.73666  -0.73612
 Alpha  occ. eigenvalues --   -0.71575  -0.71542  -0.70945  -0.70692  -0.69552
 Alpha  occ. eigenvalues --   -0.69543  -0.68900  -0.68797  -0.68122  -0.67375
 Alpha  occ. eigenvalues --   -0.67354  -0.67025  -0.66661  -0.66591  -0.65641
 Alpha  occ. eigenvalues --   -0.65494  -0.64088  -0.63755  -0.62855  -0.61646
 Alpha  occ. eigenvalues --   -0.61456  -0.61206  -0.61096  -0.61008  -0.60351
 Alpha  occ. eigenvalues --   -0.59912  -0.59833  -0.59505  -0.59452  -0.59169
 Alpha  occ. eigenvalues --   -0.58742  -0.58567  -0.58137  -0.57378  -0.57125
 Alpha  occ. eigenvalues --   -0.57078  -0.56508  -0.56503  -0.56159  -0.55964
 Alpha  occ. eigenvalues --   -0.55747  -0.55608  -0.55526  -0.55422  -0.54930
 Alpha  occ. eigenvalues --   -0.54835  -0.54726  -0.54499  -0.54225  -0.54161
 Alpha  occ. eigenvalues --   -0.53715  -0.53654  -0.53357  -0.53191  -0.53125
 Alpha  occ. eigenvalues --   -0.53045  -0.52966  -0.52616  -0.52557  -0.52388
 Alpha  occ. eigenvalues --   -0.51914  -0.51876  -0.51626  -0.51526  -0.51513
 Alpha  occ. eigenvalues --   -0.51042  -0.50862  -0.50819  -0.50694  -0.50677
 Alpha  occ. eigenvalues --   -0.50502  -0.50255  -0.50239  -0.50050  -0.49776
 Alpha  occ. eigenvalues --   -0.49678  -0.49542  -0.49400  -0.49295  -0.49100
 Alpha  occ. eigenvalues --   -0.48912  -0.48837  -0.48764  -0.48646  -0.48457
 Alpha  occ. eigenvalues --   -0.48139  -0.48126  -0.47657  -0.47642  -0.47394
 Alpha  occ. eigenvalues --   -0.47331  -0.47095  -0.46869  -0.46794  -0.46533
 Alpha  occ. eigenvalues --   -0.46421  -0.46310  -0.46203  -0.45971  -0.45913
 Alpha  occ. eigenvalues --   -0.45831  -0.45823  -0.45726  -0.45381  -0.45290
 Alpha  occ. eigenvalues --   -0.45236  -0.45163  -0.44877  -0.44850  -0.44632
 Alpha  occ. eigenvalues --   -0.44567  -0.44468  -0.44357  -0.44214  -0.44197
 Alpha  occ. eigenvalues --   -0.44041  -0.43966  -0.43888  -0.43658  -0.43326
 Alpha  occ. eigenvalues --   -0.43201  -0.42939  -0.42760  -0.42269  -0.41804
 Alpha  occ. eigenvalues --   -0.41610  -0.41226  -0.41208  -0.40976  -0.40579
 Alpha  occ. eigenvalues --   -0.40425  -0.40145  -0.39987  -0.39392  -0.39336
 Alpha  occ. eigenvalues --   -0.39217  -0.38637  -0.38542  -0.38265  -0.37886
 Alpha  occ. eigenvalues --   -0.37775  -0.37625  -0.36292  -0.36127  -0.35794
 Alpha  occ. eigenvalues --   -0.35644  -0.34902  -0.34671  -0.33943  -0.33726
 Alpha  occ. eigenvalues --   -0.33726  -0.33149  -0.32817  -0.32302  -0.32291
 Alpha  occ. eigenvalues --   -0.31571  -0.31524  -0.31128  -0.26378  -0.25287
 Alpha  occ. eigenvalues --   -0.23195  -0.22559
 Alpha virt. eigenvalues --   -0.06901  -0.06573   0.00149   0.00854   0.02633
 Alpha virt. eigenvalues --    0.03166   0.04491   0.04659   0.04782   0.05587
 Alpha virt. eigenvalues --    0.06778   0.07103   0.07793   0.07930   0.08659

 Mulliken charges:
               1
     1  Mg   0.954360
     2  C   -0.033063
     3  C   -0.083023
     4  C   -0.079697
     5  C   -0.082946
     6  N   -0.368469
     7  C   -0.053514
     8  C   -0.004943
     9  C   -0.142282
    10  C    0.044598
    11  C    0.037048
    12  C    0.030548
    13  C   -0.102106
    14  H    0.037289
    15  N   -0.471026
    16  C    0.144979
    17  C   -0.159819
    18  C   -0.079562
    19  C    0.169678
    20  C    0.104722
    21  C    0.036106
    22  O   -0.227576
    23  C    0.002014
    24  N   -0.386290
    25  C    0.091607
    26  C   -0.126904
    27  C   -0.015434
    28  C    0.025557
    29  C    0.031660
    30  C   -0.022274
    31  C   -0.061817
    32  N   -0.378362
    33  C    0.092462
    34  C   -0.180523
    35  C   -0.010802
    36  C    0.119064
    37  C    0.073286
    38  C    0.083819
    39  O   -0.250519
    40  C   -0.041310
    41  C    0.265238
    42  O   -0.260778
    43  O   -0.368598
    44  C    0.138623
    45  H    0.004108
    46  H   -0.041791
    47  H   -0.008998
    48  H    0.025760
    49  H    0.039996
    50  H    0.048696
    51  H    0.050494
    52  H    0.040808
    53  H    0.031558
    54  H    0.017654
    55  H    0.047082
    56  H    0.072024
    57  H    0.073561
    58  H    0.022212
    59  H    0.060950
    60  H    0.076679
    61  H    0.048866
    62  H    0.056599
    63  H    0.052203
    64  H    0.031495
    65  H    0.041488
    66  H    0.036516
    67  H    0.042386
    68  H    0.044475
    69  H    0.024541
    70  H    0.051155
    71  H    0.034938
    72  H    0.047439
    73  H    0.051632
    74  H    0.071754
    75  H    0.038731
    76  H    0.074342
    77  H    0.059735
    78  H    0.067144
    79  H    0.072743
    80  Mg   0.963058
    81  C   -0.002389
    82  C   -0.069661
    83  C   -0.087032
    84  C   -0.078724
    85  N   -0.252341
    86  C   -0.062697
    87  C   -0.062003
    88  C   -0.088871
    89  C    0.000103
    90  C    0.039648
    91  C    0.010088
    92  C   -0.092260
    93  H    0.048517
    94  N   -0.472739
    95  C    0.161628
    96  C   -0.161893
    97  C   -0.088166
    98  C    0.121991
    99  C    0.059588
   100  C    0.076651
   101  O   -0.197399
   102  C   -0.024331
   103  N   -0.321504
   104  C    0.065003
   105  C   -0.102299
   106  C   -0.113846
   107  C    0.058412
   108  C    0.030229
   109  C   -0.010567
   110  C   -0.052943
   111  N   -0.409891
   112  C    0.090417
   113  C   -0.219077
   114  C   -0.051403
   115  C    0.154573
   116  C    0.095837
   117  C    0.138582
   118  O   -0.197764
   119  C   -0.092948
   120  C    0.252569
   121  O   -0.272134
   122  O   -0.331223
   123  C    0.153344
   124  H   -0.010553
   125  H    0.011935
   126  H    0.003385
   127  H    0.040485
   128  H    0.017727
   129  H    0.039835
   130  H    0.042830
   131  H    0.036619
   132  H    0.031793
   133  H    0.048011
   134  H    0.038511
   135  H    0.037342
   136  H    0.044131
   137  H    0.065912
   138  H    0.040879
   139  H    0.086436
   140  H    0.045251
   141  H    0.050825
   142  H    0.043742
   143  H    0.017539
   144  H    0.041940
   145  H    0.045901
   146  H    0.042529
   147  H    0.037409
   148  H    0.027787
   149  H    0.050441
   150  H    0.034816
   151  H    0.039889
   152  H    0.025445
   153  H    0.053066
   154  H    0.055823
   155  H    0.073307
   156  H    0.049843
   157  H    0.060890
   158  H    0.024143
 Sum of Mulliken charges =  -0.00000

 Dipole moment (field-independent basis, Debye):
    X=              2.4655    Y=              1.6025    Z=             -4.8903  Tot=              5.7063
 Quadrupole moment (field-independent basis, Debye-Ang):
   XX=             45.4487   YY=           -510.7502   ZZ=           -490.1696
   XY=            -11.3889   XZ=            -12.8432   YZ=            -17.9100

 Normal termination of Gaussian 16 at Sat Sep 18 15:54:29 2021.
