 Gaussian 16, Revision A.03,
 Gaussian 16:  ES64L-G16RevA.03 25-Dec-2016

 --------------------------------
 #p wB97XD/Def2SVP td=(nstates=5)
 --------------------------------

 --------------------------------
 TDDFT excited states in gaussian
 --------------------------------
 Symbolic Z-matrix:
 Charge =  0 Multiplicity = 1

                         Standard orientation:
 ---------------------------------------------------------------------
 Center     Atomic      Atomic             Coordinates (Angstroms)
 Number     Number       Type             X           Y           Z
 ---------------------------------------------------------------------
      1         12           0      -20.771927    0.398279   -0.130784
      2          6           0      -18.253667   -1.872825    0.447418
      3          6           0      -23.180930   -1.975137    0.408670
      4          6           0      -23.314866    2.774084   -0.531314
      5          6           0      -18.518234    3.000052    0.148232
      6          7           0      -20.638060   -1.643681    0.585990
      7          6           0      -19.516319   -2.477150    0.596729
      8          6           0      -19.881131   -3.901187    1.023703
      9          6           0      -21.414191   -3.846780    0.802833
     10          6           0      -21.823228   -2.365854    0.666184
     11          6           0      -21.896246   -4.775662   -0.332899
     12          6           0      -19.467789   -4.198430    2.478748
     13          6           0      -18.834279   -5.604388    2.761042
     14          1           0      -19.087520   -6.177355    4.100632
     15          7           0      -22.893680    0.370765   -0.120372
     16          6           0      -23.695345   -0.708742    0.027342
     17          6           0      -25.063808   -0.437144   -0.296624
     18          6           0      -25.119792    0.904728   -0.707791
     19          6           0      -23.707355    1.425597   -0.487229
     20          6           0      -26.168676   -1.494766   -0.338212
     21          6           0      -26.385208    1.692054   -1.206879
     22          8           0      -27.500921    1.112581   -1.173736
     23          6           0      -26.326845    3.152209   -1.831514
     24          7           0      -20.935814    2.598142    0.115248
     25          6           0      -22.036637    3.302337   -0.243928
     26          6           0      -21.773301    4.781044   -0.368927
     27          6           0      -20.255397    4.889728   -0.108286
     28          6           0      -19.853531    3.418445    0.022922
     29          6           0      -22.267176    5.422118   -1.708163
     30          6           0      -19.891066    5.852664    1.120000
     31          6           0      -19.318401    7.216175    0.715991
     32          7           0      -18.784678    0.574686    0.166551
     33          6           0      -17.939036    1.703836    0.233420
     34          6           0      -16.538498    1.261967    0.205392
     35          6           0      -16.644330   -0.121902    0.212411
     36          6           0      -18.006226   -0.449906    0.315067
     37          6           0      -15.281893    2.056688    0.204117
     38          6           0      -15.853684   -1.360947    0.224094
     39          8           0      -14.651944   -1.577514   -0.002993
     40          6           0      -16.875707   -2.562639    0.333175
     41          6           0      -16.786557   -3.479000   -0.879772
     42          8           0      -16.729852   -3.152198   -2.069465
     43          8           0      -16.714120   -4.724983   -0.331351
     44          6           0      -16.442309   -5.821510   -1.245619
     45          1           0      -23.958337   -2.724181    0.572507
     46          1           0      -24.001426    3.596538   -0.742903
     47          1           0      -17.752883    3.774056    0.233489
     48          1           0      -19.367351   -4.617630    0.381874
     49          1           0      -21.813813   -4.240758    1.737226
     50          1           0      -21.270950   -5.612292   -0.644522
     51          1           0      -21.955365   -4.143878   -1.219030
     52          1           0      -22.870268   -5.215535   -0.119952
     53          1           0      -20.272012   -4.020537    3.192149
     54          1           0      -18.796176   -3.383371    2.749481
     55          1           0      -17.755899   -5.541285    2.615645
     56          1           0      -19.270271   -6.323704    2.066384
     57          1           0      -26.576456   -1.450549   -1.347840
     58          1           0      -26.822491   -1.377203    0.526053
     59          1           0      -25.635916   -2.443159   -0.269377
     60          1           0      -26.348529    3.840958   -0.987784
     61          1           0      -27.234070    3.263197   -2.424962
     62          1           0      -25.505382    3.143613   -2.548423
     63          1           0      -22.320041    5.286558    0.427187
     64          1           0      -19.635601    5.166161   -0.960925
     65          1           0      -21.511522    6.076229   -2.142295
     66          1           0      -23.177693    6.007663   -1.582204
     67          1           0      -22.567274    4.628830   -2.391561
     68          1           0      -19.117726    5.432909    1.763182
     69          1           0      -20.754480    5.963161    1.775963
     70          1           0      -19.712791    7.989704    1.375174
     71          1           0      -19.602148    7.444241   -0.311194
     72          1           0      -18.230444    7.267876    0.753931
     73          1           0      -15.561144    3.106753    0.117388
     74          1           0      -14.564219    1.616726   -0.488611
     75          1           0      -14.882124    1.981731    1.215956
     76          1           0      -16.745168   -3.137441    1.250438
     77          1           0      -17.023094   -5.782601   -2.168057
     78          1           0      -16.553352   -6.832757   -0.854324
     79          1           0      -15.391162   -5.805400   -1.534735
     80         12           0       20.467679    0.583233   -0.398020
     81          6           0       19.537314   -2.603936    0.339665
     82          6           0       17.260619    1.669805    0.623066
     83          6           0       21.713136    3.667083   -0.093230
     84          6           0       23.861454   -0.546981   -0.895541
     85          7           0       18.667428   -0.384868    0.345919
     86          6           0       18.458260   -1.635693    0.591697
     87          6           0       16.949340   -1.970952    0.867190
     88          6           0       16.193770   -0.603233    0.660718
     89          6           0       17.430507    0.344798    0.490487
     90          6           0       15.081479   -0.592386   -0.388819
     91          6           0       16.730651   -2.692254    2.326234
     92          6           0       17.778008   -2.483114    3.407929
     93          1           0       17.440445   -2.738792    4.876789
     94          7           0       19.594076    2.408783    0.195697
     95          6           0       18.281095    2.672039    0.504188
     96          6           0       18.138153    4.021764    0.840642
     97          6           0       19.432518    4.652820    0.686253
     98          6           0       20.348313    3.555291    0.277599
     99          6           0       16.767198    4.618447    1.101147
    100          6           0       19.701358    6.147527    0.938040
    101          8           0       18.738400    6.859531    1.301577
    102          6           0       20.967718    6.805891    0.795441
    103          7           0       22.590894    1.449602   -0.328911
    104          6           0       22.706916    2.746010   -0.384723
    105          6           0       24.155783    3.214112   -0.701645
    106          6           0       24.843837    1.867177   -1.013616
    107          6           0       23.720915    0.781334   -0.762147
    108          6           0       24.263835    4.159252   -1.843462
    109          6           0       26.171449    1.632610   -0.149969
    110          6           0       27.538482    1.662793   -0.949603
    111          7           0       21.533577   -1.181020   -0.429953
    112          6           0       22.868564   -1.527935   -0.672552
    113          6           0       22.992949   -3.017578   -0.610343
    114          6           0       21.724698   -3.431167   -0.178617
    115          6           0       20.875174   -2.292815   -0.046886
    116          6           0       24.152919   -3.852619   -0.857915
    117          6           0       21.046486   -4.583879    0.202886
    118          8           0       21.352195   -5.784546    0.247342
    119          6           0       19.582813   -4.128432    0.465027
    120          6           0       18.651244   -4.948015   -0.459281
    121          8           0       17.681884   -5.612923   -0.135577
    122          8           0       19.023943   -4.860919   -1.783218
    123          6           0       18.242198   -5.626427   -2.761543
    124          1           0       16.264784    1.909137    1.001446
    125          1           0       22.143697    4.667645   -0.167653
    126          1           0       24.848846   -0.886085   -1.215388
    127          1           0       16.616529   -2.579120    0.025655
    128          1           0       15.738689   -0.241787    1.583391
    129          1           0       15.362622    0.062188   -1.213569
    130          1           0       14.141333   -0.210201    0.010557
    131          1           0       14.792354   -1.567078   -0.781965
    132          1           0       16.601590   -3.732968    2.028047
    133          1           0       15.846462   -2.369790    2.876498
    134          1           0       18.055356   -1.437398    3.277631
    135          1           0       18.636214   -3.075231    3.089646
    136          1           0       16.423202    5.467229    0.509529
    137          1           0       16.681686    4.838907    2.165447
    138          1           0       16.012025    3.849474    0.939522
    139          1           0       21.429968    6.812454   -0.191508
    140          1           0       21.736067    6.274019    1.355659
    141          1           0       20.990695    7.807987    1.222531
    142          1           0       24.713254    3.746455    0.068917
    143          1           0       25.061676    1.730224   -2.072877
    144          1           0       24.444047    5.198036   -1.567223
    145          1           0       23.300200    4.271691   -2.341605
    146          1           0       25.044738    3.832065   -2.529736
    147          1           0       26.132171    0.621129    0.256610
    148          1           0       26.348155    2.384652    0.617806
    149          1           0       28.262232    2.274446   -0.412393
    150          1           0       27.368198    2.203906   -1.880444
    151          1           0       27.886101    0.629553   -0.945219
    152          1           0       24.723371   -3.304217   -1.607906
    153          1           0       23.851777   -4.818515   -1.265033
    154          1           0       24.615496   -4.025624    0.113330
    155          1           0       19.175878   -4.508860    1.401643
    156          1           0       18.871705   -5.812493   -3.631923
    157          1           0       17.352207   -5.162171   -3.186064
    158          1           0       17.824455   -6.551934   -2.364184
 ---------------------------------------------------------------------

 SCF Done:  E(RwB97XD) =  -4070.59453163     A.U. after   19 cycles

 Excitation energies and oscillator strengths:

 Excited State   1:      Singlet-A      1.6548 eV  749.25 nm  f=0.4360  <S**2>=0.000
     309 -> 316       -0.16619
     311 -> 313        0.68620
     309 <- 316       -0.11144
 This state for optimization and/or second-order correction.
 Total Energy, E(TD-HF/TD-DFT) =  -4070.53371999
 Copying the excited state density for this state as the 1-particle RhoCI density.

 Excited State   2:      Singlet-A      1.6650 eV  744.66 nm  f=0.3593  <S**2>=0.000
     310 -> 315        0.17856
     312 -> 314        0.68338
     310 <- 315        0.11329

 Excited State   3:      Singlet-A      2.1965 eV  564.46 nm  f=0.0902  <S**2>=0.000
     310 -> 314        0.62148
     312 -> 315       -0.31610

 Excited State   4:      Singlet-A      2.1980 eV  564.08 nm  f=0.1170  <S**2>=0.000
     309 -> 313        0.63859
     311 -> 316        0.27433

 Excited State   5:      Singlet-A      3.2250 eV  384.44 nm  f=0.0080  <S**2>=0.000
     303 -> 313        0.15889
     308 -> 313        0.66804
     308 -> 317        0.10503

 The electronic state is 1-A.
 Alpha  occ. eigenvalues --  -46.96660 -46.95522 -19.31568 -19.30153 -19.25201
 Alpha  occ. eigenvalues --  -19.25079 -19.24787 -19.24107 -19.23464 -19.22377
 Alpha  occ. eigenvalues --  -14.47794 -14.47020 -14.46753 -14.46479 -14.45170
 Alpha  occ. eigenvalues --  -14.44866 -14.44364 -14.43664 -10.43799 -10.43616
 Alpha  occ. eigenvalues --  -10.40758 -10.38789 -10.38746 -10.38147 -10.37060
 Alpha  occ. eigenvalues --  -10.36317 -10.35902 -10.35774 -10.35736 -10.35317
 Alpha  occ. eigenvalues --  -10.35262 -10.35232 -10.35106 -10.34733 -10.34682
 Alpha  occ. eigenvalues --  -10.34602 -10.34517 -10.34467 -10.34424 -10.33852
 Alpha  occ. eigenvalues --  -10.33633 -10.33508 -10.33348 -10.32932 -10.32907
 Alpha  occ. eigenvalues --  -10.32758 -10.32704 -10.32549 -10.32541 -10.32394
 Alpha  occ. eigenvalues --  -10.32377 -10.32324 -10.32194 -10.32130 -10.32057
 Alpha  occ. eigenvalues --  -10.31990 -10.31971 -10.31780 -10.31763 -10.31722
 Alpha  occ. eigenvalues --  -10.31705 -10.31583 -10.31402 -10.31385 -10.31134
 Alpha  occ. eigenvalues --  -10.31112 -10.31058 -10.31044 -10.30993 -10.30830
 Alpha  occ. eigenvalues --  -10.30827 -10.30778 -10.30726 -10.30626 -10.30503
 Alpha  occ. eigenvalues --  -10.30256 -10.30235 -10.29985 -10.29930 -10.29845
 Alpha  occ. eigenvalues --  -10.29785 -10.29721 -10.29552 -10.29450 -10.28754
 Alpha  occ. eigenvalues --  -10.28561  -3.22532  -3.21499  -1.96092  -1.95683
 Alpha  occ. eigenvalues --   -1.95464  -1.95054  -1.94608  -1.94496  -1.19009
 Alpha  occ. eigenvalues --   -1.18336  -1.11353  -1.10902  -1.10535  -1.09941
 Alpha  occ. eigenvalues --   -1.09747  -1.09589  -1.07044  -1.06666  -1.06501
 Alpha  occ. eigenvalues --   -1.06020  -1.05710  -1.05584  -1.04219  -1.04164
 Alpha  occ. eigenvalues --   -0.95040  -0.93352  -0.91599  -0.91276  -0.90897
 Alpha  occ. eigenvalues --   -0.90808  -0.90710  -0.90558  -0.90318  -0.89671
 Alpha  occ. eigenvalues --   -0.89180  -0.88952  -0.88384  -0.87178  -0.86548
 Alpha  occ. eigenvalues --   -0.86229  -0.86054  -0.85763  -0.84812  -0.84399
 Alpha  occ. eigenvalues --   -0.84396  -0.83567  -0.83433  -0.83080  -0.82252
 Alpha  occ. eigenvalues --   -0.82130  -0.80433  -0.79859  -0.79428  -0.79327
 Alpha  occ. eigenvalues --   -0.78854  -0.78685  -0.78285  -0.77801  -0.77237
 Alpha  occ. eigenvalues --   -0.77204  -0.75395  -0.74687  -0.73930  -0.73711
 Alpha  occ. eigenvalues --   -0.71605  -0.71115  -0.70908  -0.70831  -0.70329
 Alpha  occ. eigenvalues --   -0.69825  -0.69276  -0.68810  -0.68040  -0.67934
 Alpha  occ. eigenvalues --   -0.67618  -0.67067  -0.66967  -0.66814  -0.66563
 Alpha  occ. eigenvalues --   -0.66529  -0.65340  -0.64658  -0.62877  -0.61975
 Alpha  occ. eigenvalues --   -0.61904  -0.61603  -0.60936  -0.60910  -0.60594
 Alpha  occ. eigenvalues --   -0.60513  -0.59996  -0.59690  -0.59216  -0.59211
 Alpha  occ. eigenvalues --   -0.58279  -0.57987  -0.57723  -0.57593  -0.57579
 Alpha  occ. eigenvalues --   -0.57230  -0.56954  -0.56725  -0.56471  -0.55828
 Alpha  occ. eigenvalues --   -0.55708  -0.55420  -0.55317  -0.55189  -0.55102
 Alpha  occ. eigenvalues --   -0.54773  -0.54761  -0.54581  -0.54532  -0.54148
 Alpha  occ. eigenvalues --   -0.53905  -0.53522  -0.53397  -0.53282  -0.53240
 Alpha  occ. eigenvalues --   -0.53164  -0.53033  -0.52827  -0.52776  -0.52592
 Alpha  occ. eigenvalues --   -0.52238  -0.51882  -0.51856  -0.51459  -0.51371
 Alpha  occ. eigenvalues --   -0.51235  -0.51148  -0.51017  -0.50907  -0.50733
 Alpha  occ. eigenvalues --   -0.50459  -0.50422  -0.50238  -0.50234  -0.50080
 Alpha  occ. eigenvalues --   -0.49743  -0.49682  -0.49546  -0.49391  -0.49326
 Alpha  occ. eigenvalues --   -0.49112  -0.49106  -0.48813  -0.48788  -0.48723
 Alpha  occ. eigenvalues --   -0.48505  -0.48283  -0.48089  -0.47971  -0.47836
 Alpha  occ. eigenvalues --   -0.47643  -0.47445  -0.47168  -0.47143  -0.46951
 Alpha  occ. eigenvalues --   -0.46813  -0.46727  -0.46521  -0.46372  -0.46345
 Alpha  occ. eigenvalues --   -0.46066  -0.45728  -0.45696  -0.45650  -0.45556
 Alpha  occ. eigenvalues --   -0.45449  -0.45198  -0.44925  -0.44686  -0.44532
 Alpha  occ. eigenvalues --   -0.44505  -0.44365  -0.44158  -0.44091  -0.44045
 Alpha  occ. eigenvalues --   -0.43886  -0.43874  -0.43483  -0.43400  -0.43069
 Alpha  occ. eigenvalues --   -0.42854  -0.42738  -0.42711  -0.42595  -0.42497
 Alpha  occ. eigenvalues --   -0.41960  -0.41745  -0.41603  -0.41265  -0.40962
 Alpha  occ. eigenvalues --   -0.40676  -0.40653  -0.40283  -0.40088  -0.40064
 Alpha  occ. eigenvalues --   -0.39783  -0.39411  -0.38909  -0.38795  -0.38490
 Alpha  occ. eigenvalues --   -0.38384  -0.38380  -0.36843  -0.36793  -0.36771
 Alpha  occ. eigenvalues --   -0.36300  -0.36227  -0.35272  -0.33776  -0.33740
 Alpha  occ. eigenvalues --   -0.33302  -0.33177  -0.33122  -0.32688  -0.32399
 Alpha  occ. eigenvalues --   -0.32002  -0.31935  -0.31116  -0.26850  -0.26128
 Alpha  occ. eigenvalues --   -0.23458  -0.22896
 Alpha virt. eigenvalues --   -0.07864  -0.06910  -0.00117   0.00049   0.02014
 Alpha virt. eigenvalues --    0.02246   0.03828   0.04069   0.04376   0.04820
 Alpha virt. eigenvalues --    0.07161   0.07214   0.07420   0.07628   0.08049

 Mulliken charges:
               1
     1  Mg   0.973619
     2  C   -0.080489
     3  C   -0.109992
     4  C   -0.086321
     5  C   -0.082928
     6  N   -0.403962
     7  C   -0.008487
     8  C   -0.052813
     9  C   -0.091965
    10  C    0.125834
    11  C    0.013996
    12  C    0.023140
    13  C   -0.127733
    14  H    0.043639
    15  N   -0.430334
    16  C    0.152929
    17  C   -0.190564
    18  C   -0.078501
    19  C    0.194656
    20  C    0.116271
    21  C    0.044429
    22  O   -0.256227
    23  C   -0.009386
    24  N   -0.325147
    25  C    0.022980
    26  C   -0.076410
    27  C   -0.052188
    28  C    0.038417
    29  C    0.010508
    30  C   -0.007630
    31  C   -0.058074
    32  N   -0.440940
    33  C    0.101328
    34  C   -0.206518
    35  C   -0.043980
    36  C    0.153230
    37  C    0.107375
    38  C    0.155608
    39  O   -0.229702
    40  C   -0.060006
    41  C    0.289209
    42  O   -0.247471
    43  O   -0.356436
    44  C    0.133494
    45  H    0.007795
    46  H   -0.019678
    47  H   -0.011091
    48  H    0.025025
    49  H    0.032689
    50  H    0.036827
    51  H    0.034820
    52  H    0.038400
    53  H    0.030660
    54  H    0.030147
    55  H    0.066469
    56  H    0.049597
    57  H    0.065620
    58  H    0.072137
    59  H    0.012164
    60  H    0.080708
    61  H    0.058289
    62  H    0.060716
    63  H    0.046727
    64  H    0.034032
    65  H    0.046863
    66  H    0.033551
    67  H    0.037713
    68  H    0.033004
    69  H    0.028789
    70  H    0.039105
    71  H    0.028595
    72  H    0.041150
    73  H    0.021213
    74  H    0.075371
    75  H    0.050535
    76  H    0.064493
    77  H    0.055232
    78  H    0.052209
    79  H    0.053665
    80  Mg   0.957227
    81  C    0.004135
    82  C   -0.071985
    83  C   -0.044045
    84  C   -0.099310
    85  N   -0.349413
    86  C    0.011132
    87  C   -0.050884
    88  C   -0.100563
    89  C    0.039510
    90  C    0.023907
    91  C   -0.030661
    92  C   -0.101596
    93  H    0.062365
    94  N   -0.458834
    95  C    0.154412
    96  C   -0.150863
    97  C   -0.094576
    98  C    0.205518
    99  C    0.091900
   100  C    0.063104
   101  O   -0.267822
   102  C    0.000104
   103  N   -0.297855
   104  C    0.011001
   105  C   -0.080676
   106  C   -0.046030
   107  C    0.048306
   108  C    0.002558
   109  C   -0.042780
   110  C   -0.065004
   111  N   -0.464784
   112  C    0.133811
   113  C   -0.171324
   114  C   -0.013215
   115  C    0.155353
   116  C    0.081429
   117  C    0.117982
   118  O   -0.220291
   119  C   -0.108138
   120  C    0.242800
   121  O   -0.244089
   122  O   -0.368880
   123  C    0.139782
   124  H    0.011794
   125  H   -0.042774
   126  H    0.000669
   127  H    0.052511
   128  H    0.038621
   129  H    0.039472
   130  H    0.034829
   131  H    0.041400
   132  H    0.057363
   133  H    0.041226
   134  H    0.052190
   135  H    0.036551
   136  H    0.060599
   137  H    0.046843
   138  H    0.000177
   139  H    0.063429
   140  H    0.040861
   141  H    0.054637
   142  H    0.045267
   143  H    0.032480
   144  H    0.028490
   145  H    0.031390
   146  H    0.039461
   147  H    0.036137
   148  H    0.040987
   149  H    0.033275
   150  H    0.036176
   151  H    0.047793
   152  H    0.043708
   153  H    0.066860
   154  H    0.074575
   155  H    0.058556
   156  H    0.052689
   157  H    0.037481
   158  H    0.061564
 Sum of Mulliken charges =  -0.00000

 Dipole moment (field-independent basis, Debye):
    X=              0.7551    Y=              2.9723    Z=             -3.7409  Tot=              4.8373
 Quadrupole moment (field-independent basis, Debye-Ang):
   XX=           -316.6532   YY=           -512.4053   ZZ=           -508.3800
   XY=             26.0415   XZ=            -82.4844   YZ=             -0.4504

 Normal termination of Gaussian 16 at Mon Sep 20 16:10:10 2021.
