 Gaussian 16, Revision A.03,
 Gaussian 16:  ES64L-G16RevA.03 25-Dec-2016

 --------------------------------
 #p wB97XD/Def2SVP td=(nstates=5)
 --------------------------------

 --------------------------------
 TDDFT excited states in gaussian
 --------------------------------
 Symbolic Z-matrix:
 Charge =  0 Multiplicity = 1

                         Standard orientation:
 ---------------------------------------------------------------------
 Center     Atomic      Atomic             Coordinates (Angstroms)
 Number     Number       Type             X           Y           Z
 ---------------------------------------------------------------------
      1         12           0       27.382061    0.586585   -0.142617
      2          6           0       25.735217   -1.987387   -1.713092
      3          6           0       28.472195   -1.749166    2.310035
      4          6           0       28.595880    3.072394    1.800851
      5          6           0       26.079482    2.833406   -2.265285
      6          7           0       27.120476   -1.626104    0.246906
      7          6           0       26.376486   -2.446194   -0.558261
      8          6           0       26.479850   -3.903963   -0.104207
      9          6           0       27.209188   -3.724522    1.306547
     10          6           0       27.629274   -2.283804    1.301742
     11          6           0       26.342001   -4.168278    2.541361
     12          6           0       27.310503   -4.830039   -1.105294
     13          6           0       26.861391   -6.218544   -1.492261
     14          1           0       26.410960   -7.142134   -0.416783
     15          7           0       28.454554    0.681625    1.785259
     16          6           0       28.941827   -0.354267    2.503024
     17          6           0       29.800043    0.093752    3.548105
     18          6           0       29.886003    1.514868    3.407807
     19          6           0       28.891528    1.802697    2.331465
     20          6           0       30.346007   -0.913768    4.507712
     21          6           0       30.607059    2.516451    4.293720
     22          8           0       30.382287    3.729553    4.239479
     23          6           0       31.632891    2.041408    5.307737
     24          7           0       27.219006    2.710079   -0.129590
     25          6           0       27.924265    3.510229    0.712662
     26          6           0       27.836352    4.970025    0.270739
     27          6           0       27.164362    4.846540   -1.149457
     28          6           0       26.800522    3.375758   -1.200226
     29          6           0       27.209742    6.057067    1.193178
     30          6           0       28.007567    5.370245   -2.386044
     31          6           0       28.891014    4.421945   -3.168728
     32          7           0       26.094278    0.506664   -1.604731
     33          6           0       25.719723    1.455110   -2.522356
     34          6           0       24.812605    0.968953   -3.497043
     35          6           0       24.820045   -0.401220   -3.255300
     36          6           0       25.629506   -0.631341   -2.113194
     37          6           0       24.065174    1.629702   -4.647999
     38          6           0       24.316989   -1.643229   -3.650876
     39          8           0       23.523216   -1.884714   -4.541583
     40          6           0       24.862397   -2.806469   -2.646816
     41          6           0       23.705725   -3.429874   -2.015685
     42          8           0       22.910611   -2.872997   -1.232956
     43          8           0       23.511133   -4.719997   -2.397220
     44          6           0       22.226664   -5.361985   -2.095979
     45          1           0       28.814721   -2.566178    2.947906
     46          1           0       29.208087    3.862235    2.240616
     47          1           0       25.947054    3.448202   -3.157181
     48          1           0       25.475332   -4.328450   -0.082143
     49          1           0       28.087680   -4.365319    1.384122
     50          1           0       26.884844   -4.958607    3.058688
     51          1           0       25.375888   -4.437189    2.113912
     52          1           0       26.235160   -3.421414    3.328636
     53          1           0       28.263985   -4.900801   -0.581581
     54          1           0       27.624376   -4.269829   -1.985427
     55          1           0       27.610249   -6.687750   -2.130311
     56          1           0       25.948015   -6.075251   -2.068461
     57          1           0       31.399682   -0.656591    4.609683
     58          1           0       30.314836   -1.915022    4.077323
     59          1           0       29.872075   -0.952653    5.489110
     60          1           0       32.301662    1.266017    4.932918
     61          1           0       31.142880    1.854555    6.264271
     62          1           0       32.271845    2.911086    5.463990
     63          1           0       28.880941    5.281496    0.251225
     64          1           0       26.299745    5.499064   -1.264966
     65          1           0       26.251898    6.386846    0.791091
     66          1           0       27.903295    6.897750    1.185556
     67          1           0       27.118104    5.592603    2.174386
     68          1           0       28.641606    6.170987   -2.007814
     69          1           0       27.338617    5.802391   -3.130603
     70          1           0       29.909153    4.800352   -3.262847
     71          1           0       28.517516    4.203026   -4.169949
     72          1           0       28.886137    3.498196   -2.590111
     73          1           0       24.345765    2.682544   -4.696611
     74          1           0       22.992529    1.512706   -4.491532
     75          1           0       24.343251    1.126622   -5.573685
     76          1           0       25.290626   -3.498098   -3.372909
     77          1           0       21.983008   -6.197768   -2.752019
     78          1           0       21.379322   -4.686932   -1.979721
     79          1           0       22.393846   -5.889939   -1.157014
     80         12           0      -27.423916    0.589124    0.121186
     81          6           0      -25.256818   -1.810815    1.458582
     82          6           0      -29.174332   -1.883378   -1.461025
     83          6           0      -29.213240    2.935320   -1.373765
     84          6           0      -25.390590    3.084343    1.675499
     85          7           0      -27.179900   -1.609889   -0.007574
     86          6           0      -26.285512   -2.419001    0.657334
     87          6           0      -26.693716   -3.875516    0.535303
     88          6           0      -27.764890   -3.847746   -0.625598
     89          6           0      -28.112195   -2.319979   -0.618055
     90          6           0      -27.220186   -4.311328   -1.970630
     91          6           0      -27.089006   -4.442611    1.947403
     92          6           0      -27.722606   -5.860283    1.888434
     93          1           0      -27.271344   -6.760190    0.756855
     94          7           0      -28.937051    0.532325   -1.171754
     95          6           0      -29.475734   -0.576432   -1.812303
     96          6           0      -30.525822   -0.194825   -2.772969
     97          6           0      -30.546559    1.232035   -2.700002
     98          6           0      -29.529414    1.615612   -1.724584
     99          6           0      -31.333726   -1.182114   -3.528798
    100          6           0      -31.439785    2.148657   -3.495563
    101          8           0      -31.424621    3.400645   -3.335563
    102          6           0      -32.453214    1.603966   -4.465279
    103          7           0      -27.342783    2.731771    0.199184
    104          6           0      -28.218622    3.424461   -0.529250
    105          6           0      -27.897437    4.981500   -0.448043
    106          6           0      -26.598357    5.032841    0.534148
    107          6           0      -26.415854    3.540231    0.812594
    108          6           0      -27.637968    5.518353   -1.915136
    109          6           0      -26.837516    5.806173    1.900863
    110          6           0      -26.617011    7.345519    1.855735
    111          7           0      -25.679124    0.694447    1.245971
    112          6           0      -25.012710    1.752381    1.918952
    113          6           0      -23.864450    1.184356    2.752084
    114          6           0      -23.871102   -0.191964    2.549092
    115          6           0      -25.052012   -0.443573    1.684215
    116          6           0      -22.932518    1.927856    3.656859
    117          6           0      -23.269317   -1.458092    2.896162
    118          8           0      -22.304862   -1.749191    3.610642
    119          6           0      -24.261217   -2.598296    2.344609
    120          6           0      -23.534920   -3.696329    1.601884
    121          8           0      -23.266107   -3.653237    0.431773
    122          8           0      -23.428533   -4.862599    2.392894
    123          6           0      -23.169320   -6.129821    1.693122
    124          1           0      -29.594954   -2.774119   -1.933082
    125          1           0      -29.797315    3.705370   -1.882336
    126          1           0      -24.669375    3.791997    2.089896
    127          1           0      -25.813972   -4.435380    0.220524
    128          1           0      -28.692916   -4.383336   -0.422971
    129          1           0      -27.863933   -5.134960   -2.279004
    130          1           0      -26.161978   -4.543209   -1.852311
    131          1           0      -27.415263   -3.600076   -2.772875
    132          1           0      -27.604950   -3.587185    2.382351
    133          1           0      -26.154119   -4.498846    2.503999
    134          1           0      -28.789970   -5.648379    1.825099
    135          1           0      -27.491829   -6.370510    2.823478
    136          1           0      -31.044000   -0.978786   -4.559585
    137          1           0      -32.403988   -1.094875   -3.343545
    138          1           0      -31.139212   -2.247381   -3.397984
    139          1           0      -33.190183    1.020662   -3.914960
    140          1           0      -31.772158    1.042675   -5.106191
    141          1           0      -32.951642    2.330936   -5.105918
    142          1           0      -28.805767    5.333838    0.042275
    143          1           0      -25.630132    5.244135    0.078291
    144          1           0      -27.695578    4.756664   -2.692514
    145          1           0      -26.641067    5.955478   -1.977836
    146          1           0      -28.458024    6.205778   -2.120524
    147          1           0      -26.358857    5.311676    2.745638
    148          1           0      -27.896796    5.682881    2.123962
    149          1           0      -27.539054    7.802790    2.212933
    150          1           0      -26.324007    7.622778    0.843043
    151          1           0      -25.817315    7.664179    2.524772
    152          1           0      -23.234102    1.675885    4.673782
    153          1           0      -22.996815    2.999898    3.466709
    154          1           0      -21.873545    1.673606    3.616858
    155          1           0      -24.784779   -2.986812    3.217649
    156          1           0      -22.102334   -6.110977    1.472716
    157          1           0      -23.852523   -6.254543    0.852773
    158          1           0      -23.430637   -6.921057    2.395291
 ---------------------------------------------------------------------

 SCF Done:  E(RwB97XD) =  -4070.64583360     A.U. after   20 cycles

 Excitation energies and oscillator strengths:

 Excited State   1:      Singlet-A      1.6549 eV  749.19 nm  f=0.3916  <S**2>=0.000
     309 -> 315        0.20542
     312 -> 314        0.67796
     309 <- 315        0.12141
 This state for optimization and/or second-order correction.
 Total Energy, E(TD-HF/TD-DFT) =  -4070.58501680
 Copying the excited state density for this state as the 1-particle RhoCI density.

 Excited State   2:      Singlet-A      1.6605 eV  746.66 nm  f=0.4043  <S**2>=0.000
     310 -> 316       -0.18407
     311 -> 313        0.68425
     310 <- 316       -0.11634

 Excited State   3:      Singlet-A      2.1344 eV  580.89 nm  f=0.1703  <S**2>=0.000
     310 -> 313        0.66025
     311 -> 316        0.24165

 Excited State   4:      Singlet-A      2.2347 eV  554.81 nm  f=0.0335  <S**2>=0.000
     309 -> 314        0.58749
     312 -> 315       -0.38609

 Excited State   5:      Singlet-A      3.7520 eV  330.45 nm  f=0.0000  <S**2>=0.000
     312 -> 313        0.70710

 The electronic state is 1-A.
 Alpha  occ. eigenvalues --  -46.95429 -46.94402 -19.30262 -19.29201 -19.25207
 Alpha  occ. eigenvalues --  -19.24251 -19.23915 -19.23635 -19.23461 -19.23440
 Alpha  occ. eigenvalues --  -14.46723 -14.46696 -14.46111 -14.46106 -14.44564
 Alpha  occ. eigenvalues --  -14.44491 -14.44150 -14.44073 -10.43263 -10.42761
 Alpha  occ. eigenvalues --  -10.39565 -10.39345 -10.39222 -10.38519 -10.35472
 Alpha  occ. eigenvalues --  -10.35342 -10.35068 -10.34926 -10.34884 -10.34745
 Alpha  occ. eigenvalues --  -10.34647 -10.34390 -10.34375 -10.34355 -10.34353
 Alpha  occ. eigenvalues --  -10.34159 -10.34135 -10.34113 -10.34105 -10.33874
 Alpha  occ. eigenvalues --  -10.33579 -10.33477 -10.33393 -10.33226 -10.32979
 Alpha  occ. eigenvalues --  -10.32601 -10.32517 -10.32512 -10.32512 -10.32334
 Alpha  occ. eigenvalues --  -10.32302 -10.32278 -10.32230 -10.32101 -10.32076
 Alpha  occ. eigenvalues --  -10.32032 -10.31789 -10.31768 -10.31737 -10.31684
 Alpha  occ. eigenvalues --  -10.31586 -10.31553 -10.31533 -10.31342 -10.31099
 Alpha  occ. eigenvalues --  -10.30972 -10.30847 -10.30798 -10.30634 -10.30623
 Alpha  occ. eigenvalues --  -10.30363 -10.30294 -10.30274 -10.30139 -10.30069
 Alpha  occ. eigenvalues --  -10.30048 -10.30038 -10.29913 -10.29603 -10.29552
 Alpha  occ. eigenvalues --  -10.29413 -10.29227 -10.29182 -10.29182 -10.28827
 Alpha  occ. eigenvalues --  -10.28625  -3.21482  -3.20501  -1.95054  -1.94566
 Alpha  occ. eigenvalues --   -1.94497  -1.94102  -1.93614  -1.93503  -1.18011
 Alpha  occ. eigenvalues --   -1.17605  -1.12109  -1.11680  -1.11361  -1.10011
 Alpha  occ. eigenvalues --   -1.09967  -1.08006  -1.07385  -1.06682  -1.06312
 Alpha  occ. eigenvalues --   -1.06148  -1.05493  -1.05464  -1.04811  -1.03389
 Alpha  occ. eigenvalues --   -0.94573  -0.93565  -0.90936  -0.90838  -0.90418
 Alpha  occ. eigenvalues --   -0.90094  -0.90045  -0.89734  -0.89710  -0.89472
 Alpha  occ. eigenvalues --   -0.89355  -0.88630  -0.88356  -0.88225  -0.86202
 Alpha  occ. eigenvalues --   -0.86138  -0.85643  -0.84831  -0.84552  -0.84103
 Alpha  occ. eigenvalues --   -0.83800  -0.83760  -0.83096  -0.82675  -0.82265
 Alpha  occ. eigenvalues --   -0.81945  -0.80926  -0.80342  -0.79390  -0.79331
 Alpha  occ. eigenvalues --   -0.79018  -0.78880  -0.78147  -0.77684  -0.77416
 Alpha  occ. eigenvalues --   -0.76466  -0.75520  -0.74054  -0.73509  -0.73422
 Alpha  occ. eigenvalues --   -0.71534  -0.71329  -0.71198  -0.70498  -0.70274
 Alpha  occ. eigenvalues --   -0.70079  -0.69110  -0.69070  -0.67542  -0.67393
 Alpha  occ. eigenvalues --   -0.67098  -0.67093  -0.66712  -0.66190  -0.65898
 Alpha  occ. eigenvalues --   -0.65749  -0.64219  -0.63257  -0.62645  -0.62188
 Alpha  occ. eigenvalues --   -0.61790  -0.61452  -0.61048  -0.60687  -0.60257
 Alpha  occ. eigenvalues --   -0.59864  -0.59720  -0.59507  -0.59263  -0.58747
 Alpha  occ. eigenvalues --   -0.58223  -0.58116  -0.57803  -0.57314  -0.56984
 Alpha  occ. eigenvalues --   -0.56762  -0.56512  -0.56116  -0.55973  -0.55867
 Alpha  occ. eigenvalues --   -0.55586  -0.55212  -0.55183  -0.55076  -0.54730
 Alpha  occ. eigenvalues --   -0.54469  -0.54430  -0.54155  -0.54130  -0.54002
 Alpha  occ. eigenvalues --   -0.53817  -0.53632  -0.53383  -0.53338  -0.53079
 Alpha  occ. eigenvalues --   -0.52775  -0.52669  -0.52511  -0.52378  -0.52177
 Alpha  occ. eigenvalues --   -0.52022  -0.51784  -0.51447  -0.51444  -0.51360
 Alpha  occ. eigenvalues --   -0.51219  -0.51147  -0.50993  -0.50903  -0.50763
 Alpha  occ. eigenvalues --   -0.50714  -0.50656  -0.50486  -0.50414  -0.50152
 Alpha  occ. eigenvalues --   -0.50040  -0.50005  -0.49760  -0.49486  -0.49342
 Alpha  occ. eigenvalues --   -0.49079  -0.48782  -0.48766  -0.48409  -0.48087
 Alpha  occ. eigenvalues --   -0.48078  -0.47997  -0.47870  -0.47786  -0.47657
 Alpha  occ. eigenvalues --   -0.47496  -0.47217  -0.47121  -0.47079  -0.46939
 Alpha  occ. eigenvalues --   -0.46754  -0.46608  -0.46439  -0.46088  -0.45898
 Alpha  occ. eigenvalues --   -0.45844  -0.45814  -0.45539  -0.45402  -0.45275
 Alpha  occ. eigenvalues --   -0.45152  -0.45052  -0.44984  -0.44910  -0.44820
 Alpha  occ. eigenvalues --   -0.44461  -0.44210  -0.44169  -0.44085  -0.43892
 Alpha  occ. eigenvalues --   -0.43775  -0.43475  -0.43438  -0.43281  -0.43213
 Alpha  occ. eigenvalues --   -0.43017  -0.42809  -0.42478  -0.42239  -0.42068
 Alpha  occ. eigenvalues --   -0.41908  -0.41740  -0.41439  -0.41101  -0.40941
 Alpha  occ. eigenvalues --   -0.40451  -0.40395  -0.40133  -0.40088  -0.39881
 Alpha  occ. eigenvalues --   -0.39259  -0.38811  -0.38644  -0.38236  -0.38027
 Alpha  occ. eigenvalues --   -0.37791  -0.37659  -0.36532  -0.36468  -0.36125
 Alpha  occ. eigenvalues --   -0.35402  -0.35395  -0.35063  -0.33521  -0.33462
 Alpha  occ. eigenvalues --   -0.33231  -0.33051  -0.33015  -0.32580  -0.32436
 Alpha  occ. eigenvalues --   -0.32433  -0.32239  -0.32218  -0.25897  -0.25730
 Alpha  occ. eigenvalues --   -0.23257  -0.22205
 Alpha virt. eigenvalues --   -0.07444  -0.06223  -0.00226   0.00744   0.01850
 Alpha virt. eigenvalues --    0.02329   0.04271   0.04575   0.04956   0.06327
 Alpha virt. eigenvalues --    0.06720   0.06892   0.07713   0.08499   0.08572

 Mulliken charges:
               1
     1  Mg   0.974624
     2  C   -0.004241
     3  C   -0.064919
     4  C   -0.065401
     5  C   -0.074906
     6  N   -0.330551
     7  C    0.000608
     8  C   -0.084624
     9  C   -0.117717
    10  C    0.051392
    11  C    0.025249
    12  C    0.010917
    13  C   -0.102356
    14  H    0.032758
    15  N   -0.356550
    16  C    0.129120
    17  C   -0.163776
    18  C   -0.075545
    19  C    0.099960
    20  C    0.082215
    21  C    0.043245
    22  O   -0.246913
    23  C   -0.016998
    24  N   -0.351544
    25  C    0.050054
    26  C   -0.080553
    27  C   -0.041593
    28  C    0.061749
    29  C    0.035320
    30  C   -0.057971
    31  C   -0.043087
    32  N   -0.478566
    33  C    0.099251
    34  C   -0.189110
    35  C    0.040955
    36  C    0.138151
    37  C    0.096927
    38  C    0.037819
    39  O   -0.207897
    40  C   -0.056054
    41  C    0.260360
    42  O   -0.281307
    43  O   -0.359779
    44  C    0.146674
    45  H   -0.010887
    46  H    0.017275
    47  H   -0.000403
    48  H    0.049055
    49  H    0.042618
    50  H    0.031645
    51  H    0.050449
    52  H    0.040583
    53  H    0.012374
    54  H    0.032273
    55  H    0.055993
    56  H    0.054353
    57  H    0.030594
    58  H    0.036832
    59  H    0.063571
    60  H    0.053777
    61  H    0.071494
    62  H    0.050406
    63  H    0.036328
    64  H    0.036899
    65  H    0.036530
    66  H    0.040337
    67  H    0.051429
    68  H    0.029685
    69  H    0.029348
    70  H    0.038439
    71  H    0.037294
    72  H    0.035914
    73  H    0.026401
    74  H    0.066854
    75  H    0.060962
    76  H    0.060654
    77  H    0.053408
    78  H    0.075500
    79  H    0.036628
    80  Mg   0.984931
    81  C   -0.029821
    82  C   -0.097710
    83  C   -0.088016
    84  C   -0.091652
    85  N   -0.320865
    86  C   -0.001644
    87  C   -0.052375
    88  C   -0.133814
    89  C    0.011276
    90  C    0.044494
    91  C   -0.023313
    92  C   -0.099814
    93  H    0.046663
    94  N   -0.499671
    95  C    0.214850
    96  C   -0.158578
    97  C   -0.076705
    98  C    0.175212
    99  C    0.073677
   100  C    0.037762
   101  O   -0.272513
   102  C    0.020528
   103  N   -0.349016
   104  C    0.045679
   105  C   -0.087819
   106  C   -0.049400
   107  C    0.040715
   108  C    0.013478
   109  C   -0.039890
   110  C   -0.032204
   111  N   -0.452008
   112  C    0.124819
   113  C   -0.194072
   114  C   -0.008999
   115  C    0.139445
   116  C    0.070665
   117  C    0.151148
   118  O   -0.214991
   119  C   -0.144280
   120  C    0.289291
   121  O   -0.219318
   122  O   -0.405880
   123  C    0.143358
   124  H   -0.011157
   125  H    0.021180
   126  H    0.001230
   127  H    0.028739
   128  H    0.029435
   129  H    0.028574
   130  H    0.059107
   131  H    0.036172
   132  H    0.041275
   133  H    0.036932
   134  H    0.058416
   135  H    0.059618
   136  H    0.054092
   137  H    0.057833
   138  H    0.036128
   139  H    0.065649
   140  H    0.039259
   141  H    0.055204
   142  H    0.050619
   143  H    0.044484
   144  H    0.052666
   145  H    0.038292
   146  H    0.049583
   147  H    0.034805
   148  H    0.019192
   149  H    0.041744
   150  H    0.039438
   151  H    0.036836
   152  H    0.060588
   153  H    0.027132
   154  H    0.060490
   155  H    0.091797
   156  H    0.068567
   157  H    0.050138
   158  H    0.052324
 Sum of Mulliken charges =  -0.00000

 Dipole moment (field-independent basis, Debye):
    X=              0.0595    Y=             -3.5804    Z=             -0.2572  Tot=              3.5901
 Quadrupole moment (field-independent basis, Debye-Ang):
   XX=            -83.6643   YY=           -460.6802   ZZ=           -511.8321
   XY=             26.6109   XZ=             35.0217   YZ=             -8.6024

 Normal termination of Gaussian 16 at Mon Sep 20 20:13:41 2021.
