 Gaussian 16, Revision A.03,
 Gaussian 16:  ES64L-G16RevA.03 25-Dec-2016

 --------------------------------
 #p wB97XD/Def2SVP td=(nstates=5)
 --------------------------------

 --------------------------------
 TDDFT excited states in gaussian
 --------------------------------
 Symbolic Z-matrix:
 Charge =  0 Multiplicity = 1

                         Standard orientation:
 ---------------------------------------------------------------------
 Center     Atomic      Atomic             Coordinates (Angstroms)
 Number     Number       Type             X           Y           Z
 ---------------------------------------------------------------------
      1         12           0       -9.132454    0.731947   -0.032427
      2          6           0       -7.428148   -1.674388    1.906457
      3          6           0       -7.272014    3.230427    1.537300
      4          6           0      -10.022311    2.822679   -2.572384
      5          6           0      -10.525839   -2.021468   -1.850954
      6          7           0       -7.595284    0.747624    1.531983
      7          6           0       -7.047509   -0.324157    2.143170
      8          6           0       -5.873282    0.103939    3.082376
      9          6           0       -6.151597    1.673741    3.187108
     10          6           0       -7.128501    1.947725    1.998124
     11          6           0       -6.806071    2.280256    4.449057
     12          6           0       -4.506953   -0.270685    2.393151
     13          6           0       -3.405021   -0.738374    3.383953
     14          1           0       -1.944014   -0.210709    3.079521
     15          7           0       -8.871866    2.852556   -0.373150
     16          6           0       -8.112251    3.656178    0.435049
     17          6           0       -8.232302    4.969814   -0.073036
     18          6           0       -8.956041    4.927387   -1.301666
     19          6           0       -9.380432    3.496396   -1.463194
     20          6           0       -7.604160    6.197331    0.543479
     21          6           0       -9.111179    6.034953   -2.287296
     22          8           0       -8.549682    7.109258   -2.144695
     23          6           0       -9.858479    5.946003   -3.514675
     24          7           0      -10.057832    0.374835   -2.018374
     25          6           0      -10.454105    1.481918   -2.783204
     26          6           0      -11.335302    1.051959   -3.914098
     27          6           0      -11.462892   -0.507803   -3.750386
     28          6           0      -10.653817   -0.763002   -2.490426
     29          6           0      -12.666528    1.809059   -3.825216
     30          6           0      -11.153209   -1.311422   -5.069224
     31          6           0      -12.229981   -2.222213   -5.576192
     32          7           0       -9.063167   -1.456393    0.001314
     33          6           0       -9.725697   -2.384380   -0.764085
     34          6           0       -9.519120   -3.744474   -0.219838
     35          6           0       -8.561056   -3.465914    0.790794
     36          6           0       -8.399862   -2.100137    0.930033
     37          6           0      -10.018273   -5.082542   -0.742139
     38          6           0       -7.643662   -4.111092    1.692074
     39          8           0       -7.416265   -5.318315    1.867464
     40          6           0       -6.881356   -3.041276    2.473451
     41          6           0       -7.040447   -3.226021    3.927984
     42          8           0       -6.124918   -3.396766    4.648565
     43          8           0       -8.307172   -2.984650    4.375342
     44          6           0       -8.338737   -2.928945    5.852979
     45          1           0       -6.764578    4.044292    2.060281
     46          1           0      -10.352639    3.565368   -3.300303
     47          1           0      -10.824247   -2.974384   -2.294230
     48          1           0       -5.989654   -0.422640    4.029782
     49          1           0       -5.350547    2.313769    2.817623
     50          1           0       -7.414565    1.531780    4.957898
     51          1           0       -7.408110    3.176653    4.299972
     52          1           0       -5.981133    2.526602    5.116707
     53          1           0       -4.144816    0.553655    1.778148
     54          1           0       -4.759261   -1.086552    1.715732
     55          1           0       -3.441088   -1.824896    3.302839
     56          1           0       -3.815567   -0.446742    4.350904
     57          1           0       -8.057244    7.154343    0.284428
     58          1           0       -6.574177    6.157309    0.190061
     59          1           0       -7.385376    6.150068    1.610268
     60          1           0      -10.892826    5.738189   -3.237760
     61          1           0       -9.437059    5.191223   -4.179233
     62          1           0       -9.795870    6.906501   -4.026251
     63          1           0      -10.821444    1.171951   -4.867554
     64          1           0      -12.388823   -0.897306   -3.326682
     65          1           0      -12.629665    2.668402   -3.155245
     66          1           0      -13.466457    1.175496   -3.442058
     67          1           0      -12.851988    2.328391   -4.764960
     68          1           0      -10.251781   -1.878093   -4.835931
     69          1           0      -11.027876   -0.683461   -5.950544
     70          1           0      -11.787661   -3.212519   -5.681188
     71          1           0      -12.573610   -1.931524   -6.569099
     72          1           0      -13.140610   -2.185759   -4.978179
     73          1           0       -9.399569   -5.477160   -1.548362
     74          1           0      -11.070640   -5.067371   -1.028455
     75          1           0       -9.816008   -5.723934    0.115563
     76          1           0       -5.809980   -3.181721    2.336060
     77          1           0       -9.368379   -2.734254    6.154164
     78          1           0       -7.673941   -2.148829    6.223619
     79          1           0       -8.136471   -3.880817    6.342813
     80         12           0        9.328669    0.159276   -0.265012
     81          6           0        6.706447   -2.402235   -0.268458
     82          6           0        7.360281    1.869183    2.075416
     83          6           0       11.430941    2.642714   -0.466431
     84          6           0       11.169518   -1.772741   -2.419197
     85          7           0        7.207153   -0.115938    0.610793
     86          6           0        6.352991   -1.296831    0.582477
     87          6           0        5.061946   -1.151873    1.416387
     88          6           0        5.280641    0.370683    1.977188
     89          6           0        6.698077    0.785078    1.535919
     90          6           0        4.210132    1.346977    1.529785
     91          6           0        4.956479   -2.296831    2.468751
     92          6           0        3.912834   -2.102173    3.527240
     93          1           0        3.021692   -3.257783    3.924860
     94          7           0        9.404572    2.049969    0.657379
     95          6           0        8.513679    2.577897    1.598754
     96          6           0        8.977045    3.895484    2.029963
     97          6           0       10.202356    4.153884    1.289168
     98          6           0       10.428045    2.934961    0.427544
     99          6           0        8.299558    4.767660    3.149699
    100          6           0       11.097911    5.339457    1.251912
    101          8           0       12.130121    5.418906    0.599242
    102          6           0       10.833717    6.490824    2.131073
    103          7           0       11.049669    0.363537   -1.192080
    104          6           0       11.701840    1.526574   -1.240222
    105          6           0       12.984944    1.456899   -2.101101
    106          6           0       13.100563   -0.036177   -2.327810
    107          6           0       11.638077   -0.541972   -2.019700
    108          6           0       12.883990    2.251803   -3.397814
    109          6           0       14.111786   -0.896649   -1.615463
    110          6           0       13.931878   -0.955375   -0.113561
    111          7           0        9.004792   -1.645060   -1.253561
    112          6           0        9.928088   -2.356358   -2.040982
    113          6           0        9.325446   -3.598292   -2.458450
    114          6           0        8.123639   -3.625064   -1.705120
    115          6           0        7.952358   -2.420262   -0.997053
    116          6           0        9.918462   -4.692808   -3.296848
    117          6           0        6.976028   -4.536091   -1.404910
    118          8           0        6.773557   -5.728401   -1.719461
    119          6           0        6.039902   -3.736483   -0.501459
    120          6           0        4.642175   -3.672926   -1.120841
    121          8           0        4.248528   -3.135733   -2.198034
    122          8           0        3.780029   -4.200244   -0.205417
    123          6           0        2.346811   -4.158725   -0.574224
    124          1           0        6.853236    2.294472    2.942906
    125          1           0       12.112794    3.485394   -0.598048
    126          1           0       11.687268   -2.427781   -3.123145
    127          1           0        4.249223   -1.314263    0.708485
    128          1           0        5.369139    0.335230    3.063030
    129          1           0        3.735444    1.769109    2.416011
    130          1           0        3.477482    0.763082    0.973788
    131          1           0        4.466903    2.048279    0.736136
    132          1           0        5.973700   -2.454505    2.828897
    133          1           0        4.720801   -3.224246    1.946630
    134          1           0        3.143809   -1.354965    3.332690
    135          1           0        4.402743   -1.875724    4.473805
    136          1           0        9.057507    4.851270    3.929096
    137          1           0        7.408079    4.309210    3.577434
    138          1           0        8.071262    5.728127    2.687480
    139          1           0        9.784623    6.784835    2.169612
    140          1           0       11.421444    7.291554    1.683554
    141          1           0       11.044894    6.106812    3.128628
    142          1           0       13.792050    1.879200   -1.502377
    143          1           0       13.343586   -0.275599   -3.363430
    144          1           0       13.834976    2.755204   -3.568056
    145          1           0       12.099465    3.005484   -3.339061
    146          1           0       12.803035    1.574931   -4.249099
    147          1           0       15.105026   -0.567201   -1.921723
    148          1           0       13.982288   -1.947113   -1.875428
    149          1           0       14.874609   -0.823891    0.416275
    150          1           0       13.570575   -1.924919    0.230016
    151          1           0       13.262608   -0.194990    0.289119
    152          1           0        9.826279   -5.644271   -2.773665
    153          1           0       10.956498   -4.642846   -3.625524
    154          1           0        9.328825   -4.741939   -4.212519
    155          1           0        5.914558   -4.289996    0.429576
    156          1           0        1.860136   -3.326690   -0.065761
    157          1           0        2.067655   -5.165108   -0.262157
    158          1           0        2.194334   -4.148837   -1.654224
 ---------------------------------------------------------------------

 SCF Done:  E(RwB97XD) =  -4070.59430671     A.U. after   20 cycles

 Excitation energies and oscillator strengths:

 Excited State   1:      Singlet-A      1.6075 eV  771.30 nm  f=0.1228  <S**2>=0.000
     310 -> 316        0.15315
     311 -> 313       -0.29585
     312 -> 314        0.61944
     310 <- 316        0.10253
 This state for optimization and/or second-order correction.
 Total Energy, E(TD-HF/TD-DFT) =  -4070.53523294
 Copying the excited state density for this state as the 1-particle RhoCI density.

 Excited State   2:      Singlet-A      1.6219 eV  764.45 nm  f=0.6620  <S**2>=0.000
     309 -> 315       -0.16197
     311 -> 313        0.61746
     312 -> 314        0.29601
     309 <- 315       -0.10525

 Excited State   3:      Singlet-A      2.1153 eV  586.12 nm  f=0.1430  <S**2>=0.000
     310 -> 314        0.64831
     312 -> 316       -0.25633

 Excited State   4:      Singlet-A      2.1464 eV  577.64 nm  f=0.1065  <S**2>=0.000
     309 -> 313        0.63795
     311 -> 315        0.28443

 Excited State   5:      Singlet-A      3.3711 eV  367.79 nm  f=0.0000  <S**2>=0.000
     312 -> 313        0.70684

 The electronic state is 1-A.
 Alpha  occ. eigenvalues --  -46.97286 -46.93990 -19.30781 -19.30491 -19.25012
 Alpha  occ. eigenvalues --  -19.24429 -19.24073 -19.23752 -19.23359 -19.22410
 Alpha  occ. eigenvalues --  -14.47719 -14.47410 -14.47026 -14.46659 -14.44597
 Alpha  occ. eigenvalues --  -14.44500 -14.44017 -14.43313 -10.43647 -10.42724
 Alpha  occ. eigenvalues --  -10.38955 -10.38638 -10.38510 -10.37506 -10.36453
 Alpha  occ. eigenvalues --  -10.36120 -10.35990 -10.35886 -10.35717 -10.35449
 Alpha  occ. eigenvalues --  -10.35401 -10.35395 -10.35207 -10.35147 -10.35041
 Alpha  occ. eigenvalues --  -10.34687 -10.34633 -10.34490 -10.34358 -10.33988
 Alpha  occ. eigenvalues --  -10.33641 -10.33318 -10.33238 -10.33204 -10.33110
 Alpha  occ. eigenvalues --  -10.33104 -10.32875 -10.32866 -10.32738 -10.32731
 Alpha  occ. eigenvalues --  -10.32678 -10.32580 -10.32573 -10.32500 -10.32475
 Alpha  occ. eigenvalues --  -10.32471 -10.32392 -10.32381 -10.32334 -10.31958
 Alpha  occ. eigenvalues --  -10.31705 -10.31669 -10.31500 -10.31451 -10.31321
 Alpha  occ. eigenvalues --  -10.31063 -10.31018 -10.30963 -10.30899 -10.30896
 Alpha  occ. eigenvalues --  -10.30850 -10.30602 -10.30463 -10.30436 -10.30011
 Alpha  occ. eigenvalues --  -10.29707 -10.29678 -10.29652 -10.29644 -10.29608
 Alpha  occ. eigenvalues --  -10.29451 -10.29396 -10.29292 -10.29216 -10.28581
 Alpha  occ. eigenvalues --  -10.28272  -3.22929  -3.20146  -1.96522  -1.96021
 Alpha  occ. eigenvalues --   -1.95881  -1.93746  -1.93283  -1.93125  -1.20297
 Alpha  occ. eigenvalues --   -1.17984  -1.12551  -1.11826  -1.11415  -1.11351
 Alpha  occ. eigenvalues --   -1.09859  -1.07769  -1.07299  -1.06944  -1.05891
 Alpha  occ. eigenvalues --   -1.05551  -1.04691  -1.04681  -1.04240  -1.02488
 Alpha  occ. eigenvalues --   -0.94771  -0.94117  -0.91453  -0.91367  -0.91075
 Alpha  occ. eigenvalues --   -0.90708  -0.90399  -0.90289  -0.90136  -0.89148
 Alpha  occ. eigenvalues --   -0.89109  -0.88884  -0.87874  -0.87682  -0.86909
 Alpha  occ. eigenvalues --   -0.86703  -0.86546  -0.85812  -0.84776  -0.84721
 Alpha  occ. eigenvalues --   -0.84537  -0.84175  -0.83206  -0.83022  -0.82665
 Alpha  occ. eigenvalues --   -0.81915  -0.80713  -0.80416  -0.79687  -0.79063
 Alpha  occ. eigenvalues --   -0.78924  -0.78596  -0.78568  -0.77741  -0.77501
 Alpha  occ. eigenvalues --   -0.77339  -0.75283  -0.74623  -0.74618  -0.73798
 Alpha  occ. eigenvalues --   -0.72103  -0.71490  -0.71286  -0.71273  -0.70104
 Alpha  occ. eigenvalues --   -0.69478  -0.69041  -0.69031  -0.68386  -0.67833
 Alpha  occ. eigenvalues --   -0.67141  -0.66914  -0.66786  -0.66543  -0.66137
 Alpha  occ. eigenvalues --   -0.65666  -0.65460  -0.63761  -0.62213  -0.62148
 Alpha  occ. eigenvalues --   -0.62139  -0.61130  -0.61034  -0.60983  -0.60956
 Alpha  occ. eigenvalues --   -0.60432  -0.60158  -0.59530  -0.59258  -0.59179
 Alpha  occ. eigenvalues --   -0.58582  -0.58188  -0.58162  -0.57694  -0.57673
 Alpha  occ. eigenvalues --   -0.57330  -0.57200  -0.57119  -0.56626  -0.56547
 Alpha  occ. eigenvalues --   -0.56088  -0.55637  -0.55439  -0.55327  -0.55176
 Alpha  occ. eigenvalues --   -0.54947  -0.54917  -0.54672  -0.54564  -0.54355
 Alpha  occ. eigenvalues --   -0.54294  -0.53963  -0.53874  -0.53546  -0.53433
 Alpha  occ. eigenvalues --   -0.52947  -0.52926  -0.52686  -0.52572  -0.52158
 Alpha  occ. eigenvalues --   -0.52095  -0.51997  -0.51881  -0.51688  -0.51557
 Alpha  occ. eigenvalues --   -0.51423  -0.51359  -0.51169  -0.50685  -0.50634
 Alpha  occ. eigenvalues --   -0.50585  -0.50443  -0.50433  -0.50296  -0.50250
 Alpha  occ. eigenvalues --   -0.49896  -0.49629  -0.49534  -0.49415  -0.49371
 Alpha  occ. eigenvalues --   -0.49055  -0.48829  -0.48747  -0.48731  -0.48580
 Alpha  occ. eigenvalues --   -0.48474  -0.48394  -0.48317  -0.47978  -0.47794
 Alpha  occ. eigenvalues --   -0.47782  -0.47434  -0.47266  -0.47225  -0.47152
 Alpha  occ. eigenvalues --   -0.46965  -0.46744  -0.46709  -0.46444  -0.46362
 Alpha  occ. eigenvalues --   -0.46132  -0.46117  -0.45997  -0.45736  -0.45669
 Alpha  occ. eigenvalues --   -0.45438  -0.45265  -0.45043  -0.45038  -0.44948
 Alpha  occ. eigenvalues --   -0.44665  -0.44479  -0.44446  -0.44312  -0.43982
 Alpha  occ. eigenvalues --   -0.43901  -0.43737  -0.43599  -0.43402  -0.43100
 Alpha  occ. eigenvalues --   -0.43014  -0.42776  -0.42717  -0.42293  -0.42134
 Alpha  occ. eigenvalues --   -0.41736  -0.41714  -0.41331  -0.41010  -0.40893
 Alpha  occ. eigenvalues --   -0.40704  -0.40686  -0.40160  -0.39829  -0.39373
 Alpha  occ. eigenvalues --   -0.39186  -0.39115  -0.39024  -0.38611  -0.38465
 Alpha  occ. eigenvalues --   -0.38346  -0.37914  -0.37061  -0.36269  -0.36169
 Alpha  occ. eigenvalues --   -0.35912  -0.35879  -0.35176  -0.33842  -0.33607
 Alpha  occ. eigenvalues --   -0.33158  -0.33109  -0.32726  -0.32473  -0.32160
 Alpha  occ. eigenvalues --   -0.32015  -0.31444  -0.31176  -0.26554  -0.26062
 Alpha  occ. eigenvalues --   -0.23488  -0.23166
 Alpha virt. eigenvalues --   -0.07876  -0.07538  -0.00459   0.00371   0.02199
 Alpha virt. eigenvalues --    0.02491   0.04297   0.04419   0.04435   0.06384
 Alpha virt. eigenvalues --    0.06849   0.06955   0.07778   0.07834   0.08061

 Mulliken charges:
               1
     1  Mg   0.930927
     2  C   -0.012763
     3  C   -0.078989
     4  C   -0.029335
     5  C   -0.054803
     6  N   -0.359399
     7  C   -0.011485
     8  C   -0.090555
     9  C   -0.100642
    10  C    0.079538
    11  C    0.033210
    12  C    0.011715
    13  C   -0.105617
    14  H    0.036997
    15  N   -0.446447
    16  C    0.131712
    17  C   -0.166320
    18  C   -0.071117
    19  C    0.121456
    20  C    0.092370
    21  C   -0.000380
    22  O   -0.245819
    23  C    0.011219
    24  N   -0.354163
    25  C    0.049268
    26  C   -0.068738
    27  C   -0.054148
    28  C    0.053335
    29  C    0.028688
    30  C   -0.008534
    31  C   -0.059242
    32  N   -0.368016
    33  C    0.038693
    34  C   -0.158352
    35  C   -0.038515
    36  C    0.117661
    37  C    0.062070
    38  C    0.094533
    39  O   -0.225510
    40  C   -0.017704
    41  C    0.221692
    42  O   -0.213126
    43  O   -0.366312
    44  C    0.140008
    45  H    0.005545
    46  H   -0.030718
    47  H   -0.000836
    48  H    0.038054
    49  H    0.034857
    50  H    0.032563
    51  H    0.046473
    52  H    0.039404
    53  H    0.042411
    54  H    0.036429
    55  H    0.066167
    56  H    0.053909
    57  H    0.070940
    58  H    0.039548
    59  H    0.017026
    60  H    0.051188
    61  H    0.064565
    62  H    0.052539
    63  H    0.048365
    64  H    0.037765
    65  H    0.035074
    66  H    0.041569
    67  H    0.037372
    68  H    0.042122
    69  H    0.039943
    70  H    0.042606
    71  H    0.031062
    72  H    0.032962
    73  H    0.065302
    74  H    0.051847
    75  H    0.065873
    76  H    0.061144
    77  H    0.047043
    78  H    0.052967
    79  H    0.057863
    80  Mg   0.974783
    81  C   -0.025728
    82  C   -0.091588
    83  C   -0.091619
    84  C   -0.077925
    85  N   -0.366192
    86  C   -0.005616
    87  C   -0.064759
    88  C   -0.111729
    89  C    0.088766
    90  C    0.051840
    91  C   -0.005874
    92  C   -0.129147
    93  H    0.031689
    94  N   -0.467342
    95  C    0.163097
    96  C   -0.170363
    97  C   -0.057513
    98  C    0.152294
    99  C    0.067052
   100  C    0.021898
   101  O   -0.243721
   102  C    0.002108
   103  N   -0.422310
   104  C    0.103885
   105  C   -0.088056
   106  C   -0.066209
   107  C    0.109824
   108  C    0.043060
   109  C    0.010355
   110  C   -0.067810
   111  N   -0.449840
   112  C    0.079213
   113  C   -0.151610
   114  C   -0.101629
   115  C    0.167047
   116  C    0.064835
   117  C    0.158603
   118  O   -0.236184
   119  C   -0.063432
   120  C    0.278968
   121  O   -0.287055
   122  O   -0.366157
   123  C    0.125223
   124  H   -0.007346
   125  H    0.021386
   126  H    0.001122
   127  H    0.052299
   128  H    0.035193
   129  H    0.045379
   130  H    0.022045
   131  H    0.047911
   132  H    0.034435
   133  H    0.058582
   134  H    0.052524
   135  H    0.054848
   136  H    0.061297
   137  H    0.044180
   138  H    0.066953
   139  H    0.027096
   140  H    0.066372
   141  H    0.059604
   142  H    0.041270
   143  H    0.013694
   144  H    0.035445
   145  H    0.048275
   146  H    0.036421
   147  H    0.034963
   148  H    0.029018
   149  H    0.028900
   150  H    0.034985
   151  H    0.040909
   152  H    0.061524
   153  H    0.026276
   154  H    0.055404
   155  H    0.079920
   156  H    0.066329
   157  H    0.061850
   158  H    0.075799
 Sum of Mulliken charges =  -0.00000

 Dipole moment (field-independent basis, Debye):
    X=             -5.3494    Y=              3.9961    Z=              2.5606  Tot=              7.1513
 Quadrupole moment (field-independent basis, Debye-Ang):
   XX=           -410.3255   YY=           -583.7327   ZZ=           -477.3355
   XY=             16.4681   XZ=             35.2581   YZ=             24.4047

 Normal termination of Gaussian 16 at Sat Sep 18 21:22:33 2021.
