 Gaussian 16, Revision A.03,
 Gaussian 16:  ES64L-G16RevA.03 25-Dec-2016

 --------------------------------
 #p wB97XD/Def2SVP td=(nstates=5)
 --------------------------------

 --------------------------------
 TDDFT excited states in gaussian
 --------------------------------
 Symbolic Z-matrix:
 Charge =  0 Multiplicity = 1

                         Standard orientation:
 ---------------------------------------------------------------------
 Center     Atomic      Atomic             Coordinates (Angstroms)
 Number     Number       Type             X           Y           Z
 ---------------------------------------------------------------------
      1         12           0       17.865463    0.018141    0.333699
      2          6           0       15.116360   -1.094188   -1.525449
      3          6           0       18.418821    2.249419   -2.250071
      4          6           0       20.289435    1.382865    2.178663
      5          6           0       16.637379   -1.685675    3.128195
      6          7           0       16.653488    0.636269   -1.675518
      7          6           0       15.650224   -0.060596   -2.242718
      8          6           0       15.211603    0.490407   -3.578245
      9          6           0       16.504926    1.348669   -3.852533
     10          6           0       17.248593    1.494016   -2.528837
     11          6           0       17.429077    0.608083   -4.855665
     12          6           0       13.839673    1.169351   -3.479151
     13          6           0       13.494992    2.026740   -2.243611
     14          1           0       12.908217    3.403794   -2.530491
     15          7           0       19.165111    1.566033    0.017943
     16          6           0       19.296393    2.261620   -1.154679
     17          6           0       20.614805    2.908419   -1.178397
     18          6           0       21.144157    2.815805    0.170702
     19          6           0       20.188178    1.877961    0.834768
     20          6           0       21.087752    3.839913   -2.359220
     21          6           0       22.384323    3.523388    0.722411
     22          8           0       23.113257    4.135817   -0.007207
     23          6           0       22.724093    3.415692    2.180983
     24          7           0       18.231179   -0.000090    2.476471
     25          6           0       19.397205    0.567489    3.022898
     26          6           0       19.575795    0.249080    4.567570
     27          6           0       18.392952   -0.805455    4.807219
     28          6           0       17.717909   -0.878259    3.361555
     29          6           0       21.000488   -0.236209    5.139020
     30          6           0       17.355242   -0.494258    5.979950
     31          6           0       16.846075   -1.858993    6.661313
     32          7           0       16.240234   -1.219093    0.775666
     33          6           0       15.930010   -1.906300    1.931564
     34          6           0       14.778422   -2.764875    1.682631
     35          6           0       14.416667   -2.570773    0.324540
     36          6           0       15.301453   -1.546103   -0.170784
     37          6           0       14.209125   -3.797145    2.620288
     38          6           0       13.462186   -2.861789   -0.794432
     39          8           0       12.446707   -3.521180   -0.804796
     40          6           0       13.948591   -1.951537   -2.000978
     41          6           0       14.329683   -2.885762   -3.116350
     42          8           0       13.500294   -3.470078   -3.857624
     43          8           0       15.707077   -2.875138   -3.281997
     44          6           0       16.189556   -3.535491   -4.448685
     45          1           0       18.650367    2.890740   -3.103136
     46          1           0       21.151812    1.600452    2.812597
     47          1           0       16.387293   -2.361315    3.948973
     48          1           0       15.208292   -0.278372   -4.350718
     49          1           0       16.374948    2.354646   -4.249247
     50          1           0       18.448123    0.864789   -4.565255
     51          1           0       17.153537    0.850821   -5.880976
     52          1           0       17.499243   -0.479189   -4.810894
     53          1           0       13.114878    0.356979   -3.435847
     54          1           0       13.688049    1.757453   -4.384354
     55          1           0       14.408205    2.213982   -1.679276
     56          1           0       12.739224    1.496194   -1.665158
     57          1           0       20.651050    4.838970   -2.363131
     58          1           0       20.875374    3.355260   -3.312226
     59          1           0       22.163485    3.983014   -2.454609
     60          1           0       23.535732    4.087727    2.461656
     61          1           0       23.001719    2.405849    2.483702
     62          1           0       21.830872    3.832845    2.646759
     63          1           0       19.322662    1.225696    4.978465
     64          1           0       18.790947   -1.801619    4.998339
     65          1           0       21.549171    0.658842    5.429838
     66          1           0       21.556539   -0.806262    4.395257
     67          1           0       20.823242   -0.896004    5.988593
     68          1           0       16.432584   -0.070140    5.583970
     69          1           0       17.777004    0.204416    6.702917
     70          1           0       15.768432   -1.975106    6.545259
     71          1           0       17.078671   -1.840290    7.725641
     72          1           0       17.180609   -2.811598    6.251990
     73          1           0       13.902146   -3.295184    3.537215
     74          1           0       14.977293   -4.530718    2.865946
     75          1           0       13.322141   -4.282944    2.213974
     76          1           0       13.038926   -1.450455   -2.331179
     77          1           0       17.265586   -3.382336   -4.527924
     78          1           0       15.614918   -3.250704   -5.330211
     79          1           0       16.135045   -4.620223   -4.356948
     80         12           0      -17.768249    0.516414    0.358342
     81          6           0      -14.697404   -0.622699   -0.679036
     82          6           0      -18.764024   -2.873215    0.780805
     83          6           0      -20.978597    1.440525    0.877338
     84          6           0      -16.934314    3.685116   -0.358959
     85          7           0      -16.823831   -1.519014    0.073286
     86          6           0      -15.543940   -1.694730   -0.379885
     87          6           0      -15.151719   -3.173823   -0.360264
     88          6           0      -16.569451   -3.853143   -0.072304
     89          6           0      -17.448862   -2.689589    0.281165
     90          6           0      -17.096681   -4.764275   -1.240878
     91          6           0      -14.066419   -3.534704    0.754037
     92          6           0      -12.893176   -4.445490    0.483183
     93          1           0      -13.142884   -5.730037   -0.224027
     94          7           0      -19.644637   -0.548010    0.829667
     95          6           0      -19.790383   -1.858069    1.126648
     96          6           0      -21.092486   -2.135869    1.633407
     97          6           0      -21.765912   -0.875788    1.706457
     98          6           0      -20.798788    0.055590    1.052589
     99          6           0      -21.462765   -3.556036    1.916320
    100          6           0      -23.202171   -0.586527    2.108225
    101          8           0      -23.752203    0.492380    1.866347
    102          6           0      -24.026820   -1.646977    2.816483
    103          7           0      -18.877508    2.319439    0.124613
    104          6           0      -20.166388    2.463819    0.530771
    105          6           0      -20.573443    3.936322    0.522399
    106          6           0      -19.193091    4.660508    0.290105
    107          6           0      -18.267532    3.493628    0.007455
    108          6           0      -21.735102    4.448299   -0.379610
    109          6           0      -18.701176    5.642956    1.433444
    110          6           0      -17.792883    5.142349    2.536505
    111          7           0      -16.217824    1.376855   -0.453058
    112          6           0      -15.893979    2.703664   -0.581824
    113          6           0      -14.615171    2.918637   -1.154242
    114          6           0      -14.074766    1.636598   -1.168697
    115          6           0      -15.077643    0.742729   -0.712818
    116          6           0      -13.852708    4.172177   -1.563176
    117          6           0      -12.959336    0.860558   -1.493831
    118          8           0      -11.908819    1.223445   -1.990294
    119          6           0      -13.281459   -0.714024   -1.218766
    120          6           0      -13.152612   -1.423989   -2.485336
    121          8           0      -13.873527   -1.264358   -3.490216
    122          8           0      -12.102667   -2.286794   -2.517475
    123          6           0      -11.665958   -2.823596   -3.811262
    124          1           0      -18.925712   -3.938772    0.954467
    125          1           0      -21.914829    1.798670    1.310053
    126          1           0      -16.514669    4.686802   -0.251658
    127          1           0      -14.680552   -3.416469   -1.313605
    128          1           0      -16.515384   -4.544412    0.768892
    129          1           0      -17.227983   -5.769480   -0.841818
    130          1           0      -16.358403   -4.645323   -2.034097
    131          1           0      -18.102003   -4.533672   -1.594674
    132          1           0      -14.696124   -3.988679    1.519404
    133          1           0      -13.742731   -2.641414    1.287183
    134          1           0      -12.323457   -4.601166    1.399281
    135          1           0      -12.270743   -3.907973   -0.231274
    136          1           0      -21.956307   -3.525503    2.887018
    137          1           0      -20.571274   -4.170451    2.044594
    138          1           0      -22.106311   -4.042895    1.182778
    139          1           0      -23.482987   -2.188375    3.591150
    140          1           0      -24.566725   -2.243472    2.079816
    141          1           0      -24.785410   -1.076497    3.353241
    142          1           0      -20.996323    4.077353    1.517308
    143          1           0      -19.226623    5.379769   -0.527348
    144          1           0      -21.341048    5.057399   -1.193005
    145          1           0      -22.360792    5.073265    0.257377
    146          1           0      -22.249034    3.554762   -0.732259
    147          1           0      -19.599558    6.039751    1.904310
    148          1           0      -18.162327    6.481209    0.991193
    149          1           0      -18.185005    5.382175    3.525131
    150          1           0      -16.774913    5.529147    2.473310
    151          1           0      -17.759487    4.061656    2.398228
    152          1           0      -14.452320    5.049414   -1.317225
    153          1           0      -13.636943    4.126848   -2.630944
    154          1           0      -12.911781    4.197879   -1.014262
    155          1           0      -12.438338   -0.970618   -0.576700
    156          1           0      -10.627170   -3.153663   -3.827553
    157          1           0      -11.902049   -2.208871   -4.679349
    158          1           0      -12.179060   -3.781130   -3.901791
 ---------------------------------------------------------------------

 SCF Done:  E(RwB97XD) =  -4070.62897260     A.U. after   20 cycles

 Excitation energies and oscillator strengths:

 Excited State   1:      Singlet-A      1.6604 eV  746.72 nm  f=0.4313  <S**2>=0.000
     310 -> 316       -0.18407
     311 -> 313        0.68418
     310 <- 316       -0.11632
 This state for optimization and/or second-order correction.
 Total Energy, E(TD-HF/TD-DFT) =  -4070.56795431
 Copying the excited state density for this state as the 1-particle RhoCI density.

 Excited State   2:      Singlet-A      1.6941 eV  731.88 nm  f=0.3436  <S**2>=0.000
     309 -> 315        0.19917
     312 -> 314        0.67850
     309 <- 315        0.11859

 Excited State   3:      Singlet-A      2.1343 eV  580.90 nm  f=0.1709  <S**2>=0.000
     310 -> 313        0.66026
     311 -> 316        0.24158

 Excited State   4:      Singlet-A      2.1842 eV  567.65 nm  f=0.1015  <S**2>=0.000
     309 -> 314        0.63337
     312 -> 315       -0.30087

 Excited State   5:      Singlet-A      3.4420 eV  360.21 nm  f=0.0031  <S**2>=0.000
     306 -> 318       -0.17392
     307 -> 313        0.65197

 The electronic state is 1-A.
 Alpha  occ. eigenvalues --  -46.96724 -46.95396 -19.31232 -19.30208 -19.24970
 Alpha  occ. eigenvalues --  -19.24554 -19.24064 -19.23883 -19.23591 -19.23412
 Alpha  occ. eigenvalues --  -14.46830 -14.46659 -14.46394 -14.46068 -14.45120
 Alpha  occ. eigenvalues --  -14.44111 -14.44036 -14.44030 -10.43833 -10.42712
 Alpha  occ. eigenvalues --  -10.39792 -10.39313 -10.39276 -10.38475 -10.36943
 Alpha  occ. eigenvalues --  -10.35938 -10.35690 -10.35282 -10.35167 -10.35029
 Alpha  occ. eigenvalues --  -10.34946 -10.34844 -10.34548 -10.34356 -10.34181
 Alpha  occ. eigenvalues --  -10.34098 -10.34074 -10.34067 -10.33947 -10.33838
 Alpha  occ. eigenvalues --  -10.33787 -10.33545 -10.33236 -10.33010 -10.32940
 Alpha  occ. eigenvalues --  -10.32574 -10.32485 -10.32475 -10.32468 -10.32462
 Alpha  occ. eigenvalues --  -10.32460 -10.32430 -10.32256 -10.32153 -10.32128
 Alpha  occ. eigenvalues --  -10.32064 -10.32037 -10.32024 -10.31990 -10.31892
 Alpha  occ. eigenvalues --  -10.31803 -10.31730 -10.31723 -10.31617 -10.31549
 Alpha  occ. eigenvalues --  -10.31501 -10.31310 -10.30813 -10.30795 -10.30749
 Alpha  occ. eigenvalues --  -10.30599 -10.30312 -10.30267 -10.30235 -10.30140
 Alpha  occ. eigenvalues --  -10.30108 -10.30106 -10.30106 -10.30020 -10.29918
 Alpha  occ. eigenvalues --  -10.29872 -10.29773 -10.29523 -10.29191 -10.28795
 Alpha  occ. eigenvalues --  -10.28587  -3.22570  -3.21447  -1.96113  -1.95703
 Alpha  occ. eigenvalues --   -1.95519  -1.95019  -1.94533  -1.94462  -1.18613
 Alpha  occ. eigenvalues --   -1.17958  -1.13739  -1.12868  -1.12065  -1.11648
 Alpha  occ. eigenvalues --   -1.09232  -1.07956  -1.07348  -1.06782  -1.06644
 Alpha  occ. eigenvalues --   -1.06111  -1.05948  -1.05455  -1.04938  -1.03893
 Alpha  occ. eigenvalues --   -0.94531  -0.94451  -0.90900  -0.90877  -0.90284
 Alpha  occ. eigenvalues --   -0.90059  -0.90004  -0.89671  -0.89578  -0.89319
 Alpha  occ. eigenvalues --   -0.89250  -0.88318  -0.87966  -0.87656  -0.86746
 Alpha  occ. eigenvalues --   -0.86161  -0.85605  -0.85236  -0.84600  -0.84512
 Alpha  occ. eigenvalues --   -0.83794  -0.83725  -0.83055  -0.82738  -0.82329
 Alpha  occ. eigenvalues --   -0.82227  -0.80305  -0.79483  -0.79352  -0.79209
 Alpha  occ. eigenvalues --   -0.78975  -0.78618  -0.78311  -0.78105  -0.77379
 Alpha  occ. eigenvalues --   -0.77267  -0.75481  -0.74779  -0.74027  -0.73471
 Alpha  occ. eigenvalues --   -0.71847  -0.71500  -0.71321  -0.71159  -0.70208
 Alpha  occ. eigenvalues --   -0.70036  -0.69194  -0.69071  -0.67815  -0.67499
 Alpha  occ. eigenvalues --   -0.67055  -0.66839  -0.66827  -0.66676  -0.66606
 Alpha  occ. eigenvalues --   -0.66151  -0.65679  -0.64172  -0.62153  -0.62067
 Alpha  occ. eigenvalues --   -0.61749  -0.61255  -0.61008  -0.60927  -0.60214
 Alpha  occ. eigenvalues --   -0.60142  -0.59822  -0.59700  -0.59322  -0.59228
 Alpha  occ. eigenvalues --   -0.58254  -0.58186  -0.58007  -0.57463  -0.57269
 Alpha  occ. eigenvalues --   -0.56988  -0.56947  -0.56725  -0.56197  -0.55927
 Alpha  occ. eigenvalues --   -0.55638  -0.55170  -0.55125  -0.55035  -0.55007
 Alpha  occ. eigenvalues --   -0.54748  -0.54693  -0.54436  -0.54118  -0.53959
 Alpha  occ. eigenvalues --   -0.53832  -0.53610  -0.53342  -0.53341  -0.53016
 Alpha  occ. eigenvalues --   -0.52633  -0.52629  -0.52477  -0.52467  -0.52134
 Alpha  occ. eigenvalues --   -0.51996  -0.51894  -0.51748  -0.51666  -0.51486
 Alpha  occ. eigenvalues --   -0.51410  -0.51104  -0.50954  -0.50872  -0.50672
 Alpha  occ. eigenvalues --   -0.50622  -0.50584  -0.50442  -0.50285  -0.50116
 Alpha  occ. eigenvalues --   -0.49717  -0.49492  -0.49451  -0.49256  -0.49163
 Alpha  occ. eigenvalues --   -0.49040  -0.48871  -0.48746  -0.48617  -0.48368
 Alpha  occ. eigenvalues --   -0.48246  -0.48039  -0.47991  -0.47835  -0.47747
 Alpha  occ. eigenvalues --   -0.47611  -0.47435  -0.47235  -0.47178  -0.47102
 Alpha  occ. eigenvalues --   -0.46895  -0.46815  -0.46395  -0.46163  -0.45884
 Alpha  occ. eigenvalues --   -0.45808  -0.45794  -0.45777  -0.45586  -0.45505
 Alpha  occ. eigenvalues --   -0.45379  -0.45237  -0.45221  -0.45113  -0.44918
 Alpha  occ. eigenvalues --   -0.44870  -0.44685  -0.44230  -0.44155  -0.44125
 Alpha  occ. eigenvalues --   -0.43913  -0.43859  -0.43737  -0.43623  -0.43392
 Alpha  occ. eigenvalues --   -0.43170  -0.43114  -0.42975  -0.42439  -0.42244
 Alpha  occ. eigenvalues --   -0.41875  -0.41809  -0.41704  -0.41395  -0.40997
 Alpha  occ. eigenvalues --   -0.40836  -0.40360  -0.40096  -0.40066  -0.39338
 Alpha  occ. eigenvalues --   -0.39215  -0.39210  -0.38775  -0.38604  -0.38230
 Alpha  occ. eigenvalues --   -0.37987  -0.37606  -0.36660  -0.36494  -0.36388
 Alpha  occ. eigenvalues --   -0.35374  -0.35358  -0.35021  -0.33544  -0.33483
 Alpha  occ. eigenvalues --   -0.33214  -0.33198  -0.32976  -0.32913  -0.32803
 Alpha  occ. eigenvalues --   -0.32391  -0.32201  -0.31846  -0.25943  -0.25692
 Alpha  occ. eigenvalues --   -0.23220  -0.23201
 Alpha virt. eigenvalues --   -0.07407  -0.06974  -0.00163   0.00781   0.02197
 Alpha virt. eigenvalues --    0.02366   0.03939   0.04159   0.04613   0.04993
 Alpha virt. eigenvalues --    0.06674   0.06939   0.07914   0.08609   0.08670

 Mulliken charges:
               1
     1  Mg   0.954857
     2  C    0.126752
     3  C   -0.086931
     4  C   -0.102832
     5  C   -0.086838
     6  N   -0.280211
     7  C   -0.106113
     8  C    0.024669
     9  C   -0.115353
    10  C    0.019691
    11  C    0.017954
    12  C    0.021182
    13  C   -0.133200
    14  H    0.032818
    15  N   -0.458948
    16  C    0.175597
    17  C   -0.148343
    18  C   -0.099992
    19  C    0.211732
    20  C    0.047858
    21  C    0.038147
    22  O   -0.200610
    23  C   -0.012783
    24  N   -0.368067
    25  C    0.007550
    26  C   -0.062975
    27  C   -0.084160
    28  C    0.069838
    29  C    0.005024
    30  C   -0.009884
    31  C   -0.094071
    32  N   -0.439650
    33  C    0.138739
    34  C   -0.213457
    35  C   -0.016381
    36  C    0.078972
    37  C    0.071678
    38  C    0.139972
    39  O   -0.173414
    40  C   -0.211086
    41  C    0.295893
    42  O   -0.266892
    43  O   -0.352100
    44  C    0.141273
    45  H    0.007253
    46  H   -0.025120
    47  H   -0.020917
    48  H    0.029514
    49  H    0.028355
    50  H    0.024530
    51  H    0.050199
    52  H    0.027491
    53  H    0.036981
    54  H    0.046248
    55  H    0.070635
    56  H    0.060487
    57  H    0.063301
    58  H    0.025818
    59  H    0.056057
    60  H    0.046967
    61  H    0.080112
    62  H    0.053732
    63  H    0.053703
    64  H    0.040242
    65  H    0.049425
    66  H    0.047499
    67  H    0.050445
    68  H    0.049761
    69  H    0.043952
    70  H    0.038436
    71  H    0.044405
    72  H    0.040034
    73  H    0.037436
    74  H    0.051920
    75  H    0.058888
    76  H    0.085192
    77  H    0.049515
    78  H    0.055010
    79  H    0.046586
    80  Mg   0.974626
    81  C   -0.004203
    82  C   -0.064840
    83  C   -0.065539
    84  C   -0.074904
    85  N   -0.330595
    86  C    0.000534
    87  C   -0.084371
    88  C   -0.117812
    89  C    0.051457
    90  C    0.025258
    91  C    0.010879
    92  C   -0.102374
    93  H    0.032799
    94  N   -0.356517
    95  C    0.128839
    96  C   -0.163776
    97  C   -0.075619
    98  C    0.100130
    99  C    0.082258
   100  C    0.043322
   101  O   -0.246998
   102  C   -0.017124
   103  N   -0.351527
   104  C    0.050175
   105  C   -0.080549
   106  C   -0.041512
   107  C    0.061540
   108  C    0.035327
   109  C   -0.057989
   110  C   -0.043036
   111  N   -0.478607
   112  C    0.099409
   113  C   -0.189110
   114  C    0.041046
   115  C    0.138010
   116  C    0.096928
   117  C    0.037813
   118  O   -0.207721
   119  C   -0.056010
   120  C    0.260208
   121  O   -0.281336
   122  O   -0.359694
   123  C    0.146628
   124  H   -0.010895
   125  H    0.017211
   126  H   -0.000427
   127  H    0.049094
   128  H    0.042625
   129  H    0.031643
   130  H    0.050481
   131  H    0.040519
   132  H    0.012341
   133  H    0.032283
   134  H    0.056080
   135  H    0.054422
   136  H    0.030550
   137  H    0.036813
   138  H    0.063507
   139  H    0.053819
   140  H    0.071471
   141  H    0.050346
   142  H    0.036286
   143  H    0.036852
   144  H    0.036488
   145  H    0.040271
   146  H    0.051414
   147  H    0.029626
   148  H    0.029325
   149  H    0.038393
   150  H    0.037305
   151  H    0.035938
   152  H    0.026346
   153  H    0.066873
   154  H    0.061047
   155  H    0.060816
   156  H    0.053634
   157  H    0.075467
   158  H    0.036615
 Sum of Mulliken charges =  -0.00000

 Dipole moment (field-independent basis, Debye):
    X=              3.9659    Y=             -1.7724    Z=              6.3588  Tot=              7.7009
 Quadrupole moment (field-independent basis, Debye-Ang):
   XX=           -385.5144   YY=           -490.9329   ZZ=           -474.2369
   XY=             10.5504   XZ=            -21.3258   YZ=             -8.0886

 Normal termination of Gaussian 16 at Sun Sep 19 21:28:30 2021.
