 Gaussian 16, Revision A.03,
 Gaussian 16:  ES64L-G16RevA.03 25-Dec-2016

 --------------------------------
 #p wB97XD/Def2SVP td=(nstates=5)
 --------------------------------

 --------------------------------
 TDDFT excited states in gaussian
 --------------------------------
 Symbolic Z-matrix:
 Charge =  0 Multiplicity = 1

                         Standard orientation:
 ---------------------------------------------------------------------
 Center     Atomic      Atomic             Coordinates (Angstroms)
 Number     Number       Type             X           Y           Z
 ---------------------------------------------------------------------
      1         12           0       20.593614    0.643524   -0.302851
      2          6           0       20.909803   -2.722818    0.423316
      3          6           0       17.513688    0.650810    1.459766
      4          6           0       20.479451    4.064154   -0.471437
      5          6           0       23.796964    0.728038   -1.591424
      6          7           0       19.333510   -0.917066    0.683567
      7          6           0       19.734130   -2.211403    0.940397
      8          6           0       18.782362   -2.991414    1.922925
      9          6           0       17.500732   -2.031427    1.919631
     10          6           0       18.081286   -0.651256    1.278720
     11          6           0       16.183695   -2.506146    1.195437
     12          6           0       19.322980   -3.209036    3.292335
     13          6           0       19.534324   -4.611456    3.829676
     14          1           0       19.423812   -4.773377    5.354250
     15          7           0       19.129195    2.152047    0.322395
     16          6           0       17.916693    1.881674    0.984301
     17          6           0       17.174352    3.092273    1.137985
     18          6           0       18.115222    4.159872    0.708199
     19          6           0       19.337296    3.495734    0.158078
     20          6           0       15.834877    3.191698    1.875310
     21          6           0       17.747860    5.648505    0.836640
     22          8           0       16.716284    6.122057    1.304320
     23          6           0       18.852798    6.632202    0.679290
     24          7           0       22.072406    2.272725   -0.801553
     25          6           0       21.674013    3.543507   -0.950008
     26          6           0       22.939041    4.372197   -1.168458
     27          6           0       24.059081    3.329315   -1.634633
     28          6           0       23.266492    1.974643   -1.357931
     29          6           0       22.700365    5.402571   -2.328515
     30          6           0       25.481990    3.337612   -0.939077
     31          6           0       26.726556    3.714945   -1.728567
     32          7           0       22.080103   -0.750249   -0.627587
     33          6           0       23.344217   -0.587186   -1.202828
     34          6           0       24.056977   -1.827679   -1.173289
     35          6           0       23.155707   -2.734291   -0.534277
     36          6           0       21.940525   -1.987199   -0.277676
     37          6           0       25.439236   -2.121124   -1.665203
     38          6           0       22.926186   -4.056962   -0.120680
     39          8           0       23.675520   -5.008942   -0.209197
     40          6           0       21.515230   -4.097754    0.584334
     41          6           0       20.783366   -5.278796    0.100417
     42          8           0       20.631913   -6.296358    0.766944
     43          8           0       20.335457   -5.066092   -1.194817
     44          6           0       19.626722   -6.235479   -1.761603
     45          1           0       16.539843    0.767951    1.938823
     46          1           0       20.322094    5.141230   -0.563131
     47          1           0       24.822156    0.783872   -1.963000
     48          1           0       18.517435   -3.952095    1.482699
     49          1           0       17.296437   -1.788149    2.962929
     50          1           0       16.297806   -3.570866    0.992086
     51          1           0       15.953202   -1.970505    0.274439
     52          1           0       15.357566   -2.298592    1.874511
     53          1           0       18.596084   -2.774801    3.980401
     54          1           0       20.301916   -2.739757    3.384038
     55          1           0       20.560663   -4.899779    3.604403
     56          1           0       18.819324   -5.335644    3.439922
     57          1           0       15.396832    2.328254    2.375493
     58          1           0       15.187216    3.613343    1.107037
     59          1           0       15.972749    4.059703    2.519235
     60          1           0       19.079738    7.035392   -0.306710
     61          1           0       19.770986    6.302191    1.165452
     62          1           0       18.534435    7.525306    1.218266
     63          1           0       23.257243    4.904145   -0.271575
     64          1           0       24.166122    3.353409   -2.718533
     65          1           0       23.022218    6.374605   -1.954830
     66          1           0       21.675958    5.466126   -2.697630
     67          1           0       23.266617    5.172360   -3.231284
     68          1           0       25.587282    2.324466   -0.551699
     69          1           0       25.408351    4.095226   -0.157652
     70          1           0       27.551687    3.240314   -1.196947
     71          1           0       26.870627    4.793728   -1.664893
     72          1           0       26.828071    3.405595   -2.768270
     73          1           0       25.607881   -3.179475   -1.464610
     74          1           0       26.117466   -1.450208   -1.138841
     75          1           0       25.591680   -1.979567   -2.735319
     76          1           0       21.760049   -4.274628    1.632199
     77          1           0       20.333356   -6.891221   -2.270188
     78          1           0       18.828971   -5.827017   -2.381930
     79          1           0       19.103568   -6.804014   -0.993247
     80         12           0      -21.353146    0.205993   -0.307679
     81          6           0      -18.167901   -1.302981   -0.290319
     82          6           0      -22.644591   -2.864339    0.079458
     83          6           0      -24.190885    1.755419    0.168904
     84          6           0      -19.630901    3.322516   -0.004983
     85          7           0      -20.473527   -1.837294   -0.082947
     86          6           0      -19.189937   -2.257770   -0.179583
     87          6           0      -19.035094   -3.763045   -0.101046
     88          6           0      -20.545380   -4.203608   -0.261883
     89          6           0      -21.317048   -2.914650   -0.068641
     90          6           0      -20.894518   -4.898813   -1.642149
     91          6           0      -18.341386   -4.471338    1.143132
     92          6           0      -18.105029   -3.716969    2.478488
     93          1           0      -18.190822   -4.541788    3.816801
     94          7           0      -23.211519   -0.534499   -0.055579
     95          6           0      -23.545354   -1.794769    0.187916
     96          6           0      -24.999047   -1.856576    0.501163
     97          6           0      -25.489605   -0.456808    0.355713
     98          6           0      -24.264768    0.318997    0.158658
     99          6           0      -25.766886   -3.137016    0.690350
    100          6           0      -26.914412   -0.000464    0.530967
    101          8           0      -27.782291   -0.844862    0.738544
    102          6           0      -27.399458    1.496147    0.535504
    103          7           0      -21.866960    2.318677    0.158875
    104          6           0      -23.124317    2.595743    0.121323
    105          6           0      -23.264577    4.181962    0.179397
    106          6           0      -21.802387    4.590605    0.369624
    107          6           0      -21.011481    3.310633    0.179721
    108          6           0      -23.965463    4.914920   -0.976588
    109          6           0      -21.456875    5.083336    1.869140
    110          6           0      -21.080039    6.567054    2.034158
    111          7           0      -19.364643    0.927408   -0.108413
    112          6           0      -18.816331    2.182681   -0.121351
    113          6           0      -17.349120    2.111088   -0.345448
    114          6           0      -17.007500    0.730041   -0.293426
    115          6           0      -18.317011    0.081275   -0.258586
    116          6           0      -16.352419    3.290978   -0.384989
    117          6           0      -15.978500   -0.255393   -0.310856
    118          8           0      -14.738115   -0.216328   -0.241309
    119          6           0      -16.686491   -1.632028   -0.387331
    120          6           0      -16.201423   -2.308427   -1.672830
    121          8           0      -15.443187   -3.218273   -1.879920
    122          8           0      -16.976287   -1.816575   -2.728853
    123          6           0      -16.766207   -2.418177   -4.082290
    124          1           0      -23.036678   -3.874887    0.213233
    125          1           0      -25.169177    2.226707    0.290711
    126          1           0      -19.145344    4.285446   -0.174493
    127          1           0      -18.515710   -4.032247   -1.020581
    128          1           0      -20.789105   -4.936163    0.507712
    129          1           0      -20.026888   -4.913977   -2.300909
    130          1           0      -21.568825   -4.167338   -2.086172
    131          1           0      -21.326731   -5.882623   -1.458443
    132          1           0      -17.382578   -4.851676    0.790569
    133          1           0      -18.902121   -5.373354    1.390505
    134          1           0      -18.863743   -2.934980    2.510080
    135          1           0      -17.086357   -3.350984    2.603062
    136          1           0      -26.847255   -3.002110    0.642760
    137          1           0      -25.379080   -3.593483    1.601805
    138          1           0      -25.382856   -3.784141   -0.098915
    139          1           0      -27.142250    2.174428   -0.278930
    140          1           0      -26.952791    1.990579    1.398138
    141          1           0      -28.484789    1.574536    0.591940
    142          1           0      -23.879237    4.496232    1.022242
    143          1           0      -21.392910    5.387390   -0.252290
    144          1           0      -24.328309    4.222010   -1.735913
    145          1           0      -23.325403    5.681137   -1.415291
    146          1           0      -24.869345    5.442330   -0.671719
    147          1           0      -20.610540    4.539982    2.287127
    148          1           0      -22.342205    4.850661    2.461274
    149          1           0      -20.355810    6.783367    2.819917
    150          1           0      -22.003956    7.062753    2.331956
    151          1           0      -20.683188    6.833184    1.054396
    152          1           0      -16.746994    4.240962   -0.026003
    153          1           0      -16.105525    3.389847   -1.441761
    154          1           0      -15.439396    2.980214    0.122264
    155          1           0      -16.397211   -2.234345    0.473216
    156          1           0      -15.776391   -2.796536   -4.336708
    157          1           0      -16.931413   -1.576059   -4.754072
    158          1           0      -17.467686   -3.177349   -4.428844
 ---------------------------------------------------------------------

 SCF Done:  E(RwB97XD) =  -4070.57698104     A.U. after   20 cycles

 Excitation energies and oscillator strengths:

 Excited State   1:      Singlet-A      1.6654 eV  744.46 nm  f=0.3884  <S**2>=0.000
     309 -> 315        0.17860
     311 -> 313        0.68422
     309 <- 315        0.11346
 This state for optimization and/or second-order correction.
 Total Energy, E(TD-HF/TD-DFT) =  -4070.51577765
 Copying the excited state density for this state as the 1-particle RhoCI density.

 Excited State   2:      Singlet-A      1.7163 eV  722.41 nm  f=0.4006  <S**2>=0.000
     310 -> 316       -0.19062
     312 -> 314        0.68119
     310 <- 316       -0.11530

 Excited State   3:      Singlet-A      2.1184 eV  585.28 nm  f=0.1549  <S**2>=0.000
     309 -> 313        0.64907
     311 -> 315       -0.25654

 Excited State   4:      Singlet-A      2.2310 eV  555.73 nm  f=0.0955  <S**2>=0.000
     310 -> 314        0.63455
     312 -> 316        0.29973

 Excited State   5:      Singlet-A      3.0629 eV  404.80 nm  f=0.0076  <S**2>=0.000
     307 -> 313        0.68067

 The electronic state is 1-A.
 Alpha  occ. eigenvalues --  -46.96813 -46.96432 -19.30325 -19.29893 -19.25415
 Alpha  occ. eigenvalues --  -19.24756 -19.24627 -19.24187 -19.23597 -19.23281
 Alpha  occ. eigenvalues --  -14.48145 -14.46933 -14.46548 -14.46394 -14.45084
 Alpha  occ. eigenvalues --  -14.44737 -14.44695 -14.44406 -10.43803 -10.42960
 Alpha  occ. eigenvalues --  -10.39797 -10.39571 -10.39295 -10.38136 -10.37265
 Alpha  occ. eigenvalues --  -10.36218 -10.35746 -10.35673 -10.35669 -10.35595
 Alpha  occ. eigenvalues --  -10.35219 -10.35163 -10.35143 -10.34780 -10.34778
 Alpha  occ. eigenvalues --  -10.34710 -10.34543 -10.34444 -10.34194 -10.34089
 Alpha  occ. eigenvalues --  -10.34089 -10.34076 -10.33841 -10.33514 -10.33393
 Alpha  occ. eigenvalues --  -10.33086 -10.33016 -10.32895 -10.32881 -10.32760
 Alpha  occ. eigenvalues --  -10.32736 -10.32725 -10.32564 -10.32330 -10.32318
 Alpha  occ. eigenvalues --  -10.32295 -10.32207 -10.32084 -10.31980 -10.31959
 Alpha  occ. eigenvalues --  -10.31904 -10.31701 -10.31545 -10.31530 -10.31443
 Alpha  occ. eigenvalues --  -10.31335 -10.31315 -10.31142 -10.31141 -10.30991
 Alpha  occ. eigenvalues --  -10.30953 -10.30851 -10.30829 -10.30469 -10.30437
 Alpha  occ. eigenvalues --  -10.30360 -10.30341 -10.30152 -10.30060 -10.30035
 Alpha  occ. eigenvalues --  -10.29874 -10.29701 -10.29623 -10.29326 -10.29273
 Alpha  occ. eigenvalues --  -10.28885  -3.22508  -3.22361  -1.96118  -1.95937
 Alpha  occ. eigenvalues --   -1.95599  -1.95482  -1.95470  -1.95329  -1.18277
 Alpha  occ. eigenvalues --   -1.17676  -1.12325  -1.11942  -1.11759  -1.11655
 Alpha  occ. eigenvalues --   -1.09664  -1.09550  -1.08757  -1.06862  -1.06789
 Alpha  occ. eigenvalues --   -1.06079  -1.06051  -1.05348  -1.04629  -1.03801
 Alpha  occ. eigenvalues --   -0.95637  -0.94530  -0.91748  -0.91463  -0.91243
 Alpha  occ. eigenvalues --   -0.90747  -0.90499  -0.90224  -0.90039  -0.89643
 Alpha  occ. eigenvalues --   -0.89073  -0.88922  -0.87828  -0.87340  -0.86854
 Alpha  occ. eigenvalues --   -0.86433  -0.85852  -0.85717  -0.84813  -0.84803
 Alpha  occ. eigenvalues --   -0.84170  -0.83730  -0.82820  -0.82797  -0.82717
 Alpha  occ. eigenvalues --   -0.82493  -0.80494  -0.79777  -0.79662  -0.79130
 Alpha  occ. eigenvalues --   -0.78966  -0.78929  -0.78640  -0.78135  -0.77453
 Alpha  occ. eigenvalues --   -0.77329  -0.75488  -0.75356  -0.74400  -0.74278
 Alpha  occ. eigenvalues --   -0.71623  -0.71333  -0.71219  -0.70962  -0.70617
 Alpha  occ. eigenvalues --   -0.69980  -0.69525  -0.69087  -0.68800  -0.67665
 Alpha  occ. eigenvalues --   -0.67535  -0.67528  -0.67445  -0.67276  -0.66900
 Alpha  occ. eigenvalues --   -0.66772  -0.65208  -0.64970  -0.62613  -0.62294
 Alpha  occ. eigenvalues --   -0.62231  -0.61720  -0.61469  -0.61445  -0.61060
 Alpha  occ. eigenvalues --   -0.60555  -0.60111  -0.59788  -0.59279  -0.58893
 Alpha  occ. eigenvalues --   -0.58545  -0.58370  -0.57920  -0.57885  -0.57674
 Alpha  occ. eigenvalues --   -0.57396  -0.57053  -0.56682  -0.56533  -0.55934
 Alpha  occ. eigenvalues --   -0.55762  -0.55612  -0.55484  -0.55164  -0.54920
 Alpha  occ. eigenvalues --   -0.54792  -0.54738  -0.54687  -0.54385  -0.54032
 Alpha  occ. eigenvalues --   -0.53987  -0.53834  -0.53686  -0.53553  -0.53253
 Alpha  occ. eigenvalues --   -0.53240  -0.53045  -0.52829  -0.52547  -0.52341
 Alpha  occ. eigenvalues --   -0.52143  -0.51977  -0.51769  -0.51700  -0.51481
 Alpha  occ. eigenvalues --   -0.51435  -0.51168  -0.51013  -0.50832  -0.50821
 Alpha  occ. eigenvalues --   -0.50547  -0.50494  -0.50473  -0.50258  -0.50209
 Alpha  occ. eigenvalues --   -0.49822  -0.49818  -0.49777  -0.49550  -0.49393
 Alpha  occ. eigenvalues --   -0.49227  -0.49134  -0.48953  -0.48896  -0.48601
 Alpha  occ. eigenvalues --   -0.48599  -0.48504  -0.48253  -0.48076  -0.48069
 Alpha  occ. eigenvalues --   -0.47912  -0.47818  -0.47785  -0.47638  -0.47512
 Alpha  occ. eigenvalues --   -0.47316  -0.47197  -0.47084  -0.46805  -0.46639
 Alpha  occ. eigenvalues --   -0.46487  -0.46141  -0.46059  -0.45930  -0.45647
 Alpha  occ. eigenvalues --   -0.45556  -0.45540  -0.45277  -0.45107  -0.44963
 Alpha  occ. eigenvalues --   -0.44733  -0.44600  -0.44330  -0.44278  -0.44144
 Alpha  occ. eigenvalues --   -0.44064  -0.44020  -0.43579  -0.43419  -0.43384
 Alpha  occ. eigenvalues --   -0.43231  -0.43131  -0.42872  -0.42616  -0.42325
 Alpha  occ. eigenvalues --   -0.41900  -0.41878  -0.41615  -0.41359  -0.41165
 Alpha  occ. eigenvalues --   -0.40783  -0.40251  -0.40153  -0.39928  -0.39743
 Alpha  occ. eigenvalues --   -0.39398  -0.39188  -0.38912  -0.38776  -0.38741
 Alpha  occ. eigenvalues --   -0.38296  -0.37825  -0.37086  -0.36508  -0.36317
 Alpha  occ. eigenvalues --   -0.36280  -0.35884  -0.35463  -0.34114  -0.33989
 Alpha  occ. eigenvalues --   -0.33510  -0.33292  -0.33199  -0.32888  -0.32462
 Alpha  occ. eigenvalues --   -0.32286  -0.31831  -0.31443  -0.26533  -0.26442
 Alpha  occ. eigenvalues --   -0.23965  -0.23365
 Alpha virt. eigenvalues --   -0.08080  -0.07284  -0.00408  -0.00148   0.01394
 Alpha virt. eigenvalues --    0.02073   0.03831   0.04338   0.04499   0.05484
 Alpha virt. eigenvalues --    0.06791   0.07068   0.07169   0.07440   0.07949

 Mulliken charges:
               1
     1  Mg   0.930308
     2  C    0.060788
     3  C   -0.053468
     4  C   -0.067797
     5  C   -0.064610
     6  N   -0.367806
     7  C   -0.017646
     8  C   -0.066694
     9  C   -0.122780
    10  C    0.087813
    11  C    0.030130
    12  C    0.037082
    13  C   -0.149330
    14  H    0.025286
    15  N   -0.454699
    16  C    0.135247
    17  C   -0.149511
    18  C   -0.136785
    19  C    0.177491
    20  C    0.084200
    21  C    0.092234
    22  O   -0.239771
    23  C   -0.062579
    24  N   -0.335591
    25  C    0.120502
    26  C   -0.138866
    27  C   -0.048745
    28  C    0.022593
    29  C    0.006364
    30  C   -0.011629
    31  C   -0.052417
    32  N   -0.425313
    33  C    0.118119
    34  C   -0.169415
    35  C   -0.018279
    36  C    0.076918
    37  C    0.078418
    38  C    0.069238
    39  O   -0.202394
    40  C   -0.060275
    41  C    0.246557
    42  O   -0.245774
    43  O   -0.384170
    44  C    0.134991
    45  H   -0.012683
    46  H   -0.019763
    47  H   -0.002648
    48  H    0.034913
    49  H    0.040625
    50  H    0.043313
    51  H    0.048408
    52  H    0.043077
    53  H    0.039690
    54  H    0.043285
    55  H    0.068868
    56  H    0.059017
    57  H    0.056978
    58  H    0.057866
    59  H    0.063757
    60  H    0.068450
    61  H    0.055824
    62  H    0.048617
    63  H    0.055206
    64  H    0.030138
    65  H    0.036190
    66  H    0.039806
    67  H    0.031057
    68  H    0.041415
    69  H    0.028810
    70  H    0.036977
    71  H    0.037536
    72  H    0.038376
    73  H    0.062998
    74  H    0.045508
    75  H    0.046913
    76  H    0.066598
    77  H    0.069694
    78  H    0.052498
    79  H    0.054747
    80  Mg   0.957864
    81  C   -0.036476
    82  C   -0.091638
    83  C   -0.036391
    84  C   -0.103667
    85  N   -0.341124
    86  C   -0.037837
    87  C    0.005287
    88  C   -0.158285
    89  C    0.057841
    90  C    0.033633
    91  C    0.002361
    92  C   -0.149919
    93  H    0.026856
    94  N   -0.476192
    95  C    0.164596
    96  C   -0.173355
    97  C   -0.081324
    98  C    0.167478
    99  C    0.085871
   100  C    0.055529
   101  O   -0.240333
   102  C   -0.027091
   103  N   -0.273881
   104  C    0.045667
   105  C   -0.055721
   106  C   -0.126036
   107  C    0.077505
   108  C    0.014291
   109  C   -0.041891
   110  C   -0.039889
   111  N   -0.402099
   112  C    0.126896
   113  C   -0.186158
   114  C   -0.008870
   115  C    0.160963
   116  C    0.075220
   117  C    0.093761
   118  O   -0.218133
   119  C   -0.083291
   120  C    0.279629
   121  O   -0.209553
   122  O   -0.398016
   123  C    0.134868
   124  H   -0.010891
   125  H   -0.053779
   126  H    0.002638
   127  H    0.040916
   128  H    0.037052
   129  H    0.035414
   130  H    0.038116
   131  H    0.054861
   132  H    0.045314
   133  H    0.044644
   134  H    0.072953
   135  H    0.074326
   136  H    0.077716
   137  H    0.041055
   138  H    0.036944
   139  H    0.056538
   140  H    0.057167
   141  H    0.052423
   142  H    0.035512
   143  H    0.023173
   144  H    0.033242
   145  H    0.036005
   146  H    0.027127
   147  H    0.043327
   148  H    0.025252
   149  H    0.043763
   150  H    0.037822
   151  H    0.028133
   152  H    0.042833
   153  H    0.054942
   154  H    0.069739
   155  H    0.068800
   156  H    0.065902
   157  H    0.044850
   158  H    0.047225
 Sum of Mulliken charges =  -0.00000

 Dipole moment (field-independent basis, Debye):
    X=             -2.6687    Y=              6.8736    Z=             -4.2413  Tot=              8.5063
 Quadrupole moment (field-independent basis, Debye-Ang):
   XX=           -517.6492   YY=           -512.2052   ZZ=           -498.0764
   XY=             53.5480   XZ=             -1.9214   YZ=              3.7531

 Normal termination of Gaussian 16 at Mon Sep 20 07:18:52 2021.
