 Gaussian 16, Revision A.03,
 Gaussian 16:  ES64L-G16RevA.03 25-Dec-2016

 --------------------------------
 #p wB97XD/Def2SVP td=(nstates=5)
 --------------------------------

 --------------------------------
 TDDFT excited states in gaussian
 --------------------------------
 Symbolic Z-matrix:
 Charge =  0 Multiplicity = 1

                         Standard orientation:
 ---------------------------------------------------------------------
 Center     Atomic      Atomic             Coordinates (Angstroms)
 Number     Number       Type             X           Y           Z
 ---------------------------------------------------------------------
      1         12           0       -9.037059   -1.203552    0.386645
      2          6           0      -10.433839    1.969224   -0.077506
      3          6           0       -7.936551   -0.051510    3.468800
      4          6           0       -7.375354   -3.985670    0.650893
      5          6           0      -10.083039   -2.038299   -2.892501
      6          7           0       -8.827072    0.910664    1.414680
      7          6           0       -9.606795    1.948726    1.095491
      8          6           0       -9.445529    2.982276    2.159643
      9          6           0       -8.291357    2.464439    3.052561
     10          6           0       -8.347702    0.999878    2.665658
     11          6           0       -6.893731    3.071906    2.919944
     12          6           0      -10.761356    3.191222    2.974383
     13          6           0      -11.288469    4.644639    3.203102
     14          1           0      -10.266499    5.821639    3.278246
     15          7           0       -7.918206   -1.996074    1.956306
     16          6           0       -7.762872   -1.404344    3.202856
     17          6           0       -7.056542   -2.343293    4.012208
     18          6           0       -6.750172   -3.485857    3.169458
     19          6           0       -7.347286   -3.221178    1.868964
     20          6           0       -6.602178   -2.082862    5.465077
     21          6           0       -5.901169   -4.752484    3.478287
     22          8           0       -5.693526   -5.630452    2.702096
     23          6           0       -5.373751   -4.868655    4.894874
     24          7           0       -8.802778   -2.760157   -0.944074
     25          6           0       -7.995041   -3.792684   -0.614182
     26          6           0       -7.890482   -4.887062   -1.711897
     27          6           0       -8.989900   -4.357220   -2.729478
     28          6           0       -9.356860   -2.985274   -2.176356
     29          6           0       -6.362580   -4.981179   -2.289208
     30          6           0      -10.161734   -5.360751   -2.967248
     31          6           0      -11.447273   -5.148627   -2.187926
     32          7           0      -10.094929   -0.292450   -1.219044
     33          6           0      -10.510971   -0.780932   -2.428114
     34          6           0      -11.305973    0.294464   -3.118634
     35          6           0      -11.289286    1.379597   -2.213416
     36          6           0      -10.504654    1.011905   -1.070541
     37          6           0      -11.828541    0.292202   -4.529561
     38          6           0      -11.738682    2.752240   -1.994430
     39          8           0      -12.405091    3.462996   -2.752255
     40          6           0      -11.338114    3.092884   -0.562103
     41          6           0      -10.631112    4.415578   -0.641454
     42          8           0       -9.482598    4.575991   -1.011854
     43          8           0      -11.558102    5.333153   -0.420602
     44          6           0      -11.282932    6.701509   -0.829768
     45          1           0       -7.467451    0.346955    4.370293
     46          1           0       -6.979409   -4.993762    0.788033
     47          1           0      -10.418081   -2.302642   -3.897959
     48          1           0       -9.194854    3.931182    1.686533
     49          1           0       -8.584632    2.686374    4.078721
     50          1           0       -6.788071    3.894314    2.212203
     51          1           0       -6.173225    2.302189    2.641938
     52          1           0       -6.631341    3.439019    3.911908
     53          1           0      -10.769759    2.666241    3.929365
     54          1           0      -11.450182    2.649352    2.326459
     55          1           0      -11.805630    4.576164    4.160990
     56          1           0      -12.007759    4.879622    2.418975
     57          1           0       -5.537710   -2.257896    5.621500
     58          1           0       -7.045803   -2.786350    6.169806
     59          1           0       -6.842134   -1.087805    5.842081
     60          1           0       -6.150538   -4.733667    5.647808
     61          1           0       -4.551942   -4.161116    5.005664
     62          1           0       -4.848752   -5.814705    5.026904
     63          1           0       -8.154647   -5.877464   -1.341598
     64          1           0       -8.606841   -4.226189   -3.741406
     65          1           0       -6.427100   -4.553924   -3.289994
     66          1           0       -6.030624   -6.002799   -2.475462
     67          1           0       -5.644441   -4.361310   -1.751234
     68          1           0       -9.776991   -6.303404   -2.577794
     69          1           0      -10.388947   -5.495021   -4.024617
     70          1           0      -11.106509   -4.918726   -1.177673
     71          1           0      -11.915630   -6.127862   -2.284337
     72          1           0      -12.113299   -4.318905   -2.423325
     73          1           0      -11.567016   -0.540056   -5.183124
     74          1           0      -11.475130    1.186621   -5.042802
     75          1           0      -12.906092    0.419569   -4.430716
     76          1           0      -12.170509    3.325832    0.102233
     77          1           0      -10.377769    6.932781   -1.390367
     78          1           0      -11.155244    7.211515    0.125551
     79          1           0      -12.232906    7.182595   -1.062918
     80         12           0        9.398200   -0.513196   -0.122099
     81          6           0        7.811106    2.836071   -0.399698
     82          6           0       12.131226    1.226115    0.841893
     83          6           0       10.729769   -3.388704   -0.199568
     84          6           0        6.587118   -1.729834   -1.936355
     85          7           0        9.886475    1.755353    0.122353
     86          6           0        9.050362    2.858975    0.132576
     87          6           0        9.677439    4.129630    0.717584
     88          6           0       11.174842    3.694845    0.671846
     89          6           0       11.105533    2.124952    0.531694
     90          6           0       11.984438    4.310617   -0.425553
     91          6           0        9.148213    4.613668    2.109177
     92          6           0        9.167841    6.077596    2.397711
     93          1           0        9.507089    6.454374    3.836378
     94          7           0       11.223399   -1.057069    0.321224
     95          6           0       12.248579   -0.199966    0.773109
     96          6           0       13.351241   -1.019829    1.185210
     97          6           0       12.853602   -2.384681    1.017275
     98          6           0       11.589160   -2.290378    0.381570
     99          6           0       14.677737   -0.488047    1.843588
    100          6           0       13.577554   -3.626408    1.439560
    101          8           0       13.122656   -4.773459    1.209897
    102          6           0       14.852346   -3.605936    2.201193
    103          7           0        8.876793   -2.282400   -1.064478
    104          6           0        9.603387   -3.393992   -0.932673
    105          6           0        8.969243   -4.649972   -1.611966
    106          6           0        7.486159   -4.134835   -1.726254
    107          6           0        7.645805   -2.594013   -1.612619
    108          6           0        9.589469   -4.938929   -3.016823
    109          6           0        6.568135   -4.674664   -0.550446
    110          6           0        6.495071   -6.192436   -0.281325
    111          7           0        7.549351    0.329314   -0.960166
    112          6           0        6.505920   -0.330651   -1.599250
    113          6           0        5.491684    0.623171   -1.983003
    114          6           0        5.942527    1.858871   -1.501556
    115          6           0        7.241764    1.662817   -0.957934
    116          6           0        4.172698    0.323495   -2.612131
    117          6           0        5.593658    3.269209   -1.391393
    118          8           0        4.606767    3.926693   -1.694242
    119          6           0        6.826567    3.900907   -0.559353
    120          6           0        7.258855    5.059682   -1.321640
    121          8           0        7.727314    5.063254   -2.470906
    122          8           0        6.672679    6.162018   -0.768675
    123          6           0        6.880046    7.440814   -1.368793
    124          1           0       12.923025    1.834517    1.284286
    125          1           0       11.148607   -4.396043   -0.243441
    126          1           0        5.743315   -2.165114   -2.476494
    127          1           0        9.519747    4.927150   -0.008811
    128          1           0       11.644579    3.838580    1.644426
    129          1           0       12.153968    3.532245   -1.169555
    130          1           0       12.964696    4.594837   -0.043183
    131          1           0       11.556551    5.170268   -0.940944
    132          1           0        9.792987    4.163845    2.863639
    133          1           0        8.153487    4.189036    2.241806
    134          1           0        8.147645    6.392255    2.178881
    135          1           0        9.707310    6.646963    1.640688
    136          1           0       14.774820   -0.665035    2.914325
    137          1           0       14.840955    0.564574    1.613954
    138          1           0       15.428682   -1.052195    1.289095
    139          1           0       15.655895   -3.339623    1.514067
    140          1           0       14.987396   -4.622044    2.572849
    141          1           0       14.701094   -2.924241    3.037501
    142          1           0        9.138974   -5.477282   -0.922048
    143          1           0        6.985154   -4.343537   -2.671039
    144          1           0       10.138028   -5.876473   -2.922919
    145          1           0       10.208421   -4.146600   -3.436540
    146          1           0        8.693994   -5.095862   -3.619827
    147          1           0        5.535549   -4.403448   -0.768946
    148          1           0        6.847333   -4.103093    0.334507
    149          1           0        6.823127   -6.303915    0.752032
    150          1           0        7.244268   -6.615880   -0.950893
    151          1           0        5.487207   -6.591052   -0.396173
    152          1           0        4.064179   -0.756112   -2.505820
    153          1           0        4.270473    0.602980   -3.661106
    154          1           0        3.342008    0.895869   -2.199321
    155          1           0        6.483988    4.193870    0.432907
    156          1           0        7.547527    7.380867   -2.228713
    157          1           0        7.377721    8.034189   -0.601667
    158          1           0        5.934338    7.944098   -1.564794
 ---------------------------------------------------------------------

 SCF Done:  E(RwB97XD) =  -4070.60410019     A.U. after   18 cycles

 Excitation energies and oscillator strengths:

 Excited State   1:      Singlet-A      1.6009 eV  774.48 nm  f=0.4112  <S**2>=0.000
     309 -> 316       -0.16157
     311 -> 313        0.68913
     309 <- 316       -0.11292
 This state for optimization and/or second-order correction.
 Total Energy, E(TD-HF/TD-DFT) =  -4070.54526943
 Copying the excited state density for this state as the 1-particle RhoCI density.

 Excited State   2:      Singlet-A      1.6776 eV  739.05 nm  f=0.3763  <S**2>=0.000
     310 -> 315       -0.19169
     312 -> 314        0.68144
     310 <- 315       -0.11852

 Excited State   3:      Singlet-A      2.1247 eV  583.54 nm  f=0.1937  <S**2>=0.000
     309 -> 313        0.66468
     311 -> 316        0.22046

 Excited State   4:      Singlet-A      2.1601 eV  573.98 nm  f=0.1071  <S**2>=0.000
     310 -> 314        0.63954
     312 -> 315        0.28462

 Excited State   5:      Singlet-A      3.2576 eV  380.59 nm  f=0.0000  <S**2>=0.000
     312 -> 313        0.70687

 The electronic state is 1-A.
 Alpha  occ. eigenvalues --  -46.95169 -46.95095 -19.31452 -19.29993 -19.24921
 Alpha  occ. eigenvalues --  -19.24579 -19.24513 -19.24339 -19.23555 -19.22382
 Alpha  occ. eigenvalues --  -14.46867 -14.46327 -14.46148 -14.45934 -14.44207
 Alpha  occ. eigenvalues --  -14.44128 -14.43918 -14.43266 -10.42984 -10.42955
 Alpha  occ. eigenvalues --  -10.39980 -10.39520 -10.38381 -10.37864 -10.35762
 Alpha  occ. eigenvalues --  -10.35389 -10.35287 -10.35110 -10.34797 -10.34755
 Alpha  occ. eigenvalues --  -10.34724 -10.34723 -10.34715 -10.34618 -10.34407
 Alpha  occ. eigenvalues --  -10.34379 -10.33770 -10.33658 -10.33595 -10.33502
 Alpha  occ. eigenvalues --  -10.33439 -10.33316 -10.33135 -10.33054 -10.32879
 Alpha  occ. eigenvalues --  -10.32876 -10.32420 -10.32367 -10.32343 -10.32340
 Alpha  occ. eigenvalues --  -10.32200 -10.32104 -10.32102 -10.32088 -10.31993
 Alpha  occ. eigenvalues --  -10.31985 -10.31926 -10.31649 -10.31600 -10.31471
 Alpha  occ. eigenvalues --  -10.31344 -10.31142 -10.31078 -10.30991 -10.30947
 Alpha  occ. eigenvalues --  -10.30700 -10.30684 -10.30590 -10.30579 -10.30385
 Alpha  occ. eigenvalues --  -10.30310 -10.30251 -10.30230 -10.29985 -10.29914
 Alpha  occ. eigenvalues --  -10.29910 -10.29796 -10.29712 -10.29570 -10.29552
 Alpha  occ. eigenvalues --  -10.29506 -10.29335 -10.29325 -10.29142 -10.29040
 Alpha  occ. eigenvalues --  -10.28874  -3.21272  -3.21001  -1.94830  -1.94596
 Alpha  occ. eigenvalues --   -1.94394  -1.94258  -1.94158  -1.93930  -1.20509
 Alpha  occ. eigenvalues --   -1.18678  -1.13511  -1.12439  -1.11881  -1.10839
 Alpha  occ. eigenvalues --   -1.09575  -1.09167  -1.06985  -1.06858  -1.05989
 Alpha  occ. eigenvalues --   -1.05750  -1.05596  -1.04643  -1.04528  -1.03825
 Alpha  occ. eigenvalues --   -0.95645  -0.95368  -0.91364  -0.90603  -0.90566
 Alpha  occ. eigenvalues --   -0.90442  -0.89901  -0.89883  -0.89322  -0.88998
 Alpha  occ. eigenvalues --   -0.88716  -0.88199  -0.88111  -0.87403  -0.86577
 Alpha  occ. eigenvalues --   -0.86344  -0.85912  -0.85577  -0.84948  -0.84480
 Alpha  occ. eigenvalues --   -0.83950  -0.83312  -0.82966  -0.82721  -0.82680
 Alpha  occ. eigenvalues --   -0.81940  -0.80444  -0.79844  -0.79356  -0.79270
 Alpha  occ. eigenvalues --   -0.79144  -0.78873  -0.78198  -0.78107  -0.77314
 Alpha  occ. eigenvalues --   -0.77006  -0.75288  -0.74659  -0.73659  -0.72832
 Alpha  occ. eigenvalues --   -0.71438  -0.71143  -0.70854  -0.70525  -0.70118
 Alpha  occ. eigenvalues --   -0.69959  -0.68852  -0.68036  -0.67596  -0.67203
 Alpha  occ. eigenvalues --   -0.67010  -0.66881  -0.66832  -0.66594  -0.66388
 Alpha  occ. eigenvalues --   -0.66302  -0.64769  -0.63988  -0.62668  -0.61802
 Alpha  occ. eigenvalues --   -0.61715  -0.61619  -0.61435  -0.61146  -0.60776
 Alpha  occ. eigenvalues --   -0.60447  -0.60319  -0.60059  -0.59629  -0.59270
 Alpha  occ. eigenvalues --   -0.58802  -0.57966  -0.57791  -0.57538  -0.56879
 Alpha  occ. eigenvalues --   -0.56799  -0.56723  -0.56612  -0.56550  -0.56014
 Alpha  occ. eigenvalues --   -0.55604  -0.55552  -0.55165  -0.55120  -0.54791
 Alpha  occ. eigenvalues --   -0.54718  -0.54419  -0.54413  -0.54286  -0.53884
 Alpha  occ. eigenvalues --   -0.53627  -0.53585  -0.53297  -0.53287  -0.53121
 Alpha  occ. eigenvalues --   -0.53108  -0.52958  -0.52857  -0.52150  -0.52090
 Alpha  occ. eigenvalues --   -0.51772  -0.51760  -0.51596  -0.51570  -0.51375
 Alpha  occ. eigenvalues --   -0.51290  -0.51094  -0.51084  -0.50725  -0.50592
 Alpha  occ. eigenvalues --   -0.50578  -0.50280  -0.50190  -0.50009  -0.49975
 Alpha  occ. eigenvalues --   -0.49865  -0.49721  -0.49453  -0.49229  -0.49093
 Alpha  occ. eigenvalues --   -0.48789  -0.48395  -0.48300  -0.48275  -0.48060
 Alpha  occ. eigenvalues --   -0.47895  -0.47829  -0.47802  -0.47767  -0.47564
 Alpha  occ. eigenvalues --   -0.47496  -0.47315  -0.47277  -0.46969  -0.46915
 Alpha  occ. eigenvalues --   -0.46856  -0.46722  -0.46687  -0.46386  -0.46215
 Alpha  occ. eigenvalues --   -0.45850  -0.45670  -0.45598  -0.45289  -0.45153
 Alpha  occ. eigenvalues --   -0.45113  -0.44997  -0.44985  -0.44862  -0.44698
 Alpha  occ. eigenvalues --   -0.44603  -0.44527  -0.44078  -0.43968  -0.43851
 Alpha  occ. eigenvalues --   -0.43682  -0.43541  -0.43510  -0.43174  -0.43081
 Alpha  occ. eigenvalues --   -0.42931  -0.42595  -0.42568  -0.42511  -0.42120
 Alpha  occ. eigenvalues --   -0.41669  -0.41493  -0.41308  -0.41177  -0.41173
 Alpha  occ. eigenvalues --   -0.40396  -0.40265  -0.40107  -0.39619  -0.39169
 Alpha  occ. eigenvalues --   -0.39151  -0.38991  -0.38743  -0.38374  -0.38337
 Alpha  occ. eigenvalues --   -0.38113  -0.37800  -0.36557  -0.36363  -0.36210
 Alpha  occ. eigenvalues --   -0.36053  -0.35328  -0.35305  -0.33713  -0.33408
 Alpha  occ. eigenvalues --   -0.33369  -0.32970  -0.32268  -0.32178  -0.32118
 Alpha  occ. eigenvalues --   -0.32003  -0.31707  -0.31047  -0.26107  -0.25687
 Alpha  occ. eigenvalues --   -0.23480  -0.22848
 Alpha virt. eigenvalues --   -0.07955  -0.06798   0.00428   0.01207   0.02252
 Alpha virt. eigenvalues --    0.02427   0.04345   0.05007   0.05009   0.05919
 Alpha virt. eigenvalues --    0.06164   0.07684   0.07740   0.07913   0.08235

 Mulliken charges:
               1
     1  Mg   0.943933
     2  C   -0.009960
     3  C   -0.053521
     4  C   -0.050157
     5  C   -0.089538
     6  N   -0.281345
     7  C    0.032922
     8  C   -0.102428
     9  C   -0.079106
    10  C   -0.023206
    11  C    0.043985
    12  C   -0.008072
    13  C   -0.108901
    14  H    0.034942
    15  N   -0.486496
    16  C    0.194073
    17  C   -0.162150
    18  C   -0.110969
    19  C    0.127701
    20  C    0.066992
    21  C    0.057450
    22  O   -0.198279
    23  C   -0.024986
    24  N   -0.388367
    25  C    0.068331
    26  C   -0.106209
    27  C   -0.052075
    28  C    0.081518
    29  C    0.014940
    30  C   -0.034337
    31  C   -0.035120
    32  N   -0.431016
    33  C    0.126710
    34  C   -0.181505
    35  C   -0.031469
    36  C    0.144947
    37  C    0.071951
    38  C    0.142961
    39  O   -0.213742
    40  C   -0.092698
    41  C    0.223745
    42  O   -0.247463
    43  O   -0.327187
    44  C    0.146615
    45  H   -0.006194
    46  H    0.024417
    47  H   -0.006551
    48  H    0.040729
    49  H    0.020877
    50  H    0.047472
    51  H    0.041737
    52  H    0.029886
    53  H    0.038356
    54  H    0.025510
    55  H    0.052867
    56  H    0.060566
    57  H    0.036962
    58  H    0.040419
    59  H    0.034239
    60  H    0.057473
    61  H    0.052014
    62  H    0.039573
    63  H    0.049864
    64  H    0.031461
    65  H    0.019224
    66  H    0.045516
    67  H    0.058870
    68  H    0.022622
    69  H    0.029637
    70  H    0.030076
    71  H    0.044214
    72  H    0.041741
    73  H    0.038411
    74  H    0.062116
    75  H    0.059365
    76  H    0.073327
    77  H    0.085785
    78  H    0.026907
    79  H    0.057098
    80  Mg   0.983286
    81  C   -0.014066
    82  C   -0.066058
    83  C   -0.042784
    84  C   -0.082795
    85  N   -0.296780
    86  C   -0.036386
    87  C   -0.084183
    88  C   -0.102231
    89  C   -0.016719
    90  C    0.047924
    91  C    0.043156
    92  C   -0.116445
    93  H    0.053550
    94  N   -0.496742
    95  C    0.190097
    96  C   -0.170722
    97  C   -0.082169
    98  C    0.147891
    99  C    0.071573
   100  C    0.008584
   101  O   -0.275017
   102  C    0.009942
   103  N   -0.391751
   104  C    0.045129
   105  C   -0.110475
   106  C   -0.102353
   107  C    0.088797
   108  C    0.051755
   109  C   -0.034058
   110  C   -0.032702
   111  N   -0.399956
   112  C    0.123209
   113  C   -0.202292
   114  C   -0.040075
   115  C    0.129447
   116  C    0.087788
   117  C    0.156560
   118  O   -0.191884
   119  C   -0.060097
   120  C    0.245661
   121  O   -0.268787
   122  O   -0.350413
   123  C    0.133734
   124  H   -0.007958
   125  H    0.013611
   126  H    0.005376
   127  H    0.033325
   128  H    0.025270
   129  H    0.044510
   130  H    0.034114
   131  H    0.048317
   132  H    0.031957
   133  H    0.031255
   134  H    0.048022
   135  H    0.042919
   136  H    0.067858
   137  H    0.040171
   138  H    0.043004
   139  H    0.063868
   140  H    0.054965
   141  H    0.045431
   142  H    0.047089
   143  H    0.025534
   144  H    0.046289
   145  H    0.060141
   146  H    0.028021
   147  H    0.025174
   148  H    0.033309
   149  H    0.042450
   150  H    0.035991
   151  H    0.049161
   152  H    0.031550
   153  H    0.060105
   154  H    0.065618
   155  H    0.071797
   156  H    0.066050
   157  H    0.033532
   158  H    0.062029
 Sum of Mulliken charges =  -0.00000

 Dipole moment (field-independent basis, Debye):
    X=              0.2076    Y=              1.1495    Z=              5.0041  Tot=              5.1386
 Quadrupole moment (field-independent basis, Debye-Ang):
   XX=           -458.4229   YY=           -500.6706   ZZ=           -489.3245
   XY=             37.6002   XZ=              9.2563   YZ=             45.5278

 Normal termination of Gaussian 16 at Mon Sep 20 18:43:09 2021.
