 Gaussian 16, Revision A.03,
 Gaussian 16:  ES64L-G16RevA.03 25-Dec-2016

 --------------------------------
 #p wB97XD/Def2SVP td=(nstates=5)
 --------------------------------

 --------------------------------
 TDDFT excited states in gaussian
 --------------------------------
 Symbolic Z-matrix:
 Charge =  0 Multiplicity = 1

                         Standard orientation:
 ---------------------------------------------------------------------
 Center     Atomic      Atomic             Coordinates (Angstroms)
 Number     Number       Type             X           Y           Z
 ---------------------------------------------------------------------
      1         12           0       16.719797   -0.550519    0.407612
      2          6           0       15.522347    2.325435   -1.142939
      3          6           0       18.268623    1.329216    2.735521
      4          6           0       18.194563   -3.364133    1.562653
      5          6           0       15.522660   -2.360675   -2.271939
      6          7           0       16.872888    1.637945    0.721530
      7          6           0       16.128001    2.596859    0.083423
      8          6           0       16.337877    3.919544    0.716800
      9          6           0       17.249099    3.683068    1.926807
     10          6           0       17.503278    2.115868    1.854554
     11          6           0       18.515410    4.513255    2.068783
     12          6           0       14.918059    4.638279    1.082367
     13          6           0       14.595963    5.985083    0.393430
     14          1           0       13.928469    7.103770    1.154936
     15          7           0       17.945074   -0.980511    2.001362
     16          6           0       18.509642   -0.052799    2.863832
     17          6           0       19.354135   -0.716476    3.789145
     18          6           0       19.357698   -2.100930    3.467781
     19          6           0       18.458642   -2.201088    2.313530
     20          6           0       19.971067    0.122991    4.975371
     21          6           0       20.203811   -3.165698    4.163649
     22          8           0       20.267638   -4.359981    3.834976
     23          6           0       20.959076   -2.816147    5.369847
     24          7           0       17.079775   -2.564525   -0.349985
     25          6           0       17.600770   -3.556837    0.341628
     26          6           0       17.638604   -4.855325   -0.495405
     27          6           0       16.380470   -4.554631   -1.401777
     28          6           0       16.286045   -3.033835   -1.330239
     29          6           0       18.890118   -5.203068   -1.383692
     30          6           0       14.999532   -5.255704   -0.985924
     31          6           0       14.447807   -4.967828    0.350038
     32          7           0       15.726081   -0.176057   -1.459959
     33          6           0       15.276058   -1.045160   -2.473138
     34          6           0       14.638242   -0.284404   -3.499888
     35          6           0       14.756198    1.026379   -3.082560
     36          6           0       15.337163    1.027954   -1.772185
     37          6           0       14.243865   -0.765382   -4.809780
     38          6           0       14.316808    2.315733   -3.343179
     39          8           0       13.682229    2.792457   -4.289795
     40          6           0       14.856832    3.260742   -2.175147
     41          6           0       15.906271    4.113060   -2.808620
     42          8           0       16.940488    3.833107   -3.377621
     43          8           0       15.467235    5.364515   -2.663106
     44          6           0       16.364410    6.442124   -3.194828
     45          1           0       18.526597    2.015603    3.544672
     46          1           0       18.562587   -4.263029    2.060242
     47          1           0       15.091945   -2.955081   -3.080146
     48          1           0       16.850947    4.510547   -0.040852
     49          1           0       16.671843    3.838302    2.838010
     50          1           0       19.181577    3.792349    1.596312
     51          1           0       18.771811    4.816563    3.084007
     52          1           0       18.612633    5.449568    1.519942
     53          1           0       14.858506    4.761372    2.163351
     54          1           0       14.044688    4.066446    0.767782
     55          1           0       13.865764    5.755489   -0.383123
     56          1           0       15.450804    6.379252   -0.154487
     57          1           0       21.047869   -0.044332    4.990985
     58          1           0       19.510481   -0.443202    5.785022
     59          1           0       19.883312    1.209014    4.942939
     60          1           0       21.651811   -1.998654    5.174900
     61          1           0       21.669548   -3.629875    5.513434
     62          1           0       20.361014   -2.681495    6.271485
     63          1           0       17.289875   -5.674580    0.133490
     64          1           0       16.668912   -4.951500   -2.374829
     65          1           0       19.345605   -4.364419   -1.908915
     66          1           0       18.486599   -5.951487   -2.066654
     67          1           0       19.681046   -5.646908   -0.778513
     68          1           0       15.046516   -6.344823   -1.003673
     69          1           0       14.164687   -4.850394   -1.557567
     70          1           0       13.950325   -4.009403    0.208366
     71          1           0       15.128133   -4.843177    1.193036
     72          1           0       13.682383   -5.631803    0.750395
     73          1           0       15.171814   -0.734464   -5.382038
     74          1           0       13.490744   -0.167434   -5.322161
     75          1           0       13.763955   -1.744374   -4.786105
     76          1           0       14.067620    3.814339   -1.666335
     77          1           0       16.799398    6.893087   -2.302628
     78          1           0       15.782777    7.140358   -3.796295
     79          1           0       17.215215    6.132236   -3.802276
     80         12           0      -16.279804   -0.846010    0.119308
     81          6           0      -18.613579    1.660660    1.170463
     82          6           0      -14.047489    1.814238   -0.499898
     83          6           0      -14.312950   -2.879527   -1.523999
     84          6           0      -18.717860   -3.192295    0.455907
     85          7           0      -16.343607    1.452784    0.374054
     86          6           0      -17.372041    2.148060    0.916466
     87          6           0      -16.929255    3.587201    1.122989
     88          6           0      -15.458390    3.711898    0.634966
     89          6           0      -15.238849    2.259115    0.170848
     90          6           0      -15.243501    4.850691   -0.513517
     91          6           0      -17.031974    4.050616    2.639077
     92          6           0      -17.709489    5.396538    2.898718
     93          1           0      -17.585450    6.584771    1.862591
     94          7           0      -14.440486   -0.554673   -0.930337
     95          6           0      -13.729898    0.549273   -1.023781
     96          6           0      -12.562340    0.242959   -1.801230
     97          6           0      -12.481644   -1.155456   -2.021553
     98          6           0      -13.768022   -1.574484   -1.529841
     99          6           0      -11.438756    1.251293   -2.035720
    100          6           0      -11.392847   -2.091967   -2.521407
    101          8           0      -11.572531   -3.283152   -2.696934
    102          6           0      -10.037657   -1.475732   -2.735081
    103          7           0      -16.651422   -2.662171   -0.752670
    104          6           0      -15.568178   -3.407934   -1.221197
    105          6           0      -15.872323   -4.927530   -1.320319
    106          6           0      -17.228121   -4.964049   -0.519174
    107          6           0      -17.572330   -3.501309   -0.238751
    108          6           0      -15.945797   -5.376413   -2.786971
    109          6           0      -17.116319   -5.706718    0.895471
    110          6           0      -17.710563   -7.068316    1.033052
    111          7           0      -18.185307   -0.834751    0.784338
    112          6           0      -19.076147   -1.885200    0.832339
    113          6           0      -20.419391   -1.471128    1.229192
    114          6           0      -20.291931   -0.044802    1.385797
    115          6           0      -18.976408    0.292449    0.988880
    116          6           0      -21.514022   -2.411973    1.582087
    117          6           0      -20.960026    1.168152    1.831815
    118          8           0      -22.118510    1.267458    2.275524
    119          6           0      -19.877590    2.381734    1.680314
    120          6           0      -20.473563    3.293160    0.716331
    121          8           0      -20.815899    2.964502   -0.398450
    122          8           0      -20.581455    4.531111    1.213126
    123          6           0      -21.215578    5.647964    0.444830
    124          1           0      -13.290807    2.588625   -0.641454
    125          1           0      -13.590041   -3.687045   -1.662123
    126          1           0      -19.440531   -3.992293    0.628144
    127          1           0      -17.557777    4.208256    0.484728
    128          1           0      -14.794676    4.063051    1.425259
    129          1           0      -16.037771    5.596200   -0.474189
    130          1           0      -15.234966    4.298063   -1.453359
    131          1           0      -14.272307    5.327038   -0.380436
    132          1           0      -16.091846    4.044968    3.188945
    133          1           0      -17.648104    3.339114    3.188717
    134          1           0      -17.414823    5.815432    3.861134
    135          1           0      -18.753942    5.114600    3.031920
    136          1           0      -10.603326    1.158412   -1.341597
    137          1           0      -11.820878    2.270163   -2.105701
    138          1           0      -11.067790    1.057408   -3.041891
    139          1           0       -9.726220   -0.761524   -1.972241
    140          1           0       -9.917249   -0.953302   -3.683089
    141          1           0       -9.275255   -2.236839   -2.568859
    142          1           0      -15.059734   -5.452724   -0.819094
    143          1           0      -17.966790   -5.473919   -1.137780
    144          1           0      -15.600454   -4.632779   -3.505061
    145          1           0      -16.968436   -5.601335   -3.087780
    146          1           0      -15.358450   -6.286583   -2.912622
    147          1           0      -17.562061   -5.167950    1.731600
    148          1           0      -16.088511   -5.782580    1.248458
    149          1           0      -16.930642   -7.800362    1.238727
    150          1           0      -18.164740   -7.235383    0.056191
    151          1           0      -18.428602   -7.090509    1.852769
    152          1           0      -22.136255   -2.014554    2.383231
    153          1           0      -21.038156   -3.373261    1.775058
    154          1           0      -22.132688   -2.516655    0.689751
    155          1           0      -19.725978    2.907805    2.621884
    156          1           0      -22.183647    5.320838    0.064992
    157          1           0      -20.613998    5.965652   -0.407157
    158          1           0      -21.275262    6.583475    1.000344
 ---------------------------------------------------------------------

 SCF Done:  E(RwB97XD) =  -4070.58172771     A.U. after   19 cycles

 Excitation energies and oscillator strengths:

 Excited State   1:      Singlet-A      1.6235 eV  763.71 nm  f=0.4146  <S**2>=0.000
     310 -> 316        0.17850
     312 -> 314        0.68322
     310 <- 316        0.11618
 This state for optimization and/or second-order correction.
 Total Energy, E(TD-HF/TD-DFT) =  -4070.52206680
 Copying the excited state density for this state as the 1-particle RhoCI density.

 Excited State   2:      Singlet-A      1.6464 eV  753.07 nm  f=0.3629  <S**2>=0.000
     309 -> 315       -0.18099
     311 -> 313        0.68233
     309 <- 315       -0.11533

 Excited State   3:      Singlet-A      2.1206 eV  584.67 nm  f=0.1314  <S**2>=0.000
     309 -> 313        0.64940
     311 -> 315        0.26630

 Excited State   4:      Singlet-A      2.1424 eV  578.72 nm  f=0.1304  <S**2>=0.000
     310 -> 314        0.64797
     312 -> 316       -0.26638

 Excited State   5:      Singlet-A      3.3489 eV  370.22 nm  f=0.0016  <S**2>=0.000
     306 -> 314       -0.11012
     308 -> 314        0.67188

 The electronic state is 1-A.
 Alpha  occ. eigenvalues --  -46.95734 -46.94971 -19.30463 -19.30330 -19.24550
 Alpha  occ. eigenvalues --  -19.24110 -19.24084 -19.23749 -19.23449 -19.23369
 Alpha  occ. eigenvalues --  -14.46634 -14.46488 -14.46476 -14.46308 -14.44367
 Alpha  occ. eigenvalues --  -14.43998 -14.43657 -14.43632 -10.42509 -10.42310
 Alpha  occ. eigenvalues --  -10.39748 -10.39535 -10.39088 -10.38254 -10.36280
 Alpha  occ. eigenvalues --  -10.35527 -10.35524 -10.35374 -10.35291 -10.34792
 Alpha  occ. eigenvalues --  -10.34683 -10.34505 -10.34355 -10.34271 -10.34156
 Alpha  occ. eigenvalues --  -10.33872 -10.33676 -10.33609 -10.33207 -10.33178
 Alpha  occ. eigenvalues --  -10.33055 -10.33021 -10.32862 -10.32745 -10.32667
 Alpha  occ. eigenvalues --  -10.32630 -10.32630 -10.32348 -10.32347 -10.32332
 Alpha  occ. eigenvalues --  -10.32263 -10.32162 -10.32061 -10.32010 -10.31994
 Alpha  occ. eigenvalues --  -10.31898 -10.31855 -10.31838 -10.31677 -10.31655
 Alpha  occ. eigenvalues --  -10.31596 -10.31528 -10.31523 -10.31248 -10.31152
 Alpha  occ. eigenvalues --  -10.30969 -10.30656 -10.30603 -10.30584 -10.30372
 Alpha  occ. eigenvalues --  -10.30369 -10.30306 -10.30257 -10.30169 -10.29983
 Alpha  occ. eigenvalues --  -10.29949 -10.29921 -10.29906 -10.29744 -10.29646
 Alpha  occ. eigenvalues --  -10.29621 -10.29498 -10.29308 -10.28814 -10.28758
 Alpha  occ. eigenvalues --  -10.28599  -3.21598  -3.21035  -1.95187  -1.94695
 Alpha  occ. eigenvalues --   -1.94590  -1.94583  -1.94167  -1.94013  -1.19247
 Alpha  occ. eigenvalues --   -1.18725  -1.13056  -1.11385  -1.10880  -1.10696
 Alpha  occ. eigenvalues --   -1.09615  -1.09557  -1.07486  -1.06684  -1.06361
 Alpha  occ. eigenvalues --   -1.05521  -1.05456  -1.05144  -1.04712  -1.03929
 Alpha  occ. eigenvalues --   -0.94254  -0.94141  -0.91178  -0.90675  -0.90510
 Alpha  occ. eigenvalues --   -0.90372  -0.90156  -0.89969  -0.89940  -0.89582
 Alpha  occ. eigenvalues --   -0.89057  -0.88952  -0.88862  -0.88363  -0.86624
 Alpha  occ. eigenvalues --   -0.86205  -0.86151  -0.86013  -0.85046  -0.84561
 Alpha  occ. eigenvalues --   -0.83990  -0.83746  -0.83569  -0.83228  -0.82756
 Alpha  occ. eigenvalues --   -0.82660  -0.80769  -0.80224  -0.79654  -0.79605
 Alpha  occ. eigenvalues --   -0.79363  -0.78801  -0.78183  -0.77951  -0.77348
 Alpha  occ. eigenvalues --   -0.76788  -0.75536  -0.74482  -0.73718  -0.73399
 Alpha  occ. eigenvalues --   -0.71396  -0.71096  -0.70747  -0.69789  -0.69754
 Alpha  occ. eigenvalues --   -0.69611  -0.69226  -0.68926  -0.67786  -0.67476
 Alpha  occ. eigenvalues --   -0.67435  -0.67099  -0.66832  -0.66629  -0.66492
 Alpha  occ. eigenvalues --   -0.66012  -0.64412  -0.64105  -0.62493  -0.62481
 Alpha  occ. eigenvalues --   -0.61970  -0.61365  -0.61176  -0.60823  -0.60654
 Alpha  occ. eigenvalues --   -0.60467  -0.60306  -0.60033  -0.59948  -0.59463
 Alpha  occ. eigenvalues --   -0.58477  -0.58089  -0.57751  -0.57668  -0.57533
 Alpha  occ. eigenvalues --   -0.57147  -0.57049  -0.56826  -0.56699  -0.56289
 Alpha  occ. eigenvalues --   -0.55447  -0.55348  -0.55256  -0.55219  -0.55000
 Alpha  occ. eigenvalues --   -0.54940  -0.54851  -0.54700  -0.54544  -0.54255
 Alpha  occ. eigenvalues --   -0.54194  -0.54004  -0.53904  -0.53211  -0.53178
 Alpha  occ. eigenvalues --   -0.53112  -0.53077  -0.52538  -0.52467  -0.52382
 Alpha  occ. eigenvalues --   -0.52000  -0.51927  -0.51784  -0.51716  -0.51441
 Alpha  occ. eigenvalues --   -0.51185  -0.51172  -0.51017  -0.51006  -0.50703
 Alpha  occ. eigenvalues --   -0.50496  -0.50488  -0.50331  -0.50327  -0.50082
 Alpha  occ. eigenvalues --   -0.50030  -0.49673  -0.49365  -0.49355  -0.49155
 Alpha  occ. eigenvalues --   -0.48818  -0.48667  -0.48658  -0.48530  -0.48230
 Alpha  occ. eigenvalues --   -0.48163  -0.48049  -0.47970  -0.47824  -0.47814
 Alpha  occ. eigenvalues --   -0.47231  -0.47226  -0.47037  -0.46618  -0.46459
 Alpha  occ. eigenvalues --   -0.46447  -0.46191  -0.46135  -0.46087  -0.45753
 Alpha  occ. eigenvalues --   -0.45675  -0.45540  -0.45350  -0.45265  -0.45202
 Alpha  occ. eigenvalues --   -0.44984  -0.44971  -0.44689  -0.44600  -0.44523
 Alpha  occ. eigenvalues --   -0.44441  -0.44197  -0.44114  -0.43802  -0.43769
 Alpha  occ. eigenvalues --   -0.43669  -0.43482  -0.43339  -0.43197  -0.43069
 Alpha  occ. eigenvalues --   -0.42911  -0.42892  -0.42697  -0.42435  -0.42187
 Alpha  occ. eigenvalues --   -0.42142  -0.41614  -0.41459  -0.41262  -0.40907
 Alpha  occ. eigenvalues --   -0.40285  -0.40095  -0.40029  -0.39853  -0.39693
 Alpha  occ. eigenvalues --   -0.39139  -0.39055  -0.38535  -0.38486  -0.38228
 Alpha  occ. eigenvalues --   -0.38121  -0.38105  -0.36529  -0.36449  -0.36307
 Alpha  occ. eigenvalues --   -0.35800  -0.35702  -0.35234  -0.33741  -0.33693
 Alpha  occ. eigenvalues --   -0.33401  -0.33022  -0.32784  -0.32763  -0.32565
 Alpha  occ. eigenvalues --   -0.32267  -0.32206  -0.31582  -0.25987  -0.25751
 Alpha  occ. eigenvalues --   -0.23312  -0.22765
 Alpha virt. eigenvalues --   -0.07397  -0.07080   0.00233   0.00800   0.02213
 Alpha virt. eigenvalues --    0.02277   0.04155   0.04297   0.04932   0.05241
 Alpha virt. eigenvalues --    0.07366   0.07689   0.07865   0.08157   0.08563

 Mulliken charges:
               1
     1  Mg   0.939273
     2  C   -0.014625
     3  C   -0.073900
     4  C   -0.062224
     5  C   -0.108165
     6  N   -0.378561
     7  C    0.014448
     8  C   -0.066743
     9  C   -0.052633
    10  C   -0.019153
    11  C    0.003424
    12  C    0.003968
    13  C   -0.135771
    14  H    0.038349
    15  N   -0.463848
    16  C    0.198453
    17  C   -0.182580
    18  C   -0.073491
    19  C    0.131313
    20  C    0.082825
    21  C    0.052612
    22  O   -0.248020
    23  C   -0.009817
    24  N   -0.296491
    25  C    0.020085
    26  C   -0.042679
    27  C   -0.112588
    28  C    0.095955
    29  C    0.041914
    30  C    0.013737
    31  C   -0.088483
    32  N   -0.408944
    33  C    0.114792
    34  C   -0.133391
    35  C    0.022754
    36  C    0.108447
    37  C    0.062417
    38  C    0.079695
    39  O   -0.226729
    40  C   -0.091795
    41  C    0.269459
    42  O   -0.244512
    43  O   -0.346962
    44  C    0.120630
    45  H   -0.007302
    46  H    0.014752
    47  H   -0.002378
    48  H    0.047195
    49  H    0.033917
    50  H    0.048132
    51  H    0.042017
    52  H    0.040868
    53  H    0.041712
    54  H    0.042459
    55  H    0.057917
    56  H    0.038145
    57  H    0.038053
    58  H    0.060574
    59  H    0.052919
    60  H    0.039019
    61  H    0.045954
    62  H    0.075374
    63  H    0.019766
    64  H    0.023058
    65  H    0.050130
    66  H    0.040599
    67  H    0.051623
    68  H    0.036119
    69  H    0.028666
    70  H    0.022127
    71  H    0.034901
    72  H    0.039548
    73  H    0.074382
    74  H    0.055772
    75  H    0.035989
    76  H    0.056661
    77  H    0.046835
    78  H    0.068325
    79  H    0.073723
    80  Mg   0.966342
    81  C   -0.049286
    82  C   -0.089584
    83  C   -0.059832
    84  C   -0.106219
    85  N   -0.317329
    86  C    0.011344
    87  C   -0.040349
    88  C   -0.105339
    89  C    0.050091
    90  C   -0.005194
    91  C   -0.008673
    92  C   -0.109690
    93  H    0.017152
    94  N   -0.387996
    95  C    0.163964
    96  C   -0.188080
    97  C   -0.059245
    98  C    0.115194
    99  C    0.051762
   100  C    0.080818
   101  O   -0.219453
   102  C   -0.036969
   103  N   -0.403653
   104  C    0.019217
   105  C   -0.074862
   106  C   -0.053942
   107  C    0.103271
   108  C    0.032741
   109  C   -0.056517
   110  C   -0.031322
   111  N   -0.481536
   112  C    0.161766
   113  C   -0.187081
   114  C   -0.019329
   115  C    0.159917
   116  C    0.089862
   117  C    0.119863
   118  O   -0.226507
   119  C   -0.061621
   120  C    0.257932
   121  O   -0.245658
   122  O   -0.357571
   123  C    0.146435
   124  H   -0.009346
   125  H    0.024566
   126  H    0.001001
   127  H    0.044151
   128  H    0.046786
   129  H    0.047927
   130  H    0.045215
   131  H    0.037829
   132  H    0.030159
   133  H    0.028315
   134  H    0.044335
   135  H    0.052341
   136  H    0.066461
   137  H    0.038130
   138  H    0.031248
   139  H    0.036085
   140  H    0.074762
   141  H    0.049275
   142  H    0.043665
   143  H    0.035663
   144  H    0.053071
   145  H    0.026342
   146  H    0.041768
   147  H    0.029335
   148  H    0.020462
   149  H    0.036552
   150  H    0.025298
   151  H    0.038902
   152  H    0.066598
   153  H    0.037259
   154  H    0.055610
   155  H    0.057881
   156  H    0.070422
   157  H    0.046855
   158  H    0.060242
 Sum of Mulliken charges =  -0.00000

 Dipole moment (field-independent basis, Debye):
    X=              4.7714    Y=              2.0609    Z=              5.4816  Tot=              7.5539
 Quadrupole moment (field-independent basis, Debye-Ang):
   XX=           -666.7527   YY=           -460.5301   ZZ=           -515.5222
   XY=             28.3365   XZ=             37.0688   YZ=             21.1660

 Normal termination of Gaussian 16 at Sat Sep 18 19:55:03 2021.
