 Gaussian 16, Revision A.03,
 Gaussian 16:  ES64L-G16RevA.03 25-Dec-2016

 --------------------------------
 #p wB97XD/Def2SVP td=(nstates=5)
 --------------------------------

 --------------------------------
 TDDFT excited states in gaussian
 --------------------------------
 Symbolic Z-matrix:
 Charge =  0 Multiplicity = 1

                         Standard orientation:
 ---------------------------------------------------------------------
 Center     Atomic      Atomic             Coordinates (Angstroms)
 Number     Number       Type             X           Y           Z
 ---------------------------------------------------------------------
      1         12           0       14.577080   -0.283822   -0.201888
      2          6           0       11.213080   -1.013613   -0.664437
      3          6           0       14.134257    2.643195   -2.149974
      4          6           0       17.357505    1.020137    1.114576
      5          6           0       14.662665   -2.827221    2.237878
      6          7           0       12.711741    0.901863   -1.018440
      7          6           0       11.544967    0.223035   -1.275668
      8          6           0       10.614640    1.032259   -2.123737
      9          6           0       11.623248    2.065446   -2.807563
     10          6           0       12.924710    1.917180   -1.942696
     11          6           0       11.907615    1.839313   -4.377492
     12          6           0        9.400988    1.620538   -1.235809
     13          6           0        8.188288    1.891658   -1.972060
     14          1           0        7.684387    3.342659   -1.821106
     15          7           0       15.705929    1.463286   -0.588166
     16          6           0       15.354398    2.551056   -1.435635
     17          6           0       16.457663    3.496575   -1.413472
     18          6           0       17.430677    3.047563   -0.487719
     19          6           0       16.889680    1.736223    0.004648
     20          6           0       16.400924    4.788592   -2.139821
     21          6           0       18.735545    3.860224   -0.097542
     22          8           0       18.906481    4.940711   -0.659964
     23          6           0       19.884229    3.222540    0.676381
     24          7           0       15.728227   -0.803334    1.493869
     25          6           0       16.896500   -0.149500    1.716354
     26          6           0       17.681599   -0.685646    3.068240
     27          6           0       16.910803   -2.073540    3.294562
     28          6           0       15.709423   -1.962934    2.303289
     29          6           0       19.230524   -0.928771    2.912203
     30          6           0       16.433026   -2.268021    4.734816
     31          6           0       16.895119   -3.488851    5.566007
     32          7           0       13.331015   -1.811851    0.411534
     33          6           0       13.517264   -2.768886    1.366410
     34          6           0       12.406335   -3.679968    1.341710
     35          6           0       11.434503   -2.949122    0.559861
     36          6           0       12.071119   -1.797562    0.066339
     37          6           0       12.231952   -4.899939    2.199331
     38          6           0       10.043700   -2.943778    0.156794
     39          8           0        9.218196   -3.801937    0.237385
     40          6           0        9.801147   -1.673256   -0.747760
     41          6           0        9.462491   -1.985169   -2.222160
     42          8           0       10.097055   -2.736722   -2.930724
     43          8           0        8.256676   -1.345122   -2.575585
     44          6           0        7.705986   -1.669225   -3.856859
     45          1           0       13.952925    3.487939   -2.816621
     46          1           0       18.116608    1.504768    1.731836
     47          1           0       14.742026   -3.613523    2.990799
     48          1           0       10.278266    0.488285   -3.006980
     49          1           0       11.219604    3.069312   -2.670716
     50          1           0       11.584710    2.761752   -4.859960
     51          1           0       11.382225    0.975559   -4.783740
     52          1           0       12.987564    1.726605   -4.477222
     53          1           0        9.801511    2.561296   -0.858482
     54          1           0        9.365112    0.890560   -0.426689
     55          1           0        7.442172    1.197201   -1.587737
     56          1           0        8.358854    1.749019   -3.039106
     57          1           0       15.583039    4.809706   -2.859823
     58          1           0       17.295463    4.910933   -2.751015
     59          1           0       16.248119    5.622241   -1.454014
     60          1           0       19.629124    2.957890    1.703014
     61          1           0       20.719146    3.923756    0.656628
     62          1           0       20.195983    2.338445    0.120130
     63          1           0       17.390535    0.040310    3.826937
     64          1           0       17.436885   -2.956049    2.929881
     65          1           0       19.778250   -0.209658    3.520583
     66          1           0       19.515236   -0.795792    1.867792
     67          1           0       19.420740   -1.947642    3.251283
     68          1           0       15.348548   -2.193371    4.811762
     69          1           0       16.638261   -1.429237    5.399769
     70          1           0       16.150398   -4.250173    5.799718
     71          1           0       17.191261   -3.073534    6.529591
     72          1           0       17.724259   -4.006132    5.081759
     73          1           0       11.465440   -5.513830    1.725715
     74          1           0       11.677745   -4.739852    3.123635
     75          1           0       13.153667   -5.426031    2.446458
     76          1           0        8.929608   -1.210258   -0.284145
     77          1           0        7.154286   -0.751935   -4.065093
     78          1           0        6.931830   -2.433228   -3.787761
     79          1           0        8.488956   -1.966149   -4.553489
     80         12           0      -13.868735    0.952907   -0.010389
     81          6           0      -13.781348   -2.612216   -0.332331
     82          6           0      -10.463013    1.028138   -0.445480
     83          6           0      -13.785800    4.245232    0.738968
     84          6           0      -17.099998    0.588675    1.356225
     85          7           0      -12.337047   -0.621813   -0.358186
     86          6           0      -12.502190   -2.005282   -0.529402
     87          6           0      -11.172500   -2.620483   -0.883152
     88          6           0      -10.145775   -1.516828   -0.387314
     89          6           0      -11.060263   -0.257988   -0.330070
     90          6           0       -9.617764   -1.949509    1.026847
     91          6           0      -11.056590   -3.085994   -2.377542
     92          6           0      -10.435419   -4.388881   -2.454499
     93          1           0      -10.579210   -5.127959   -3.878511
     94          7           0      -12.301164    2.400388   -0.066453
     95          6           0      -10.994179    2.233231   -0.301282
     96          6           0      -10.353092    3.511685   -0.338332
     97          6           0      -11.278154    4.470211    0.018546
     98          6           0      -12.605443    3.722586    0.211680
     99          6           0       -8.810090    3.662895   -0.526427
    100          6           0      -11.108942    6.001269    0.099996
    101          8           0      -12.038332    6.673882    0.468489
    102          6           0       -9.832026    6.663613   -0.360964
    103          7           0      -15.176823    2.163440    1.176448
    104          6           0      -14.948221    3.534856    1.200162
    105          6           0      -16.161029    4.266583    1.675659
    106          6           0      -17.245141    3.095350    1.857025
    107          6           0      -16.500717    1.870950    1.379039
    108          6           0      -15.903748    5.108434    2.879553
    109          6           0      -18.680066    3.279757    1.114042
    110          6           0      -19.896540    3.328455    1.951396
    111          7           0      -15.238459   -0.635950    0.400485
    112          6           0      -16.495727   -0.587420    0.959193
    113          6           0      -17.065299   -2.004561    0.947442
    114          6           0      -16.081201   -2.813816    0.345037
    115          6           0      -14.967781   -1.942102    0.078619
    116          6           0      -18.433200   -2.397056    1.522183
    117          6           0      -15.767171   -4.182678    0.067420
    118          8           0      -16.458029   -5.217267    0.205794
    119          6           0      -14.210864   -4.147287   -0.224015
    120          6           0      -14.006242   -5.048115   -1.478983
    121          8           0      -13.854309   -4.543420   -2.606566
    122          8           0      -13.937762   -6.349383   -1.105114
    123          6           0      -13.946983   -7.206346   -2.340278
    124          1           0       -9.431702    1.090056   -0.800097
    125          1           0      -13.789549    5.313011    0.970543
    126          1           0      -18.126712    0.387941    1.668888
    127          1           0      -11.049400   -3.464908   -0.205375
    128          1           0       -9.297906   -1.420486   -1.064570
    129          1           0      -10.347500   -1.814965    1.824887
    130          1           0       -8.693865   -1.411573    1.235008
    131          1           0       -9.347380   -3.005090    0.991021
    132          1           0      -10.317419   -2.433007   -2.842196
    133          1           0      -12.007354   -3.007394   -2.905304
    134          1           0      -10.950094   -5.108118   -1.817164
    135          1           0       -9.381211   -4.262490   -2.206749
    136          1           0       -8.735975    4.337030   -1.379698
    137          1           0       -8.286075    2.742260   -0.782775
    138          1           0       -8.360602    4.039877    0.392142
    139          1           0       -9.858957    7.733234   -0.152611
    140          1           0       -9.938969    6.411580   -1.415975
    141          1           0       -8.996907    6.171626    0.137575
    142          1           0      -16.415415    4.884563    0.814358
    143          1           0      -17.449436    3.026390    2.925195
    144          1           0      -15.969834    6.131582    2.511725
    145          1           0      -14.882947    5.020259    3.251119
    146          1           0      -16.572922    4.939655    3.723560
    147          1           0      -18.753753    2.357077    0.538491
    148          1           0      -18.586450    4.113371    0.419314
    149          1           0      -20.556957    2.488790    1.736366
    150          1           0      -20.327813    4.214978    1.487700
    151          1           0      -19.688994    3.536338    3.001955
    152          1           0      -18.239295   -2.719581    2.544546
    153          1           0      -18.902496   -3.209103    0.966888
    154          1           0      -19.106015   -1.542630    1.448468
    155          1           0      -13.783786   -4.586563    0.676472
    156          1           0      -14.913297   -7.282966   -2.838474
    157          1           0      -13.581118   -8.222060   -2.193600
    158          1           0      -13.203598   -6.765060   -3.004470
 ---------------------------------------------------------------------

 SCF Done:  E(RwB97XD) =  -4070.54981058     A.U. after   17 cycles

 Excitation energies and oscillator strengths:

 Excited State   1:      Singlet-A      1.6355 eV  758.07 nm  f=0.3974  <S**2>=0.000
     309 -> 316        0.17851
     311 -> 313        0.68604
     309 <- 316        0.11656
 This state for optimization and/or second-order correction.
 Total Energy, E(TD-HF/TD-DFT) =  -4070.48970586
 Copying the excited state density for this state as the 1-particle RhoCI density.

 Excited State   2:      Singlet-A      1.6768 eV  739.42 nm  f=0.3461  <S**2>=0.000
     310 -> 315       -0.19186
     312 -> 314        0.68013
     310 <- 315       -0.11546

 Excited State   3:      Singlet-A      2.1960 eV  564.58 nm  f=0.1049  <S**2>=0.000
     309 -> 313        0.63436
     311 -> 316       -0.29408

 Excited State   4:      Singlet-A      2.2164 eV  559.40 nm  f=0.0062  <S**2>=0.000
     310 -> 314        0.55058
     312 -> 315        0.43357

 Excited State   5:      Singlet-A      3.5180 eV  352.43 nm  f=0.0000  <S**2>=0.000
     312 -> 313        0.70704

 The electronic state is 1-A.
 Alpha  occ. eigenvalues --  -46.96217 -46.95728 -19.31315 -19.30442 -19.25743
 Alpha  occ. eigenvalues --  -19.24828 -19.24655 -19.24501 -19.23731 -19.23324
 Alpha  occ. eigenvalues --  -14.47002 -14.46835 -14.46685 -14.46440 -14.44902
 Alpha  occ. eigenvalues --  -14.43936 -14.43695 -14.43681 -10.44029 -10.43520
 Alpha  occ. eigenvalues --  -10.40482 -10.39631 -10.38851 -10.38053 -10.35983
 Alpha  occ. eigenvalues --  -10.35775 -10.35399 -10.35369 -10.35358 -10.35311
 Alpha  occ. eigenvalues --  -10.35277 -10.35227 -10.35190 -10.34896 -10.34603
 Alpha  occ. eigenvalues --  -10.34522 -10.34398 -10.33668 -10.33417 -10.33079
 Alpha  occ. eigenvalues --  -10.33011 -10.32961 -10.32931 -10.32781 -10.32758
 Alpha  occ. eigenvalues --  -10.32729 -10.32644 -10.32632 -10.32557 -10.32420
 Alpha  occ. eigenvalues --  -10.32327 -10.32208 -10.32184 -10.32124 -10.32097
 Alpha  occ. eigenvalues --  -10.32064 -10.32002 -10.31990 -10.31928 -10.31777
 Alpha  occ. eigenvalues --  -10.31770 -10.31382 -10.31356 -10.31009 -10.31002
 Alpha  occ. eigenvalues --  -10.30803 -10.30800 -10.30665 -10.30564 -10.30461
 Alpha  occ. eigenvalues --  -10.30432 -10.30419 -10.30341 -10.30307 -10.30303
 Alpha  occ. eigenvalues --  -10.30061 -10.29752 -10.29740 -10.29721 -10.29594
 Alpha  occ. eigenvalues --  -10.29493 -10.29181 -10.28959 -10.28878 -10.28778
 Alpha  occ. eigenvalues --  -10.28703  -3.22102  -3.21530  -1.95633  -1.95275
 Alpha  occ. eigenvalues --   -1.95110  -1.95032  -1.94635  -1.94496  -1.18319
 Alpha  occ. eigenvalues --   -1.18161  -1.13950  -1.13067  -1.12620  -1.11012
 Alpha  occ. eigenvalues --   -1.10001  -1.09252  -1.06967  -1.06086  -1.05040
 Alpha  occ. eigenvalues --   -1.05021  -1.04642  -1.04458  -1.03703  -1.03381
 Alpha  occ. eigenvalues --   -0.94268  -0.93119  -0.91168  -0.90808  -0.90549
 Alpha  occ. eigenvalues --   -0.90345  -0.90148  -0.90002  -0.89453  -0.89116
 Alpha  occ. eigenvalues --   -0.88875  -0.88457  -0.87834  -0.87333  -0.86235
 Alpha  occ. eigenvalues --   -0.86074  -0.85620  -0.85307  -0.84695  -0.84512
 Alpha  occ. eigenvalues --   -0.84420  -0.84230  -0.83176  -0.82584  -0.82330
 Alpha  occ. eigenvalues --   -0.82300  -0.80166  -0.79821  -0.79423  -0.79369
 Alpha  occ. eigenvalues --   -0.78769  -0.78393  -0.78130  -0.77333  -0.76966
 Alpha  occ. eigenvalues --   -0.76830  -0.74724  -0.74104  -0.73403  -0.73367
 Alpha  occ. eigenvalues --   -0.71202  -0.70756  -0.70488  -0.69740  -0.69490
 Alpha  occ. eigenvalues --   -0.69365  -0.68558  -0.68264  -0.67915  -0.66966
 Alpha  occ. eigenvalues --   -0.66907  -0.66843  -0.66534  -0.66381  -0.66240
 Alpha  occ. eigenvalues --   -0.66174  -0.64883  -0.63988  -0.61912  -0.61768
 Alpha  occ. eigenvalues --   -0.61511  -0.61057  -0.61020  -0.60607  -0.60388
 Alpha  occ. eigenvalues --   -0.60166  -0.60053  -0.59527  -0.59337  -0.58982
 Alpha  occ. eigenvalues --   -0.58401  -0.57951  -0.57399  -0.57365  -0.57018
 Alpha  occ. eigenvalues --   -0.56990  -0.56778  -0.56204  -0.55996  -0.55917
 Alpha  occ. eigenvalues --   -0.55859  -0.55427  -0.55260  -0.54823  -0.54750
 Alpha  occ. eigenvalues --   -0.54588  -0.54576  -0.54499  -0.54485  -0.54342
 Alpha  occ. eigenvalues --   -0.54112  -0.53805  -0.53770  -0.53667  -0.53205
 Alpha  occ. eigenvalues --   -0.53020  -0.52783  -0.52442  -0.52257  -0.52224
 Alpha  occ. eigenvalues --   -0.52127  -0.52077  -0.52036  -0.51751  -0.51655
 Alpha  occ. eigenvalues --   -0.51425  -0.51223  -0.51111  -0.50996  -0.50821
 Alpha  occ. eigenvalues --   -0.50785  -0.50512  -0.50447  -0.50105  -0.50001
 Alpha  occ. eigenvalues --   -0.49907  -0.49861  -0.49725  -0.49307  -0.49299
 Alpha  occ. eigenvalues --   -0.49062  -0.48993  -0.48485  -0.48428  -0.48416
 Alpha  occ. eigenvalues --   -0.48158  -0.48099  -0.47956  -0.47952  -0.47707
 Alpha  occ. eigenvalues --   -0.47644  -0.47253  -0.47245  -0.46957  -0.46807
 Alpha  occ. eigenvalues --   -0.46503  -0.46478  -0.46399  -0.46241  -0.46091
 Alpha  occ. eigenvalues --   -0.45972  -0.45968  -0.45693  -0.45521  -0.45422
 Alpha  occ. eigenvalues --   -0.45339  -0.45153  -0.45144  -0.44948  -0.44792
 Alpha  occ. eigenvalues --   -0.44721  -0.44693  -0.44502  -0.44245  -0.44224
 Alpha  occ. eigenvalues --   -0.43906  -0.43781  -0.43449  -0.43344  -0.43024
 Alpha  occ. eigenvalues --   -0.42978  -0.42960  -0.42645  -0.42438  -0.42062
 Alpha  occ. eigenvalues --   -0.41772  -0.41661  -0.40717  -0.40680  -0.40397
 Alpha  occ. eigenvalues --   -0.40251  -0.39775  -0.39734  -0.39177  -0.39123
 Alpha  occ. eigenvalues --   -0.39113  -0.38931  -0.38767  -0.38318  -0.38028
 Alpha  occ. eigenvalues --   -0.37648  -0.36830  -0.36722  -0.36315  -0.35994
 Alpha  occ. eigenvalues --   -0.35778  -0.35605  -0.35148  -0.33896  -0.33647
 Alpha  occ. eigenvalues --   -0.33520  -0.33345  -0.32589  -0.32498  -0.32191
 Alpha  occ. eigenvalues --   -0.32015  -0.31419  -0.31364  -0.26327  -0.26160
 Alpha  occ. eigenvalues --   -0.23052  -0.21971
 Alpha virt. eigenvalues --   -0.07189  -0.05850  -0.00563   0.00185   0.02123
 Alpha virt. eigenvalues --    0.02447   0.04187   0.04432   0.04509   0.05109
 Alpha virt. eigenvalues --    0.06648   0.07010   0.07318   0.07821   0.08332

 Mulliken charges:
               1
     1  Mg   0.961011
     2  C   -0.078519
     3  C   -0.075671
     4  C   -0.093828
     5  C   -0.091002
     6  N   -0.325468
     7  C   -0.039396
     8  C   -0.084403
     9  C   -0.134132
    10  C    0.034783
    11  C    0.014942
    12  C    0.052806
    13  C   -0.093977
    14  H    0.019455
    15  N   -0.466643
    16  C    0.174787
    17  C   -0.161812
    18  C   -0.102774
    19  C    0.203767
    20  C    0.095478
    21  C    0.076099
    22  O   -0.234412
    23  C   -0.028135
    24  N   -0.403771
    25  C    0.073682
    26  C   -0.123917
    27  C   -0.024166
    28  C    0.034380
    29  C    0.024304
    30  C   -0.029756
    31  C   -0.054254
    32  N   -0.416082
    33  C    0.139707
    34  C   -0.160798
    35  C   -0.085760
    36  C    0.221621
    37  C    0.066593
    38  C    0.108958
    39  O   -0.181860
    40  C   -0.079699
    41  C    0.276419
    42  O   -0.220855
    43  O   -0.387399
    44  C    0.130641
    45  H    0.011394
    46  H   -0.019653
    47  H   -0.007249
    48  H    0.027327
    49  H    0.037036
    50  H    0.043811
    51  H    0.052416
    52  H    0.042304
    53  H    0.036918
    54  H    0.036972
    55  H    0.063163
    56  H    0.049707
    57  H    0.010670
    58  H    0.056856
    59  H    0.066352
    60  H    0.071087
    61  H    0.057731
    62  H    0.067817
    63  H    0.055966
    64  H    0.043656
    65  H    0.040000
    66  H    0.046154
    67  H    0.045320
    68  H    0.031492
    69  H    0.018939
    70  H    0.040079
    71  H    0.034134
    72  H    0.032325
    73  H    0.049859
    74  H    0.043546
    75  H    0.043653
    76  H    0.072192
    77  H    0.045805
    78  H    0.054077
    79  H    0.067198
    80  Mg   0.943137
    81  C    0.041735
    82  C   -0.129139
    83  C   -0.076243
    84  C   -0.077252
    85  N   -0.336270
    86  C   -0.017745
    87  C   -0.079443
    88  C   -0.155388
    89  C    0.135991
    90  C    0.022037
    91  C    0.093438
    92  C   -0.136494
    93  H    0.009027
    94  N   -0.446373
    95  C    0.165709
    96  C   -0.153372
    97  C   -0.107898
    98  C    0.165058
    99  C    0.056863
   100  C    0.032494
   101  O   -0.217449
   102  C    0.006191
   103  N   -0.392405
   104  C    0.060512
   105  C   -0.103422
   106  C   -0.058513
   107  C    0.088777
   108  C    0.029710
   109  C   -0.034562
   110  C   -0.028591
   111  N   -0.416665
   112  C    0.095758
   113  C   -0.195815
   114  C   -0.011699
   115  C    0.105071
   116  C    0.075065
   117  C    0.122603
   118  O   -0.234916
   119  C   -0.139165
   120  C    0.281289
   121  O   -0.275162
   122  O   -0.340433
   123  C    0.131713
   124  H   -0.010012
   125  H    0.029152
   126  H   -0.008328
   127  H    0.017284
   128  H    0.025462
   129  H    0.050696
   130  H    0.035262
   131  H    0.035802
   132  H    0.016152
   133  H    0.073524
   134  H    0.051863
   135  H    0.043407
   136  H    0.051564
   137  H    0.037674
   138  H    0.072659
   139  H    0.062024
   140  H    0.066215
   141  H    0.055608
   142  H    0.042984
   143  H    0.031474
   144  H    0.039661
   145  H    0.045880
   146  H    0.038534
   147  H    0.026802
   148  H    0.028145
   149  H    0.044922
   150  H    0.030263
   151  H    0.041833
   152  H    0.063109
   153  H    0.057580
   154  H    0.033359
   155  H    0.090086
   156  H    0.069999
   157  H    0.052488
   158  H    0.059108
 Sum of Mulliken charges =  -0.00000

 Dipole moment (field-independent basis, Debye):
    X=              6.3204    Y=              3.9790    Z=              1.0364  Tot=              7.5402
 Quadrupole moment (field-independent basis, Debye-Ang):
   XX=           -499.2191   YY=           -544.3189   ZZ=           -490.5603
   XY=            -71.2724   XZ=             30.5070   YZ=            -10.8447

 Normal termination of Gaussian 16 at Sun Sep 19 03:33:01 2021.
