 Gaussian 16, Revision A.03,
 Gaussian 16:  ES64L-G16RevA.03 25-Dec-2016

 --------------------------------
 #p wB97XD/Def2SVP td=(nstates=5)
 --------------------------------

 --------------------------------
 TDDFT excited states in gaussian
 --------------------------------
 Symbolic Z-matrix:
 Charge =  0 Multiplicity = 1

                         Standard orientation:
 ---------------------------------------------------------------------
 Center     Atomic      Atomic             Coordinates (Angstroms)
 Number     Number       Type             X           Y           Z
 ---------------------------------------------------------------------
      1         12           0      -11.178099   -0.091372    0.021245
      2          6           0       -8.068961   -1.007237    1.269243
      3          6           0      -10.352230    3.296291    0.653885
      4          6           0      -13.533022    0.891686   -2.135624
      5          6           0      -11.538792   -3.395906   -1.152903
      6          7           0       -9.197606    1.061112    0.570356
      7          6           0       -8.209159    0.404627    1.263417
      8          6           0       -7.217661    1.362737    1.845251
      9          6           0       -8.064718    2.716872    1.879833
     10          6           0       -9.290950    2.392940    0.955059
     11          6           0       -8.521454    3.225977    3.338901
     12          6           0       -5.841802    1.341444    1.000265
     13          6           0       -4.667715    1.732249    1.745253
     14          1           0       -3.883982    2.894532    1.099523
     15          7           0      -11.980238    1.789612   -0.521312
     16          6           0      -11.501181    3.075764   -0.145361
     17          6           0      -12.396701    4.062373   -0.725305
     18          6           0      -13.354202    3.398630   -1.530303
     19          6           0      -13.034130    1.942212   -1.353907
     20          6           0      -12.156266    5.519604   -0.588269
     21          6           0      -14.440548    4.136714   -2.419359
     22          8           0      -14.449105    5.366090   -2.379986
     23          6           0      -15.619048    3.393559   -3.038983
     24          7           0      -12.256865   -1.123245   -1.476128
     25          6           0      -13.254565   -0.474007   -2.128007
     26          6           0      -14.008298   -1.423806   -3.251037
     27          6           0      -13.501172   -2.866277   -2.767617
     28          6           0      -12.390904   -2.508130   -1.729731
     29          6           0      -15.582683   -1.361464   -3.258170
     30          6           0      -12.947133   -3.722147   -3.908211
     31          6           0      -13.561187   -5.105002   -4.232993
     32          7           0      -10.199789   -1.889997    0.289010
     33          6           0      -10.482940   -3.128046   -0.210443
     34          6           0       -9.573547   -4.083862    0.358999
     35          6           0       -8.550781   -3.229809    0.919735
     36          6           0       -8.995056   -1.902489    0.794148
     37          6           0       -9.562893   -5.564672    0.111332
     38          6           0       -7.224769   -3.243495    1.501398
     39          8           0       -6.575205   -4.157912    1.909194
     40          6           0       -6.822156   -1.754698    1.837049
     41          6           0       -6.677982   -1.448671    3.344163
     42          8           0       -7.503505   -1.729530    4.186300
     43          8           0       -5.406913   -0.891255    3.593625
     44          6           0       -5.041121   -0.707907    4.965684
     45          1           0      -10.070550    4.311329    0.938923
     46          1           0      -14.129071    1.164598   -3.008755
     47          1           0      -11.702138   -4.409675   -1.523103
     48          1           0       -7.069211    1.208731    2.914558
     49          1           0       -7.465907    3.499560    1.412684
     50          1           0       -8.070590    4.212131    3.449172
     51          1           0       -8.208357    2.556181    4.139206
     52          1           0       -9.607487    3.316305    3.302673
     53          1           0       -6.020558    2.075256    0.214526
     54          1           0       -5.876845    0.338102    0.574933
     55          1           0       -4.038204    0.844941    1.800604
     56          1           0       -4.953825    2.085035    2.736065
     57          1           0      -11.414687    5.734356    0.180970
     58          1           0      -13.060090    6.013371   -0.230468
     59          1           0      -11.787973    5.949699   -1.519950
     60          1           0      -15.331824    2.682652   -3.814359
     61          1           0      -16.302644    4.143036   -3.439183
     62          1           0      -16.141235    2.884773   -2.228621
     63          1           0      -13.519187   -1.140098   -4.182504
     64          1           0      -14.216076   -3.426219   -2.164332
     65          1           0      -15.927906   -0.904328   -4.185048
     66          1           0      -15.925619   -0.756496   -2.417964
     67          1           0      -15.934666   -2.390597   -3.179124
     68          1           0      -11.865930   -3.837338   -3.835289
     69          1           0      -12.929699   -3.229368   -4.880172
     70          1           0      -12.958840   -5.987371   -4.015177
     71          1           0      -13.688030   -5.105835   -5.315856
     72          1           0      -14.512702   -5.245901   -3.718877
     73          1           0       -8.971986   -6.015554    0.908983
     74          1           0       -8.910676   -5.893455   -0.697139
     75          1           0      -10.543535   -6.013811   -0.043654
     76          1           0       -5.841370   -1.659278    1.370314
     77          1           0       -4.343910    0.124833    4.867736
     78          1           0       -4.424706   -1.526248    5.337361
     79          1           0       -5.923584   -0.567398    5.588594
     80         12           0       10.787034    0.025550   -0.657667
     81          6           0        8.166773    0.724225    1.616673
     82          6           0       10.662063   -3.196841    0.337240
     83          6           0       13.302782   -0.534040   -2.676621
     84          6           0       11.223043    3.570712   -0.988682
     85          7           0        9.608900   -1.136629    0.912441
     86          6           0        8.449647   -0.652476    1.495107
     87          6           0        7.729245   -1.826939    2.063851
     88          6           0        8.783731   -2.931472    2.140557
     89          6           0        9.768612   -2.444660    1.048254
     90          6           0        9.482800   -2.945039    3.551523
     91          6           0        6.401632   -2.322538    1.273653
     92          6           0        5.120258   -2.734516    2.061187
     93          1           0        5.312235   -3.735188    3.237308
     94          7           0       11.839231   -1.680761   -1.080083
     95          6           0       11.618353   -2.864283   -0.588589
     96          6           0       12.621728   -3.789087   -1.143806
     97          6           0       13.289418   -3.102505   -2.202835
     98          6           0       12.843195   -1.693582   -2.009262
     99          6           0       12.918198   -5.277972   -0.735476
    100          6           0       14.251507   -3.591916   -3.284836
    101          8           0       14.852743   -2.843721   -4.079114
    102          6           0       14.656573   -4.989090   -3.267987
    103          7           0       12.206164    1.410041   -1.565900
    104          6           0       13.116277    0.884511   -2.479295
    105          6           0       13.769815    2.070559   -3.288262
    106          6           0       12.973200    3.309465   -2.808583
    107          6           0       12.036532    2.737751   -1.741954
    108          6           0       15.291938    2.119084   -3.152769
    109          6           0       12.294829    4.156733   -3.914372
    110          6           0       12.316770    5.695242   -3.758599
    111          7           0        9.928166    1.809213    0.129241
    112          6           0       10.230330    3.155684   -0.047983
    113          6           0        9.218799    3.942673    0.610358
    114          6           0        8.430413    3.033754    1.317648
    115          6           0        8.873328    1.720294    0.999413
    116          6           0        9.048563    5.334122    0.538510
    117          6           0        7.258013    2.877351    2.191154
    118          8           0        6.469352    3.675853    2.671558
    119          6           0        7.031505    1.343673    2.395872
    120          6           0        7.050657    1.080641    3.891093
    121          8           0        7.938813    0.898417    4.692704
    122          8           0        5.718848    0.977828    4.171939
    123          6           0        5.332365    0.386135    5.475018
    124          1           0       10.575068   -4.257506    0.583499
    125          1           0       13.991389   -0.789117   -3.484756
    126          1           0       11.195882    4.630212   -1.249938
    127          1           0        7.328983   -1.701069    3.070165
    128          1           0        8.414351   -3.891803    1.781628
    129          1           0        9.791614   -3.936195    3.881986
    130          1           0        8.818369   -2.649045    4.363693
    131          1           0       10.379584   -2.339693    3.423983
    132          1           0        6.678077   -3.093111    0.554756
    133          1           0        6.069090   -1.537242    0.593795
    134          1           0        4.556195   -3.283752    1.306474
    135          1           0        4.725564   -1.763100    2.359055
    136          1           0       12.648048   -6.028513   -1.477968
    137          1           0       12.365159   -5.468851    0.184634
    138          1           0       13.972663   -5.524310   -0.610608
    139          1           0       13.787280   -5.647078   -3.281341
    140          1           0       15.264436   -5.205586   -2.389413
    141          1           0       15.125579   -5.191484   -4.230388
    142          1           0       13.459662    1.930915   -4.323941
    143          1           0       13.596971    3.946457   -2.181784
    144          1           0       15.553086    2.734531   -2.291251
    145          1           0       15.805773    2.604890   -3.981655
    146          1           0       15.649774    1.141672   -2.830850
    147          1           0       11.275481    3.849082   -4.147057
    148          1           0       12.746013    3.959050   -4.887645
    149          1           0       11.342097    5.931403   -3.331334
    150          1           0       12.338071    6.075494   -4.780405
    151          1           0       13.144046    5.996679   -3.116649
    152          1           0        8.512223    5.859747    1.328224
    153          1           0        8.606797    5.543997   -0.436112
    154          1           0       10.055327    5.747911    0.583214
    155          1           0        6.080977    1.044771    1.954380
    156          1           0        4.511259   -0.289052    5.235885
    157          1           0        4.971612    1.081791    6.232235
    158          1           0        6.158688   -0.199306    5.877338
 ---------------------------------------------------------------------

 SCF Done:  E(RwB97XD) =  -4070.57570612     A.U. after   19 cycles

 Excitation energies and oscillator strengths:

 Excited State   1:      Singlet-A      1.6355 eV  758.08 nm  f=0.3904  <S**2>=0.000
     309 -> 316       -0.17836
     311 -> 313        0.68609
     309 <- 316       -0.11650
 This state for optimization and/or second-order correction.
 Total Energy, E(TD-HF/TD-DFT) =  -4070.51560265
 Copying the excited state density for this state as the 1-particle RhoCI density.

 Excited State   2:      Singlet-A      1.6740 eV  740.65 nm  f=0.3764  <S**2>=0.000
     310 -> 315       -0.19686
     312 -> 314        0.67925
     310 <- 315       -0.11754

 Excited State   3:      Singlet-A      2.1963 eV  564.52 nm  f=0.1086  <S**2>=0.000
     309 -> 313        0.63352
     311 -> 316        0.29340

 Excited State   4:      Singlet-A      2.2065 eV  561.89 nm  f=0.0646  <S**2>=0.000
     310 -> 314        0.61945
     312 -> 315        0.32325

 Excited State   5:      Singlet-A      3.5823 eV  346.10 nm  f=0.0000  <S**2>=0.000
     312 -> 313        0.70697

 The electronic state is 1-A.
 Alpha  occ. eigenvalues --  -46.96156 -46.95666 -19.30354 -19.29568 -19.25665
 Alpha  occ. eigenvalues --  -19.24934 -19.24767 -19.24261 -19.23690 -19.23265
 Alpha  occ. eigenvalues --  -14.46926 -14.46623 -14.46323 -14.45953 -14.44839
 Alpha  occ. eigenvalues --  -14.44386 -14.43631 -14.43511 -10.43951 -10.43048
 Alpha  occ. eigenvalues --  -10.40422 -10.39453 -10.38793 -10.37992 -10.35910
 Alpha  occ. eigenvalues --  -10.35735 -10.35718 -10.35308 -10.35181 -10.35168
 Alpha  occ. eigenvalues --  -10.35126 -10.34781 -10.34778 -10.34526 -10.34462
 Alpha  occ. eigenvalues --  -10.34285 -10.33994 -10.33947 -10.33731 -10.33607
 Alpha  occ. eigenvalues --  -10.33604 -10.33518 -10.33367 -10.32719 -10.32709
 Alpha  occ. eigenvalues --  -10.32572 -10.32533 -10.32348 -10.32256 -10.32155
 Alpha  occ. eigenvalues --  -10.32047 -10.32030 -10.32002 -10.31919 -10.31892
 Alpha  occ. eigenvalues --  -10.31788 -10.31715 -10.31666 -10.31593 -10.31556
 Alpha  occ. eigenvalues --  -10.31535 -10.31515 -10.31313 -10.31215 -10.31210
 Alpha  occ. eigenvalues --  -10.30954 -10.30755 -10.30724 -10.30560 -10.30526
 Alpha  occ. eigenvalues --  -10.30502 -10.30379 -10.30373 -10.30270 -10.30185
 Alpha  occ. eigenvalues --  -10.30179 -10.29879 -10.29690 -10.29603 -10.29553
 Alpha  occ. eigenvalues --  -10.29502 -10.29437 -10.29422 -10.29060 -10.28796
 Alpha  occ. eigenvalues --  -10.28640  -3.22040  -3.21510  -1.95571  -1.95214
 Alpha  occ. eigenvalues --   -1.95093  -1.94972  -1.94632  -1.94468  -1.18250
 Alpha  occ. eigenvalues --   -1.18236  -1.13009  -1.12559  -1.11788  -1.11540
 Alpha  occ. eigenvalues --   -1.10930  -1.09928  -1.07141  -1.06902  -1.05896
 Alpha  occ. eigenvalues --   -1.05006  -1.04975  -1.04386  -1.04048  -1.03641
 Alpha  occ. eigenvalues --   -0.94700  -0.94199  -0.91114  -0.90723  -0.90316
 Alpha  occ. eigenvalues --   -0.90266  -0.90061  -0.89825  -0.89444  -0.89027
 Alpha  occ. eigenvalues --   -0.88809  -0.88761  -0.88391  -0.87774  -0.86085
 Alpha  occ. eigenvalues --   -0.85990  -0.85445  -0.85254  -0.84612  -0.84549
 Alpha  occ. eigenvalues --   -0.84362  -0.84169  -0.83400  -0.83106  -0.82521
 Alpha  occ. eigenvalues --   -0.82227  -0.80302  -0.79765  -0.79332  -0.79306
 Alpha  occ. eigenvalues --   -0.78896  -0.78683  -0.78060  -0.77743  -0.76999
 Alpha  occ. eigenvalues --   -0.76892  -0.74660  -0.74450  -0.73744  -0.73334
 Alpha  occ. eigenvalues --   -0.71158  -0.70811  -0.70630  -0.70416  -0.69648
 Alpha  occ. eigenvalues --   -0.69398  -0.69256  -0.68470  -0.67862  -0.67388
 Alpha  occ. eigenvalues --   -0.67241  -0.66905  -0.66839  -0.66445  -0.66279
 Alpha  occ. eigenvalues --   -0.66105  -0.64803  -0.63897  -0.62442  -0.61705
 Alpha  occ. eigenvalues --   -0.61506  -0.61444  -0.61183  -0.60986  -0.60531
 Alpha  occ. eigenvalues --   -0.60247  -0.59983  -0.59853  -0.59463  -0.59453
 Alpha  occ. eigenvalues --   -0.58339  -0.58116  -0.57812  -0.57291  -0.57093
 Alpha  occ. eigenvalues --   -0.56948  -0.56695  -0.56366  -0.55938  -0.55597
 Alpha  occ. eigenvalues --   -0.55460  -0.55176  -0.55138  -0.55072  -0.54827
 Alpha  occ. eigenvalues --   -0.54685  -0.54490  -0.54411  -0.54276  -0.54039
 Alpha  occ. eigenvalues --   -0.53981  -0.53696  -0.53593  -0.53566  -0.53465
 Alpha  occ. eigenvalues --   -0.53114  -0.52969  -0.52717  -0.52681  -0.52306
 Alpha  occ. eigenvalues --   -0.52162  -0.52026  -0.51855  -0.51679  -0.51578
 Alpha  occ. eigenvalues --   -0.51547  -0.51285  -0.51154  -0.51058  -0.50886
 Alpha  occ. eigenvalues --   -0.50721  -0.50667  -0.50360  -0.50060  -0.49930
 Alpha  occ. eigenvalues --   -0.49810  -0.49532  -0.49257  -0.49226  -0.48996
 Alpha  occ. eigenvalues --   -0.48985  -0.48925  -0.48806  -0.48527  -0.48354
 Alpha  occ. eigenvalues --   -0.48145  -0.48071  -0.47878  -0.47809  -0.47583
 Alpha  occ. eigenvalues --   -0.47418  -0.47159  -0.46922  -0.46888  -0.46769
 Alpha  occ. eigenvalues --   -0.46740  -0.46564  -0.46442  -0.46259  -0.46022
 Alpha  occ. eigenvalues --   -0.45947  -0.45905  -0.45727  -0.45570  -0.45461
 Alpha  occ. eigenvalues --   -0.45363  -0.45079  -0.44900  -0.44848  -0.44722
 Alpha  occ. eigenvalues --   -0.44636  -0.44628  -0.44431  -0.44173  -0.44166
 Alpha  occ. eigenvalues --   -0.44045  -0.43878  -0.43457  -0.43395  -0.43135
 Alpha  occ. eigenvalues --   -0.42949  -0.42875  -0.42758  -0.42382  -0.42347
 Alpha  occ. eigenvalues --   -0.42080  -0.41720  -0.41691  -0.41445  -0.40630
 Alpha  occ. eigenvalues --   -0.40614  -0.40173  -0.39682  -0.39627  -0.39277
 Alpha  occ. eigenvalues --   -0.39041  -0.38672  -0.38507  -0.38435  -0.38227
 Alpha  occ. eigenvalues --   -0.37788  -0.37554  -0.36752  -0.36608  -0.36247
 Alpha  occ. eigenvalues --   -0.35869  -0.35540  -0.35268  -0.33641  -0.33585
 Alpha  occ. eigenvalues --   -0.33452  -0.33317  -0.32685  -0.32435  -0.32396
 Alpha  occ. eigenvalues --   -0.31954  -0.31379  -0.31305  -0.26263  -0.25845
 Alpha  occ. eigenvalues --   -0.22986  -0.22728
 Alpha virt. eigenvalues --   -0.07125  -0.06577  -0.00099   0.00252   0.01972
 Alpha virt. eigenvalues --    0.02511   0.04249   0.04328   0.04494   0.05070
 Alpha virt. eigenvalues --    0.06723   0.07102   0.07943   0.08086   0.08368

 Mulliken charges:
               1
     1  Mg   0.960949
     2  C   -0.078266
     3  C   -0.075571
     4  C   -0.094174
     5  C   -0.091150
     6  N   -0.325468
     7  C   -0.039313
     8  C   -0.084445
     9  C   -0.134198
    10  C    0.034825
    11  C    0.014907
    12  C    0.053239
    13  C   -0.094956
    14  H    0.021259
    15  N   -0.466682
    16  C    0.174758
    17  C   -0.161716
    18  C   -0.102802
    19  C    0.204104
    20  C    0.095285
    21  C    0.076003
    22  O   -0.234336
    23  C   -0.028078
    24  N   -0.403855
    25  C    0.073745
    26  C   -0.123962
    27  C   -0.024117
    28  C    0.034496
    29  C    0.024343
    30  C   -0.029645
    31  C   -0.054218
    32  N   -0.416073
    33  C    0.139620
    34  C   -0.161106
    35  C   -0.085744
    36  C    0.221482
    37  C    0.066644
    38  C    0.108793
    39  O   -0.182234
    40  C   -0.079496
    41  C    0.276141
    42  O   -0.220985
    43  O   -0.387143
    44  C    0.130491
    45  H    0.011702
    46  H   -0.019735
    47  H   -0.007491
    48  H    0.027422
    49  H    0.037496
    50  H    0.044284
    51  H    0.052469
    52  H    0.042071
    53  H    0.036891
    54  H    0.036540
    55  H    0.063018
    56  H    0.049948
    57  H    0.010914
    58  H    0.056875
    59  H    0.066467
    60  H    0.071023
    61  H    0.057658
    62  H    0.067759
    63  H    0.055914
    64  H    0.043558
    65  H    0.039929
    66  H    0.046168
    67  H    0.045191
    68  H    0.031439
    69  H    0.018861
    70  H    0.039939
    71  H    0.034022
    72  H    0.032287
    73  H    0.049672
    74  H    0.043245
    75  H    0.043518
    76  H    0.072199
    77  H    0.046559
    78  H    0.053687
    79  H    0.067152
    80  Mg   0.942337
    81  C   -0.052090
    82  C   -0.101077
    83  C   -0.067691
    84  C   -0.090935
    85  N   -0.320416
    86  C    0.052644
    87  C   -0.094765
    88  C   -0.080656
    89  C   -0.006069
    90  C    0.041899
    91  C   -0.020940
    92  C   -0.113949
    93  H    0.029879
    94  N   -0.428122
    95  C    0.194969
    96  C   -0.167229
    97  C   -0.071085
    98  C    0.113827
    99  C    0.058660
   100  C    0.066986
   101  O   -0.250834
   102  C   -0.004245
   103  N   -0.356401
   104  C    0.033225
   105  C   -0.062116
   106  C   -0.056327
   107  C    0.068562
   108  C    0.048426
   109  C   -0.039055
   110  C   -0.040892
   111  N   -0.439475
   112  C    0.135286
   113  C   -0.196936
   114  C   -0.015785
   115  C    0.167636
   116  C    0.061291
   117  C    0.109512
   118  O   -0.199958
   119  C   -0.077088
   120  C    0.279475
   121  O   -0.226493
   122  O   -0.373832
   123  C    0.131561
   124  H   -0.012261
   125  H    0.026135
   126  H   -0.012946
   127  H    0.024488
   128  H    0.020349
   129  H    0.029441
   130  H    0.045940
   131  H    0.057284
   132  H    0.021713
   133  H    0.024515
   134  H    0.065883
   135  H    0.071572
   136  H    0.043798
   137  H    0.041075
   138  H    0.041475
   139  H    0.037799
   140  H    0.075166
   141  H    0.054553
   142  H    0.039184
   143  H    0.033280
   144  H    0.015911
   145  H    0.046621
   146  H    0.047936
   147  H    0.025340
   148  H    0.022919
   149  H    0.043226
   150  H    0.039790
   151  H    0.045384
   152  H    0.059832
   153  H    0.054105
   154  H    0.037864
   155  H    0.081562
   156  H    0.047724
   157  H    0.063387
   158  H    0.058239
 Sum of Mulliken charges =  -0.00000

 Dipole moment (field-independent basis, Debye):
    X=             -2.8825    Y=             -2.9448    Z=             -4.0564  Tot=              5.7823
 Quadrupole moment (field-independent basis, Debye-Ang):
   XX=           -464.0434   YY=           -505.5694   ZZ=           -507.4613
   XY=              0.9500   XZ=              8.9956   YZ=              4.9924

 Normal termination of Gaussian 16 at Sun Sep 19 03:27:35 2021.
