 Gaussian 16, Revision A.03,
 Gaussian 16:  ES64L-G16RevA.03 25-Dec-2016

 --------------------------------
 #p wB97XD/Def2SVP td=(nstates=5)
 --------------------------------

 --------------------------------
 TDDFT excited states in gaussian
 --------------------------------
 Symbolic Z-matrix:
 Charge =  0 Multiplicity = 1

                         Standard orientation:
 ---------------------------------------------------------------------
 Center     Atomic      Atomic             Coordinates (Angstroms)
 Number     Number       Type             X           Y           Z
 ---------------------------------------------------------------------
      1         12           0       16.558600   -0.611503    0.442313
      2          6           0       15.692391    2.261394   -1.336526
      3          6           0       17.627509    1.271244    2.970073
      4          6           0       18.509398   -3.244905    1.414259
      5          6           0       15.473416   -2.537137   -2.250376
      6          7           0       16.494557    1.548355    0.846466
      7          6           0       16.092232    2.487427   -0.001159
      8          6           0       16.097723    3.875676    0.735375
      9          6           0       16.822921    3.538210    2.060113
     10          6           0       17.028842    2.029083    1.970542
     11          6           0       18.285906    4.194710    2.191330
     12          6           0       14.658143    4.514324    0.994346
     13          6           0       14.637540    5.983369    0.744567
     14          1           0       14.075493    6.916184    1.806263
     15          7           0       17.861598   -0.930666    1.997151
     16          6           0       18.163155   -0.018867    2.973819
     17          6           0       18.850838   -0.716156    4.069456
     18          6           0       19.102921   -2.035771    3.600851
     19          6           0       18.515756   -2.085673    2.251574
     20          6           0       19.293802   -0.006594    5.388676
     21          6           0       19.896463   -3.181781    4.297811
     22          8           0       20.059706   -4.297426    3.816626
     23          6           0       20.467932   -2.914956    5.638886
     24          7           0       16.960124   -2.532929   -0.289895
     25          6           0       17.862792   -3.465949    0.229132
     26          6           0       18.013400   -4.649161   -0.762456
     27          6           0       16.612609   -4.658107   -1.517795
     28          6           0       16.342592   -3.140225   -1.314716
     29          6           0       19.269028   -4.540714   -1.654073
     30          6           0       15.515130   -5.492387   -0.920714
     31          6           0       14.735390   -5.011689    0.266952
     32          7           0       15.563115   -0.309952   -1.341983
     33          6           0       15.215843   -1.164092   -2.363008
     34          6           0       14.565635   -0.459724   -3.470458
     35          6           0       14.817011    0.952746   -3.162843
     36          6           0       15.438418    0.953755   -1.853592
     37          6           0       14.061562   -1.048464   -4.686739
     38          6           0       14.693085    2.324412   -3.640848
     39          8           0       14.327235    2.779911   -4.658839
     40          6           0       15.197720    3.241162   -2.408352
     41          6           0       16.176348    4.320558   -2.796617
     42          8           0       17.398518    4.207913   -2.779765
     43          8           0       15.463000    5.484820   -3.079953
     44          6           0       16.234743    6.683777   -3.454142
     45          1           0       17.858563    1.695783    3.949644
     46          1           0       19.168501   -4.037562    1.775492
     47          1           0       15.069203   -3.205476   -3.013042
     48          1           0       16.715093    4.611917    0.220083
     49          1           0       16.318687    3.840648    2.977907
     50          1           0       18.156656    5.147987    2.704234
     51          1           0       18.769604    4.448557    1.248444
     52          1           0       18.894228    3.532275    2.808258
     53          1           0       14.326667    4.358791    2.021142
     54          1           0       13.841079    4.081465    0.416989
     55          1           0       13.939565    6.079681   -0.086643
     56          1           0       15.564281    6.461164    0.428057
     57          1           0       20.301055    0.363161    5.198839
     58          1           0       19.216693   -0.672210    6.248730
     59          1           0       18.808323    0.954592    5.560909
     60          1           0       20.940120   -1.962907    5.880743
     61          1           0       21.217629   -3.670118    5.873772
     62          1           0       19.751532   -3.225091    6.400139
     63          1           0       18.069660   -5.518784   -0.108340
     64          1           0       16.707680   -4.951418   -2.563124
     65          1           0       19.110519   -4.603140   -2.730696
     66          1           0       20.099292   -5.161823   -1.317189
     67          1           0       19.722095   -3.556571   -1.535834
     68          1           0       15.829224   -6.487293   -0.607429
     69          1           0       14.779400   -5.676910   -1.703632
     70          1           0       13.859229   -4.562796   -0.200614
     71          1           0       15.207971   -4.231076    0.863517
     72          1           0       14.465876   -5.865712    0.889168
     73          1           0       13.178471   -0.466827   -4.951844
     74          1           0       13.759338   -2.067710   -4.447398
     75          1           0       14.807484   -0.975853   -5.477596
     76          1           0       14.316686    3.739967   -2.004506
     77          1           0       16.894378    6.392785   -4.272088
     78          1           0       16.865753    7.012233   -2.628701
     79          1           0       15.709488    7.588489   -3.760699
     80         12           0      -16.292050   -0.638192    0.012866
     81          6           0      -18.444042    1.766518    1.162590
     82          6           0      -13.988049    1.705189   -0.619201
     83          6           0      -14.388249   -3.084997   -1.310705
     84          6           0      -19.011558   -3.041230    0.234126
     85          7           0      -16.358172    1.577098    0.012018
     86          6           0      -17.274226    2.340411    0.620097
     87          6           0      -16.808297    3.885836    0.636376
     88          6           0      -15.356050    3.735796    0.046929
     89          6           0      -15.196706    2.233722   -0.263193
     90          6           0      -15.060847    4.692911   -1.124282
     91          6           0      -16.843630    4.537357    2.047966
     92          6           0      -16.087528    5.889532    2.259731
     93          1           0      -16.948887    7.207577    2.323850
     94          7           0      -14.442312   -0.672334   -0.899420
     95          6           0      -13.613643    0.348205   -0.975437
     96          6           0      -12.368067   -0.108510   -1.573045
     97          6           0      -12.465890   -1.493978   -1.901955
     98          6           0      -13.806292   -1.811396   -1.362203
     99          6           0      -11.197185    0.779779   -1.959866
    100          6           0      -11.501364   -2.411723   -2.645937
    101          8           0      -11.873309   -3.493187   -3.092167
    102          6           0      -10.091287   -1.970761   -2.828606
    103          7           0      -16.676770   -2.760171   -0.510143
    104          6           0      -15.714676   -3.538548   -0.991103
    105          6           0      -16.137665   -5.016059   -1.041514
    106          6           0      -17.498456   -4.947217   -0.353317
    107          6           0      -17.748210   -3.489784   -0.238224
    108          6           0      -16.147357   -5.717509   -2.407872
    109          6           0      -17.618261   -5.827344    0.865033
    110          6           0      -18.678548   -6.982910    0.784496
    111          7           0      -18.247491   -0.684576    0.607548
    112          6           0      -19.222283   -1.730717    0.731466
    113          6           0      -20.426793   -1.249386    1.371412
    114          6           0      -20.102981    0.124101    1.552191
    115          6           0      -18.814802    0.395157    1.073965
    116          6           0      -21.626213   -1.964346    1.885735
    117          6           0      -20.623365    1.275808    2.244787
    118          8           0      -21.574129    1.463582    3.018507
    119          6           0      -19.695796    2.428054    1.950160
    120          6           0      -20.406754    3.387508    0.970429
    121          8           0      -21.083134    3.088329   -0.025578
    122          8           0      -20.154711    4.660784    1.387307
    123          6           0      -20.773209    5.782677    0.612219
    124          1           0      -13.114908    2.346631   -0.755786
    125          1           0      -13.929741   -3.884154   -1.896861
    126          1           0      -19.731487   -3.845088    0.397971
    127          1           0      -17.480252    4.364788   -0.074866
    128          1           0      -14.653480    3.940678    0.854685
    129          1           0      -14.059238    5.089756   -0.962386
    130          1           0      -15.737296    5.547638   -1.133109
    131          1           0      -15.117925    4.169464   -2.078742
    132          1           0      -16.270092    3.862807    2.683663
    133          1           0      -17.875877    4.708450    2.353198
    134          1           0      -15.480524    6.052618    1.368605
    135          1           0      -15.532798    5.835323    3.195813
    136          1           0      -11.385547    1.821512   -1.700322
    137          1           0      -11.030553    0.716505   -3.034919
    138          1           0      -10.273919    0.469757   -1.472058
    139          1           0       -9.763175   -1.652571   -1.838665
    140          1           0       -9.802589   -1.169646   -3.508345
    141          1           0       -9.441134   -2.770649   -3.181338
    142          1           0      -15.444766   -5.577045   -0.415318
    143          1           0      -18.233217   -5.340175   -1.055810
    144          1           0      -15.767818   -6.716044   -2.192541
    145          1           0      -15.570188   -5.148072   -3.136231
    146          1           0      -17.120842   -5.735003   -2.897793
    147          1           0      -17.999507   -5.152398    1.630662
    148          1           0      -16.681045   -6.300554    1.156525
    149          1           0      -19.198155   -6.945517   -0.173325
    150          1           0      -19.409922   -6.803924    1.573231
    151          1           0      -18.299226   -7.982260    0.998315
    152          1           0      -21.464086   -3.041367    1.851872
    153          1           0      -22.406270   -1.776134    1.148945
    154          1           0      -21.760502   -1.586132    2.900185
    155          1           0      -19.528458    2.889715    2.923466
    156          1           0      -20.676595    5.706714   -0.471106
    157          1           0      -20.446743    6.775615    0.919637
    158          1           0      -21.844780    5.699673    0.792929
 ---------------------------------------------------------------------

 SCF Done:  E(RwB97XD) =  -4070.61907831     A.U. after   19 cycles

 Excitation energies and oscillator strengths:

 Excited State   1:      Singlet-A      1.6237 eV  763.60 nm  f=0.3816  <S**2>=0.000
     309 -> 316        0.18249
     312 -> 314        0.68380
     309 <- 316        0.11746
 This state for optimization and/or second-order correction.
 Total Energy, E(TD-HF/TD-DFT) =  -4070.55940883
 Copying the excited state density for this state as the 1-particle RhoCI density.

 Excited State   2:      Singlet-A      1.6637 eV  745.25 nm  f=0.3986  <S**2>=0.000
     310 -> 315       -0.18161
     311 -> 313        0.68123
     310 <- 315       -0.11246

 Excited State   3:      Singlet-A      2.2000 eV  563.57 nm  f=0.0996  <S**2>=0.000
     309 -> 314        0.63110
     312 -> 316       -0.30769

 Excited State   4:      Singlet-A      2.2222 eV  557.92 nm  f=0.1108  <S**2>=0.000
     310 -> 313        0.63691
     311 -> 315        0.28922

 Excited State   5:      Singlet-A      3.3927 eV  365.45 nm  f=0.0181  <S**2>=0.000
     308 -> 314        0.66068
     312 -> 316        0.18013

 The electronic state is 1-A.
 Alpha  occ. eigenvalues --  -46.95540 -46.94315 -19.30838 -19.30325 -19.25102
 Alpha  occ. eigenvalues --  -19.24810 -19.24582 -19.24396 -19.24229 -19.22745
 Alpha  occ. eigenvalues --  -14.46816 -14.46667 -14.46271 -14.46072 -14.44689
 Alpha  occ. eigenvalues --  -14.43963 -14.43887 -14.43847 -10.43613 -10.43413
 Alpha  occ. eigenvalues --  -10.40083 -10.39641 -10.39604 -10.37357 -10.35926
 Alpha  occ. eigenvalues --  -10.35728 -10.35601 -10.35419 -10.35006 -10.34665
 Alpha  occ. eigenvalues --  -10.34614 -10.34491 -10.34439 -10.34354 -10.34072
 Alpha  occ. eigenvalues --  -10.34032 -10.33984 -10.33930 -10.33856 -10.33584
 Alpha  occ. eigenvalues --  -10.33429 -10.33349 -10.32962 -10.32899 -10.32796
 Alpha  occ. eigenvalues --  -10.32739 -10.32520 -10.32438 -10.32430 -10.32411
 Alpha  occ. eigenvalues --  -10.32291 -10.32190 -10.32161 -10.32130 -10.31987
 Alpha  occ. eigenvalues --  -10.31810 -10.31755 -10.31669 -10.31661 -10.31581
 Alpha  occ. eigenvalues --  -10.31516 -10.31197 -10.31055 -10.30975 -10.30881
 Alpha  occ. eigenvalues --  -10.30790 -10.30728 -10.30719 -10.30614 -10.30412
 Alpha  occ. eigenvalues --  -10.30249 -10.30240 -10.30210 -10.30193 -10.30123
 Alpha  occ. eigenvalues --  -10.30043 -10.30032 -10.29845 -10.29708 -10.29546
 Alpha  occ. eigenvalues --  -10.29526 -10.29513 -10.29431 -10.29415 -10.28436
 Alpha  occ. eigenvalues --  -10.28414  -3.21507  -3.20435  -1.95087  -1.94621
 Alpha  occ. eigenvalues --   -1.94491  -1.94033  -1.93538  -1.93438  -1.17727
 Alpha  occ. eigenvalues --   -1.17388  -1.15282  -1.12620  -1.12393  -1.10191
 Alpha  occ. eigenvalues --   -1.09719  -1.08725  -1.07737  -1.07222  -1.06413
 Alpha  occ. eigenvalues --   -1.05911  -1.05623  -1.04989  -1.04947  -1.04229
 Alpha  occ. eigenvalues --   -0.93909  -0.93243  -0.91783  -0.90941  -0.90590
 Alpha  occ. eigenvalues --   -0.90523  -0.90106  -0.89997  -0.89503  -0.89194
 Alpha  occ. eigenvalues --   -0.89087  -0.88954  -0.88870  -0.88263  -0.86111
 Alpha  occ. eigenvalues --   -0.86110  -0.85541  -0.85226  -0.84501  -0.84290
 Alpha  occ. eigenvalues --   -0.84065  -0.83813  -0.83037  -0.83006  -0.82384
 Alpha  occ. eigenvalues --   -0.82007  -0.80499  -0.80241  -0.79478  -0.79217
 Alpha  occ. eigenvalues --   -0.78732  -0.78672  -0.78017  -0.77812  -0.77290
 Alpha  occ. eigenvalues --   -0.76837  -0.74635  -0.74305  -0.73667  -0.73485
 Alpha  occ. eigenvalues --   -0.71368  -0.71190  -0.71067  -0.70560  -0.69737
 Alpha  occ. eigenvalues --   -0.69702  -0.69582  -0.68753  -0.67777  -0.67692
 Alpha  occ. eigenvalues --   -0.66897  -0.66667  -0.66418  -0.66294  -0.66085
 Alpha  occ. eigenvalues --   -0.65908  -0.64623  -0.63859  -0.62735  -0.62184
 Alpha  occ. eigenvalues --   -0.61625  -0.61599  -0.60929  -0.60873  -0.60621
 Alpha  occ. eigenvalues --   -0.60152  -0.59984  -0.59807  -0.59371  -0.59263
 Alpha  occ. eigenvalues --   -0.58314  -0.57841  -0.57646  -0.57532  -0.57351
 Alpha  occ. eigenvalues --   -0.57084  -0.56807  -0.56469  -0.56106  -0.56065
 Alpha  occ. eigenvalues --   -0.55687  -0.55572  -0.55364  -0.55349  -0.54915
 Alpha  occ. eigenvalues --   -0.54742  -0.54486  -0.54478  -0.54143  -0.54119
 Alpha  occ. eigenvalues --   -0.53750  -0.53627  -0.53603  -0.53363  -0.53260
 Alpha  occ. eigenvalues --   -0.53128  -0.53051  -0.52651  -0.52455  -0.52382
 Alpha  occ. eigenvalues --   -0.52174  -0.52060  -0.51865  -0.51737  -0.51603
 Alpha  occ. eigenvalues --   -0.51601  -0.51483  -0.51278  -0.51094  -0.50998
 Alpha  occ. eigenvalues --   -0.50885  -0.50575  -0.50483  -0.50278  -0.50129
 Alpha  occ. eigenvalues --   -0.49950  -0.49777  -0.49761  -0.49622  -0.49240
 Alpha  occ. eigenvalues --   -0.48942  -0.48824  -0.48737  -0.48562  -0.48326
 Alpha  occ. eigenvalues --   -0.48237  -0.48092  -0.48077  -0.47882  -0.47800
 Alpha  occ. eigenvalues --   -0.47473  -0.47183  -0.46924  -0.46914  -0.46678
 Alpha  occ. eigenvalues --   -0.46602  -0.46439  -0.46331  -0.46326  -0.46147
 Alpha  occ. eigenvalues --   -0.46066  -0.45937  -0.45777  -0.45706  -0.45538
 Alpha  occ. eigenvalues --   -0.45313  -0.45249  -0.44844  -0.44761  -0.44718
 Alpha  occ. eigenvalues --   -0.44641  -0.44178  -0.43978  -0.43898  -0.43838
 Alpha  occ. eigenvalues --   -0.43761  -0.43565  -0.43493  -0.43455  -0.43407
 Alpha  occ. eigenvalues --   -0.43135  -0.43105  -0.42725  -0.42431  -0.42352
 Alpha  occ. eigenvalues --   -0.42167  -0.41191  -0.41088  -0.40992  -0.40648
 Alpha  occ. eigenvalues --   -0.40185  -0.40007  -0.39787  -0.39653  -0.39182
 Alpha  occ. eigenvalues --   -0.38997  -0.38704  -0.38687  -0.38649  -0.38211
 Alpha  occ. eigenvalues --   -0.37893  -0.37889  -0.36476  -0.36329  -0.36274
 Alpha  occ. eigenvalues --   -0.35996  -0.35573  -0.35115  -0.33927  -0.33450
 Alpha  occ. eigenvalues --   -0.33335  -0.33327  -0.33180  -0.32794  -0.32237
 Alpha  occ. eigenvalues --   -0.31958  -0.31820  -0.31818  -0.25956  -0.25842
 Alpha  occ. eigenvalues --   -0.22923  -0.22636
 Alpha virt. eigenvalues --   -0.06906  -0.06862   0.00149   0.00487   0.02433
 Alpha virt. eigenvalues --    0.02621   0.04489   0.04609   0.05065   0.05857
 Alpha virt. eigenvalues --    0.06677   0.07473   0.07825   0.08022   0.08750

 Mulliken charges:
               1
     1  Mg   0.983814
     2  C    0.016771
     3  C   -0.089866
     4  C   -0.082574
     5  C   -0.106085
     6  N   -0.316752
     7  C    0.009604
     8  C   -0.040582
     9  C   -0.128946
    10  C    0.104148
    11  C   -0.004724
    12  C    0.028223
    13  C   -0.147871
    14  H    0.026058
    15  N   -0.453147
    16  C    0.111603
    17  C   -0.155629
    18  C   -0.103350
    19  C    0.123869
    20  C    0.045703
    21  C    0.084769
    22  O   -0.233007
    23  C   -0.023413
    24  N   -0.364410
    25  C    0.051582
    26  C   -0.053103
    27  C   -0.060044
    28  C    0.046640
    29  C    0.044646
    30  C   -0.025430
    31  C   -0.034951
    32  N   -0.448266
    33  C    0.163804
    34  C   -0.168987
    35  C   -0.084464
    36  C    0.117413
    37  C    0.077069
    38  C    0.137574
    39  O   -0.142257
    40  C   -0.138936
    41  C    0.283372
    42  O   -0.249029
    43  O   -0.383397
    44  C    0.146996
    45  H   -0.013052
    46  H    0.021676
    47  H   -0.009702
    48  H    0.043045
    49  H    0.044021
    50  H    0.031221
    51  H    0.051274
    52  H    0.038105
    53  H    0.037863
    54  H    0.036879
    55  H    0.053866
    56  H    0.051510
    57  H    0.057765
    58  H    0.063619
    59  H    0.032683
    60  H    0.059367
    61  H    0.038742
    62  H    0.062575
    63  H    0.024399
    64  H    0.023904
    65  H    0.039179
    66  H    0.044534
    67  H    0.032116
    68  H    0.026754
    69  H    0.023424
    70  H    0.026892
    71  H    0.051684
    72  H    0.040157
    73  H    0.057277
    74  H    0.036623
    75  H    0.074644
    76  H    0.075892
    77  H    0.054294
    78  H    0.040590
    79  H    0.061742
    80  Mg   0.970450
    81  C   -0.074829
    82  C   -0.078683
    83  C   -0.049509
    84  C   -0.066295
    85  N   -0.355530
    86  C   -0.026067
    87  C   -0.008948
    88  C   -0.153413
    89  C    0.119928
    90  C    0.024353
    91  C   -0.009631
    92  C   -0.131330
    93  H    0.015025
    94  N   -0.438318
    95  C    0.116651
    96  C   -0.187107
    97  C   -0.059125
    98  C    0.130959
    99  C    0.069824
   100  C    0.087792
   101  O   -0.227288
   102  C   -0.033577
   103  N   -0.274108
   104  C   -0.007281
   105  C   -0.114716
   106  C   -0.055466
   107  C    0.009535
   108  C    0.036072
   109  C    0.000430
   110  C   -0.068105
   111  N   -0.456987
   112  C    0.123480
   113  C   -0.170487
   114  C   -0.077006
   115  C    0.206095
   116  C    0.109168
   117  C    0.102739
   118  O   -0.239427
   119  C   -0.055717
   120  C    0.293635
   121  O   -0.266020
   122  O   -0.365211
   123  C    0.138576
   124  H   -0.019849
   125  H    0.029535
   126  H    0.004085
   127  H    0.040467
   128  H    0.037064
   129  H    0.034005
   130  H    0.041471
   131  H    0.049676
   132  H    0.031914
   133  H    0.073423
   134  H    0.048341
   135  H    0.065618
   136  H    0.031735
   137  H    0.051486
   138  H    0.041153
   139  H    0.048814
   140  H    0.063295
   141  H    0.052487
   142  H    0.038851
   143  H    0.021339
   144  H    0.046522
   145  H    0.044307
   146  H    0.029792
   147  H    0.030496
   148  H    0.036909
   149  H    0.033105
   150  H    0.033424
   151  H    0.041965
   152  H    0.019303
   153  H    0.065423
   154  H    0.081070
   155  H    0.069618
   156  H    0.058575
   157  H    0.063574
   158  H    0.056473
 Sum of Mulliken charges =  -0.00000

 Dipole moment (field-independent basis, Debye):
    X=              4.3508    Y=              1.0653    Z=              3.3687  Tot=              5.6047
 Quadrupole moment (field-independent basis, Debye-Ang):
   XX=           -721.9906   YY=           -462.3477   ZZ=           -513.9787
   XY=             37.7942   XZ=             67.4583   YZ=              8.8711

 Normal termination of Gaussian 16 at Sat Sep 18 19:43:03 2021.
