 Gaussian 16, Revision A.03,
 Gaussian 16:  ES64L-G16RevA.03 25-Dec-2016

 --------------------------------
 #p wB97XD/Def2SVP td=(nstates=5)
 --------------------------------

 --------------------------------
 TDDFT excited states in gaussian
 --------------------------------
 Symbolic Z-matrix:
 Charge =  0 Multiplicity = 1

                         Standard orientation:
 ---------------------------------------------------------------------
 Center     Atomic      Atomic             Coordinates (Angstroms)
 Number     Number       Type             X           Y           Z
 ---------------------------------------------------------------------
      1         12           0       18.654721   -0.310399   -0.116157
      2          6           0       15.202357   -0.620205   -0.335803
      3          6           0       18.455748    2.555807   -2.190724
      4          6           0       21.658489    0.683111    0.958306
      5          6           0       18.581071   -2.727679    2.448994
      6          7           0       16.903522    1.067155   -0.882799
      7          6           0       15.646048    0.533535   -1.032274
      8          6           0       14.770818    1.415955   -1.865870
      9          6           0       15.853882    2.277382   -2.664178
     10          6           0       17.180839    2.002507   -1.872085
     11          6           0       16.002613    1.943875   -4.233678
     12          6           0       13.702601    2.196598   -0.940155
     13          6           0       12.487518    2.587663   -1.616067
     14          1           0       12.181554    4.097022   -1.514436
     15          7           0       19.966491    1.256459   -0.663985
     16          6           0       19.699286    2.340054   -1.546847
     17          6           0       20.911883    3.135146   -1.642384
     18          6           0       21.879897    2.607619   -0.753538
     19          6           0       21.211927    1.401393   -0.158938
     20          6           0       20.970237    4.388594   -2.433317
     21          6           0       23.299746    3.262131   -0.487116
     22          8           0       23.567695    4.284241   -1.116787
     23          6           0       24.407793    2.517987    0.250145
     24          7           0       19.841307   -0.895071    1.533327
     25          6           0       21.094810   -0.388013    1.649445
     26          6           0       21.894147   -0.957822    2.979034
     27          6           0       20.971409   -2.222529    3.326406
     28          6           0       19.730376   -2.003745    2.404374
     29          6           0       23.386301   -1.405953    2.743910
     30          6           0       20.569646   -2.286685    4.801159
     31          6           0       20.928444   -3.517117    5.668415
     32          7           0       17.269611   -1.634579    0.653164
     33          6           0       17.396819   -2.562347    1.645866
     34          6           0       16.180806   -3.322457    1.737457
     35          6           0       15.259019   -2.509242    0.976621
     36          6           0       16.001430   -1.473689    0.383841
     37          6           0       15.911477   -4.468599    2.669160
     38          6           0       13.856296   -2.342987    0.657950
     39          8           0       12.936457   -3.082661    0.834497
     40          6           0       13.716187   -1.095092   -0.298295
     41          6           0       13.243782   -1.428665   -1.730564
     42          8           0       13.730155   -2.287922   -2.433901
     43          8           0       12.107409   -0.655306   -2.045414
     44          6           0       11.436419   -0.964610   -3.271818
     45          1           0       18.338403    3.385075   -2.890322
     46          1           0       22.511893    1.093720    1.501642
     47          1           0       18.610576   -3.481885    3.237512
     48          1           0       14.310696    0.879629   -2.696421
     49          1           0       15.589892    3.330232   -2.558264
     50          1           0       15.767154    2.876928   -4.745449
     51          1           0       15.346795    1.137323   -4.560055
     52          1           0       17.050736    1.688114   -4.391672
     53          1           0       14.242603    3.094214   -0.639315
     54          1           0       13.628870    1.515672   -0.091784
     55          1           0       11.687050    2.013969   -1.150460
     56          1           0       12.567520    2.374872   -2.682062
     57          1           0       20.115533    4.481773   -3.103081
     58          1           0       21.830483    4.365895   -3.102785
     59          1           0       20.969543    5.265887   -1.786009
     60          1           0       24.190125    2.336388    1.303111
     61          1           0       25.321218    3.103807    0.142221
     62          1           0       24.568065    1.576199   -0.274812
     63          1           0       21.747878   -0.165965    3.713144
     64          1           0       21.356746   -3.181548    2.979456
     65          1           0       24.059430   -0.736188    3.278294
     66          1           0       23.615506   -1.359428    1.678622
     67          1           0       23.468753   -2.424034    3.125969
     68          1           0       19.510732   -2.069093    4.938788
     69          1           0       20.922604   -1.451519    5.405940
     70          1           0       20.110932   -4.164206    5.987462
     71          1           0       21.337872   -3.099309    6.588463
     72          1           0       21.651817   -4.159053    5.164235
     73          1           0       15.043996   -4.999630    2.276481
     74          1           0       15.444464   -4.195590    3.614927
     75          1           0       16.773941   -5.097314    2.888884
     76          1           0       12.942639   -0.502406    0.190818
     77          1           0       10.992060    0.005608   -3.496261
     78          1           0       10.578502   -1.618185   -3.114933
     79          1           0       12.127747   -1.392157   -3.996918
     80         12           0      -18.195282    0.266536    0.555373
     81          6           0      -15.568701   -1.060709   -1.291236
     82          6           0      -20.052999   -2.479752   -0.327765
     83          6           0      -20.896740    1.691015    2.164064
     84          6           0      -16.466757    3.268456    0.944289
     85          7           0      -17.794649   -1.591920   -0.589550
     86          6           0      -16.642108   -1.984096   -1.158828
     87          6           0      -16.644729   -3.432939   -1.699638
     88          6           0      -18.188591   -3.791774   -1.591963
     89          6           0      -18.772192   -2.518577   -0.811154
     90          6           0      -18.764559   -4.014388   -3.035802
     91          6           0      -15.683924   -4.299692   -0.734317
     92          6           0      -14.545733   -5.105402   -1.427102
     93          1           0      -14.792467   -5.377372   -2.955139
     94          7           0      -20.216615   -0.234411    0.838065
     95          6           0      -20.759337   -1.478323    0.454873
     96          6           0      -22.074407   -1.612128    1.044458
     97          6           0      -22.358575   -0.416628    1.716580
     98          6           0      -21.093677    0.406368    1.668803
     99          6           0      -23.018441   -2.751114    0.633741
    100          6           0      -23.678119   -0.007273    2.423069
    101          8           0      -23.870495    1.072750    3.012262
    102          6           0      -24.822689   -1.033929    2.473744
    103          7           0      -18.599767    2.247621    1.347003
    104          6           0      -19.824400    2.529238    2.025671
    105          6           0      -19.898791    4.024377    2.399625
    106          6           0      -18.360001    4.437178    2.255757
    107          6           0      -17.750892    3.223885    1.505214
    108          6           0      -20.908853    4.721617    1.503319
    109          6           0      -17.671267    4.618130    3.673838
    110          6           0      -17.686698    3.559639    4.828805
    111          7           0      -16.449951    1.021829   -0.086841
    112          6           0      -15.854183    2.269546    0.121464
    113          6           0      -14.575784    2.286543   -0.512212
    114          6           0      -14.396548    1.017802   -1.033208
    115          6           0      -15.600848    0.294077   -0.850931
    116          6           0      -13.629488    3.462225   -0.645115
    117          6           0      -13.485422    0.197761   -1.728198
    118          8           0      -12.436945    0.517971   -2.190418
    119          6           0      -14.265932   -1.149399   -2.023858
    120          6           0      -14.452352   -1.201734   -3.515064
    121          8           0      -15.508745   -0.994150   -4.074560
    122          8           0      -13.259708   -1.472262   -4.058603
    123          6           0      -13.184827   -1.116718   -5.454528
    124          1           0      -20.626187   -3.385682   -0.534454
    125          1           0      -21.815350    2.207237    2.448308
    126          1           0      -15.916483    4.206575    1.047403
    127          1           0      -16.262065   -3.549737   -2.713374
    128          1           0      -18.414464   -4.665325   -0.979982
    129          1           0      -19.737295   -3.558221   -3.221167
    130          1           0      -18.815184   -5.102789   -3.024867
    131          1           0      -17.976093   -3.733746   -3.733723
    132          1           0      -16.330638   -4.905259   -0.099723
    133          1           0      -15.219492   -3.594021   -0.045090
    134          1           0      -14.561061   -6.024772   -0.842766
    135          1           0      -13.552794   -4.664520   -1.343913
    136          1           0      -23.932714   -2.288055    0.261692
    137          1           0      -23.306545   -3.317691    1.520248
    138          1           0      -22.533567   -3.385437   -0.107658
    139          1           0      -25.240156   -1.088600    1.467490
    140          1           0      -25.598435   -0.575360    3.086731
    141          1           0      -24.492194   -1.921855    3.012133
    142          1           0      -20.137650    4.029007    3.463521
    143          1           0      -18.283191    5.419909    1.791930
    144          1           0      -21.704273    4.060416    1.159095
    145          1           0      -20.417248    5.141690    0.626141
    146          1           0      -21.432476    5.506410    2.048844
    147          1           0      -18.012484    5.567781    4.086068
    148          1           0      -16.613088    4.660004    3.415637
    149          1           0      -18.580264    3.725516    5.430739
    150          1           0      -16.788160    3.759743    5.413665
    151          1           0      -17.561161    2.518778    4.528852
    152          1           0      -13.313515    3.849454    0.323719
    153          1           0      -14.225653    4.216445   -1.158365
    154          1           0      -12.655265    3.238183   -1.081880
    155          1           0      -13.781209   -2.087642   -1.753358
    156          1           0      -12.189461   -0.817166   -5.781735
    157          1           0      -13.921846   -0.461803   -5.919060
    158          1           0      -13.383067   -1.952642   -6.125721
 ---------------------------------------------------------------------

 SCF Done:  E(RwB97XD) =  -4070.58539049     A.U. after   19 cycles

 Excitation energies and oscillator strengths:

 Excited State   1:      Singlet-A      1.6352 eV  758.23 nm  f=0.4253  <S**2>=0.000
     309 -> 315       -0.17829
     311 -> 313        0.68524
     309 <- 315       -0.11643
 This state for optimization and/or second-order correction.
 Total Energy, E(TD-HF/TD-DFT) =  -4070.52529894
 Copying the excited state density for this state as the 1-particle RhoCI density.

 Excited State   2:      Singlet-A      1.6515 eV  750.73 nm  f=0.3552  <S**2>=0.000
     310 -> 316       -0.18059
     312 -> 314        0.68342
     310 <- 316       -0.11541

 Excited State   3:      Singlet-A      2.1707 eV  571.18 nm  f=0.1248  <S**2>=0.000
     310 -> 314        0.64461
     312 -> 316        0.27782

 Excited State   4:      Singlet-A      2.1962 eV  564.54 nm  f=0.1041  <S**2>=0.000
     309 -> 313        0.63437
     311 -> 315        0.29405

 Excited State   5:      Singlet-A      3.3902 eV  365.72 nm  f=0.0208  <S**2>=0.000
     304 -> 313        0.56092
     306 -> 313       -0.12390
     308 -> 313       -0.35258
     311 -> 315       -0.15571

 The electronic state is 1-A.
 Alpha  occ. eigenvalues --  -46.96149 -46.94392 -19.31366 -19.30341 -19.25652
 Alpha  occ. eigenvalues --  -19.24990 -19.24761 -19.24417 -19.23553 -19.23244
 Alpha  occ. eigenvalues --  -14.46923 -14.46808 -14.46617 -14.45996 -14.44830
 Alpha  occ. eigenvalues --  -14.44086 -14.43671 -14.43621 -10.43937 -10.43139
 Alpha  occ. eigenvalues --  -10.40417 -10.39022 -10.38835 -10.37972 -10.35904
 Alpha  occ. eigenvalues --  -10.35706 -10.35641 -10.35297 -10.35170 -10.35114
 Alpha  occ. eigenvalues --  -10.35077 -10.34666 -10.34525 -10.34454 -10.34300
 Alpha  occ. eigenvalues --  -10.34250 -10.33852 -10.33794 -10.33598 -10.33584
 Alpha  occ. eigenvalues --  -10.33573 -10.33354 -10.32934 -10.32710 -10.32696
 Alpha  occ. eigenvalues --  -10.32585 -10.32558 -10.32547 -10.32413 -10.32343
 Alpha  occ. eigenvalues --  -10.32319 -10.32253 -10.32174 -10.32092 -10.32022
 Alpha  occ. eigenvalues --  -10.31994 -10.31884 -10.31726 -10.31705 -10.31680
 Alpha  occ. eigenvalues --  -10.31679 -10.31598 -10.31050 -10.31009 -10.30950
 Alpha  occ. eigenvalues --  -10.30752 -10.30742 -10.30720 -10.30581 -10.30545
 Alpha  occ. eigenvalues --  -10.30493 -10.30457 -10.30363 -10.30361 -10.30204
 Alpha  occ. eigenvalues --  -10.30168 -10.29668 -10.29628 -10.29591 -10.29527
 Alpha  occ. eigenvalues --  -10.29425 -10.29396 -10.29151 -10.29056 -10.28751
 Alpha  occ. eigenvalues --  -10.28630  -3.22034  -3.20424  -1.95564  -1.95206
 Alpha  occ. eigenvalues --   -1.94966  -1.94016  -1.93527  -1.93417  -1.20335
 Alpha  occ. eigenvalues --   -1.18223  -1.14275  -1.12986  -1.12555  -1.11253
 Alpha  occ. eigenvalues --   -1.10918  -1.10456  -1.06894  -1.06156  -1.05301
 Alpha  occ. eigenvalues --   -1.04967  -1.04715  -1.04383  -1.03633  -1.03108
 Alpha  occ. eigenvalues --   -0.94794  -0.94189  -0.91102  -0.90404  -0.90266
 Alpha  occ. eigenvalues --   -0.90066  -0.89956  -0.89599  -0.88995  -0.88804
 Alpha  occ. eigenvalues --   -0.88400  -0.88384  -0.87893  -0.87763  -0.85994
 Alpha  occ. eigenvalues --   -0.85853  -0.85240  -0.85232  -0.84615  -0.84160
 Alpha  occ. eigenvalues --   -0.84124  -0.83130  -0.83098  -0.82776  -0.82222
 Alpha  occ. eigenvalues --   -0.81842  -0.79752  -0.79612  -0.79299  -0.78989
 Alpha  occ. eigenvalues --   -0.78688  -0.78628  -0.78049  -0.77755  -0.76891
 Alpha  occ. eigenvalues --   -0.76857  -0.74935  -0.74651  -0.73330  -0.73113
 Alpha  occ. eigenvalues --   -0.71142  -0.70794  -0.70604  -0.70410  -0.69902
 Alpha  occ. eigenvalues --   -0.69404  -0.68475  -0.68296  -0.67849  -0.67780
 Alpha  occ. eigenvalues --   -0.66833  -0.66514  -0.66451  -0.66428  -0.66097
 Alpha  occ. eigenvalues --   -0.65839  -0.64791  -0.64340  -0.61956  -0.61697
 Alpha  occ. eigenvalues --   -0.61435  -0.61385  -0.60981  -0.60876  -0.60523
 Alpha  occ. eigenvalues --   -0.60357  -0.59978  -0.59968  -0.59454  -0.59211
 Alpha  occ. eigenvalues --   -0.58331  -0.58179  -0.57632  -0.57282  -0.56941
 Alpha  occ. eigenvalues --   -0.56876  -0.56683  -0.56337  -0.55926  -0.55866
 Alpha  occ. eigenvalues --   -0.55283  -0.55179  -0.55030  -0.54676  -0.54496
 Alpha  occ. eigenvalues --   -0.54412  -0.54410  -0.54071  -0.54038  -0.53868
 Alpha  occ. eigenvalues --   -0.53797  -0.53691  -0.53651  -0.53586  -0.52955
 Alpha  occ. eigenvalues --   -0.52836  -0.52705  -0.52551  -0.52158  -0.52014
 Alpha  occ. eigenvalues --   -0.51818  -0.51732  -0.51679  -0.51578  -0.51425
 Alpha  occ. eigenvalues --   -0.51147  -0.51045  -0.51033  -0.50711  -0.50710
 Alpha  occ. eigenvalues --   -0.50455  -0.50362  -0.50195  -0.49922  -0.49823
 Alpha  occ. eigenvalues --   -0.49799  -0.49632  -0.49366  -0.49220  -0.49061
 Alpha  occ. eigenvalues --   -0.48991  -0.48919  -0.48551  -0.48351  -0.48153
 Alpha  occ. eigenvalues --   -0.48075  -0.48060  -0.47880  -0.47719  -0.47574
 Alpha  occ. eigenvalues --   -0.47456  -0.47167  -0.47111  -0.46879  -0.46865
 Alpha  occ. eigenvalues --   -0.46735  -0.46494  -0.46426  -0.46410  -0.46220
 Alpha  occ. eigenvalues --   -0.46021  -0.45894  -0.45642  -0.45545  -0.45448
 Alpha  occ. eigenvalues --   -0.45351  -0.45339  -0.45072  -0.44965  -0.44880
 Alpha  occ. eigenvalues --   -0.44720  -0.44615  -0.44543  -0.44422  -0.44259
 Alpha  occ. eigenvalues --   -0.44171  -0.43770  -0.43677  -0.43384  -0.43236
 Alpha  occ. eigenvalues --   -0.42947  -0.42879  -0.42665  -0.42568  -0.42355
 Alpha  occ. eigenvalues --   -0.42153  -0.41708  -0.41424  -0.41013  -0.40609
 Alpha  occ. eigenvalues --   -0.40173  -0.39689  -0.39633  -0.39361  -0.39067
 Alpha  occ. eigenvalues --   -0.39035  -0.38951  -0.38668  -0.38412  -0.38231
 Alpha  occ. eigenvalues --   -0.38123  -0.37563  -0.36742  -0.36725  -0.36240
 Alpha  occ. eigenvalues --   -0.36056  -0.35532  -0.34902  -0.33779  -0.33580
 Alpha  occ. eigenvalues --   -0.33447  -0.33023  -0.32453  -0.32427  -0.32281
 Alpha  occ. eigenvalues --   -0.31935  -0.31664  -0.31291  -0.26254  -0.25656
 Alpha  occ. eigenvalues --   -0.22978  -0.22751
 Alpha virt. eigenvalues --   -0.07117  -0.06870   0.00258   0.00637   0.02519
 Alpha virt. eigenvalues --    0.02645   0.04261   0.04499   0.04631   0.05651
 Alpha virt. eigenvalues --    0.06737   0.07093   0.07144   0.08355   0.08439

 Mulliken charges:
               1
     1  Mg   0.961171
     2  C   -0.078270
     3  C   -0.075627
     4  C   -0.093960
     5  C   -0.091004
     6  N   -0.325343
     7  C   -0.039519
     8  C   -0.084337
     9  C   -0.134158
    10  C    0.034756
    11  C    0.014956
    12  C    0.052924
    13  C   -0.094393
    14  H    0.019900
    15  N   -0.466616
    16  C    0.174759
    17  C   -0.161662
    18  C   -0.102743
    19  C    0.203614
    20  C    0.095122
    21  C    0.076004
    22  O   -0.234444
    23  C   -0.028176
    24  N   -0.403960
    25  C    0.073791
    26  C   -0.123918
    27  C   -0.024143
    28  C    0.034403
    29  C    0.024335
    30  C   -0.029723
    31  C   -0.054240
    32  N   -0.416158
    33  C    0.139561
    34  C   -0.160945
    35  C   -0.085667
    36  C    0.221627
    37  C    0.066589
    38  C    0.108991
    39  O   -0.181741
    40  C   -0.079820
    41  C    0.276418
    42  O   -0.220986
    43  O   -0.387229
    44  C    0.130546
    45  H    0.011428
    46  H   -0.019744
    47  H   -0.007334
    48  H    0.027380
    49  H    0.037150
    50  H    0.043872
    51  H    0.052438
    52  H    0.042159
    53  H    0.036898
    54  H    0.036988
    55  H    0.063475
    56  H    0.049720
    57  H    0.010738
    58  H    0.056853
    59  H    0.066418
    60  H    0.071076
    61  H    0.057636
    62  H    0.067772
    63  H    0.055938
    64  H    0.043560
    65  H    0.039929
    66  H    0.046120
    67  H    0.045217
    68  H    0.031555
    69  H    0.018909
    70  H    0.040048
    71  H    0.034064
    72  H    0.032253
    73  H    0.049867
    74  H    0.043559
    75  H    0.043522
    76  H    0.072509
    77  H    0.046085
    78  H    0.054236
    79  H    0.067020
    80  Mg   0.964373
    81  C   -0.022377
    82  C   -0.067126
    83  C   -0.064500
    84  C   -0.108225
    85  N   -0.333645
    86  C    0.014202
    87  C   -0.076100
    88  C   -0.120535
    89  C    0.066853
    90  C    0.027395
    91  C   -0.000187
    92  C   -0.127160
    93  H    0.034986
    94  N   -0.460830
    95  C    0.133629
    96  C   -0.174153
    97  C   -0.090078
    98  C    0.138056
    99  C    0.086268
   100  C    0.051106
   101  O   -0.252440
   102  C   -0.016060
   103  N   -0.338893
   104  C    0.022127
   105  C   -0.061325
   106  C   -0.072379
   107  C    0.096985
   108  C    0.042019
   109  C   -0.059413
   110  C   -0.054436
   111  N   -0.488723
   112  C    0.148357
   113  C   -0.184071
   114  C   -0.008106
   115  C    0.148353
   116  C    0.079495
   117  C    0.095223
   118  O   -0.162796
   119  C   -0.097325
   120  C    0.245537
   121  O   -0.237025
   122  O   -0.309715
   123  C    0.140949
   124  H   -0.012953
   125  H    0.030836
   126  H    0.003263
   127  H    0.039832
   128  H    0.038831
   129  H    0.052126
   130  H    0.032881
   131  H    0.049473
   132  H    0.033231
   133  H    0.042348
   134  H    0.057056
   135  H    0.070096
   136  H    0.044595
   137  H    0.039393
   138  H    0.041551
   139  H    0.061750
   140  H    0.044409
   141  H    0.063900
   142  H    0.035089
   143  H    0.030252
   144  H    0.046236
   145  H    0.035046
   146  H    0.037223
   147  H    0.038874
   148  H    0.021511
   149  H    0.047701
   150  H    0.037270
   151  H    0.043678
   152  H    0.037594
   153  H    0.056809
   154  H    0.057414
   155  H    0.056515
   156  H    0.058034
   157  H    0.054670
   158  H    0.025177
 Sum of Mulliken charges =  -0.00000

 Dipole moment (field-independent basis, Debye):
    X=              3.4624    Y=             -1.6938    Z=              1.1380  Tot=              4.0190
 Quadrupole moment (field-independent basis, Debye-Ang):
   XX=           -446.8904   YY=           -498.4197   ZZ=           -487.9225
   XY=             28.4087   XZ=             41.4349   YZ=             -4.6089

 Normal termination of Gaussian 16 at Sun Sep 19 03:58:51 2021.
