 Gaussian 16, Revision A.03,
 Gaussian 16:  ES64L-G16RevA.03 25-Dec-2016

 --------------------------------
 #p wB97XD/Def2SVP td=(nstates=5)
 --------------------------------

 --------------------------------
 TDDFT excited states in gaussian
 --------------------------------
 Symbolic Z-matrix:
 Charge =  0 Multiplicity = 1

                         Standard orientation:
 ---------------------------------------------------------------------
 Center     Atomic      Atomic             Coordinates (Angstroms)
 Number     Number       Type             X           Y           Z
 ---------------------------------------------------------------------
      1         12           0      -30.172104   -0.550092    0.440698
      2          6           0      -29.542218    2.269982   -1.384778
      3          6           0      -29.552073   -2.491518   -2.195348
      4          6           0      -31.031718   -3.095419    2.285939
      5          6           0      -31.382875    1.633568    2.983966
      6          7           0      -29.766231   -0.148118   -1.653045
      7          6           0      -29.297651    1.053519   -2.073184
      8          6           0      -28.536659    0.938235   -3.365576
      9          6           0      -28.812202   -0.573721   -3.738213
     10          6           0      -29.493342   -1.110792   -2.498140
     11          6           0      -29.599974   -0.781689   -5.053936
     12          6           0      -26.959876    1.409514   -3.270503
     13          6           0      -26.406241    2.344259   -4.356775
     14          1           0      -27.132038    2.329363   -5.738765
     15          7           0      -30.111497   -2.449973    0.161562
     16          6           0      -29.842381   -3.130890   -0.982828
     17          6           0      -30.045071   -4.553905   -0.859651
     18          6           0      -30.270066   -4.758475    0.468156
     19          6           0      -30.600627   -3.398835    0.997255
     20          6           0      -29.988013   -5.375433   -2.134566
     21          6           0      -30.402378   -6.090982    1.232052
     22          8           0      -30.665053   -6.173929    2.409270
     23          6           0      -30.211088   -7.305493    0.372429
     24          7           0      -31.245534   -0.664418    2.308890
     25          6           0      -31.337527   -1.878582    2.880648
     26          6           0      -31.890950   -1.771774    4.305101
     27          6           0      -31.702307   -0.253198    4.639930
     28          6           0      -31.451903    0.301016    3.222399
     29          6           0      -33.364055   -2.294833    4.584563
     30          6           0      -30.483822    0.112573    5.568710
     31          6           0      -29.059032   -0.225198    5.216396
     32          7           0      -30.371761    1.526980    0.861642
     33          6           0      -30.956133    2.287686    1.879475
     34          6           0      -30.867353    3.726289    1.598556
     35          6           0      -30.302967    3.769105    0.314862
     36          6           0      -30.035265    2.411207   -0.046599
     37          6           0      -31.233780    4.879402    2.497215
     38          6           0      -29.896685    4.594669   -0.728504
     39          8           0      -29.946792    5.801784   -0.905878
     40          6           0      -29.175278    3.697019   -1.766942
     41          6           0      -29.762730    4.154429   -3.047087
     42          8           0      -30.864028    3.818518   -3.489276
     43          8           0      -28.976507    5.098953   -3.640748
     44          6           0      -29.514695    5.890993   -4.751215
     45          1           0      -29.156799   -3.097879   -3.013265
     46          1           0      -31.287971   -3.897543    2.980136
     47          1           0      -31.745354    2.178326    3.859072
     48          1           0      -29.027337    1.510934   -4.152639
     49          1           0      -27.859854   -1.100500   -3.794474
     50          1           0      -30.631958   -1.033940   -4.810362
     51          1           0      -29.160512   -1.623141   -5.589619
     52          1           0      -29.543772    0.160122   -5.599901
     53          1           0      -26.394296    0.477682   -3.278101
     54          1           0      -26.779849    1.953459   -2.343780
     55          1           0      -25.394361    2.045866   -4.629639
     56          1           0      -26.308510    3.354311   -3.959032
     57          1           0      -30.735658   -5.118891   -2.885271
     58          1           0      -30.250687   -6.433076   -2.122804
     59          1           0      -28.946344   -5.233227   -2.422393
     60          1           0      -29.246204   -7.271173   -0.132905
     61          1           0      -31.105742   -7.279463   -0.249332
     62          1           0      -30.147011   -8.282621    0.849861
     63          1           0      -31.221774   -2.439282    4.849168
     64          1           0      -32.656039    0.149163    4.982122
     65          1           0      -33.789253   -2.689824    3.662224
     66          1           0      -34.028647   -1.465909    4.825177
     67          1           0      -33.477524   -3.023152    5.388990
     68          1           0      -30.798122   -0.394011    6.481587
     69          1           0      -30.426138    1.181867    5.769627
     70          1           0      -29.044800   -0.877043    4.341923
     71          1           0      -28.586738   -0.780842    6.026377
     72          1           0      -28.419944    0.607981    4.924707
     73          1           0      -32.141114    5.387051    2.172913
     74          1           0      -30.408321    5.590211    2.539135
     75          1           0      -31.474802    4.386205    3.439232
     76          1           0      -28.090938    3.785879   -1.698029
     77          1           0      -29.021794    6.859550   -4.843106
     78          1           0      -30.603308    5.916264   -4.744379
     79          1           0      -29.371678    5.407375   -5.717355
     80         12           0       30.506382    0.571961   -0.233623
     81          6           0       28.270688   -1.995524   -0.815967
     82          6           0       27.851042    2.534627    0.739742
     83          6           0       32.751065    2.907575    0.908964
     84          6           0       33.118769   -1.489872   -1.114229
     85          7           0       28.362624    0.244328    0.130500
     86          6           0       27.676237   -0.888449   -0.260364
     87          6           0       26.174788   -0.755042   -0.020229
     88          6           0       26.033144    0.803601    0.149169
     89          6           0       27.480119    1.203969    0.397279
     90          6           0       25.284596    1.602360   -1.011817
     91          6           0       25.578388   -1.610810    1.142488
     92          6           0       24.287243   -2.336990    0.829162
     93          1           0       23.103434   -1.753740    1.584953
     94          7           0       30.291575    2.418980    0.693946
     95          6           0       29.148162    3.052989    0.977367
     96          6           0       29.411825    4.375760    1.516792
     97          6           0       30.776382    4.590705    1.615505
     98          6           0       31.359426    3.272321    1.115243
     99          6           0       28.242735    5.355995    2.007139
    100          6           0       31.496078    5.907942    2.062062
    101          8           0       30.790986    6.877132    2.462221
    102          6           0       32.971770    6.029394    2.076277
    103          7           0       32.713821    0.613657    0.118608
    104          6           0       33.374775    1.708287    0.417445
    105          6           0       34.851353    1.609801    0.095806
    106          6           0       35.086916    0.173691   -0.483569
    107          6           0       33.552908   -0.281104   -0.588669
    108          6           0       35.580650    2.802409   -0.601345
    109          6           0       35.945334   -0.863265    0.297268
    110          6           0       36.413283   -2.015198   -0.567869
    111          7           0       30.678725   -1.394699   -0.844091
    112          6           0       31.828969   -2.102946   -1.262405
    113          6           0       31.401102   -3.379751   -1.765550
    114          6           0       29.989562   -3.398354   -1.651856
    115          6           0       29.654074   -2.187582   -1.052309
    116          6           0       32.254838   -4.389613   -2.517974
    117          6           0       28.888154   -4.179197   -1.928077
    118          8           0       28.708471   -5.300889   -2.317420
    119          6           0       27.675048   -3.353795   -1.249940
    120          6           0       27.425773   -4.085677    0.067922
    121          8           0       28.076519   -3.954517    1.086700
    122          8           0       26.343116   -4.924744   -0.140849
    123          6           0       25.997574   -5.807428    0.968704
    124          1           0       27.049109    3.264376    0.868196
    125          1           0       33.407334    3.697822    1.278633
    126          1           0       33.824200   -2.198717   -1.552789
    127          1           0       25.672447   -1.010949   -0.952659
    128          1           0       25.594712    0.969286    1.133929
    129          1           0       25.696496    2.603758   -0.887235
    130          1           0       24.219067    1.753258   -0.836904
    131          1           0       25.406823    1.224907   -2.026954
    132          1           0       25.412802   -0.875152    1.929826
    133          1           0       26.266146   -2.265219    1.677663
    134          1           0       24.434936   -3.385274    1.089753
    135          1           0       24.024114   -2.284154   -0.227466
    136          1           0       27.233797    4.947134    1.938175
    137          1           0       28.265660    6.289849    1.444460
    138          1           0       28.282004    5.567611    3.074780
    139          1           0       33.359188    5.872804    1.070051
    140          1           0       33.416665    5.430890    2.871347
    141          1           0       33.143803    7.098608    2.193520
    142          1           0       35.513721    1.507735    0.955676
    143          1           0       35.313151    0.185800   -1.550026
    144          1           0       34.892723    3.646995   -0.542742
    145          1           0       35.949136    2.570526   -1.601282
    146          1           0       36.480489    3.139267   -0.086441
    147          1           0       35.341728   -1.169405    1.151583
    148          1           0       36.763103   -0.273911    0.711890
    149          1           0       37.376482   -2.346148   -0.178708
    150          1           0       36.556374   -1.778755   -1.622917
    151          1           0       35.751929   -2.867339   -0.410926
    152          1           0       31.682381   -5.192221   -2.983051
    153          1           0       32.989978   -4.784743   -1.818072
    154          1           0       32.824221   -3.910505   -3.314521
    155          1           0       26.832414   -3.251132   -1.934394
    156          1           0       26.806697   -6.519602    1.131498
    157          1           0       25.043165   -6.307357    0.807127
    158          1           0       25.934662   -5.225760    1.887949
 ---------------------------------------------------------------------

 SCF Done:  E(RwB97XD) =  -4070.60392100     A.U. after   20 cycles

 Excitation energies and oscillator strengths:

 Excited State   1:      Singlet-A      1.7218 eV  720.10 nm  f=0.3730  <S**2>=0.000
     310 -> 316        0.19587
     312 -> 314        0.67981
     310 <- 316        0.11418
 This state for optimization and/or second-order correction.
 Total Energy, E(TD-HF/TD-DFT) =  -4070.54064778
 Copying the excited state density for this state as the 1-particle RhoCI density.

 Excited State   2:      Singlet-A      1.8712 eV  662.60 nm  f=0.3751  <S**2>=0.000
     309 -> 315        0.14189
     311 -> 313        0.68597

 Excited State   3:      Singlet-A      2.2243 eV  557.42 nm  f=0.0573  <S**2>=0.000
     310 -> 314        0.61464
     312 -> 316       -0.33867

 Excited State   4:      Singlet-A      2.2255 eV  557.11 nm  f=0.1253  <S**2>=0.000
     309 -> 313        0.64381
     311 -> 315       -0.24648
     311 -> 317        0.10808

 Excited State   5:      Singlet-A      3.4333 eV  361.12 nm  f=0.6420  <S**2>=0.000
     306 -> 314        0.11755
     310 -> 314        0.32246
     312 -> 316        0.60122
     310 <- 314       -0.11167

 The electronic state is 1-A.
 Alpha  occ. eigenvalues --  -46.95763 -46.94303 -19.29698 -19.29120 -19.25357
 Alpha  occ. eigenvalues --  -19.24987 -19.24741 -19.23275 -19.22681 -19.22662
 Alpha  occ. eigenvalues --  -14.46927 -14.46644 -14.46281 -14.45635 -14.45233
 Alpha  occ. eigenvalues --  -14.44645 -14.43323 -14.43024 -10.42901 -10.42093
 Alpha  occ. eigenvalues --  -10.41114 -10.39956 -10.37517 -10.37357 -10.37303
 Alpha  occ. eigenvalues --  -10.36539 -10.35843 -10.35264 -10.34938 -10.34860
 Alpha  occ. eigenvalues --  -10.34620 -10.34451 -10.34384 -10.34361 -10.34292
 Alpha  occ. eigenvalues --  -10.34235 -10.34096 -10.33783 -10.33400 -10.33116
 Alpha  occ. eigenvalues --  -10.32990 -10.32903 -10.32664 -10.32505 -10.32426
 Alpha  occ. eigenvalues --  -10.32313 -10.32254 -10.32223 -10.32130 -10.32012
 Alpha  occ. eigenvalues --  -10.31992 -10.31908 -10.31889 -10.31744 -10.31720
 Alpha  occ. eigenvalues --  -10.31645 -10.31602 -10.31579 -10.31533 -10.31386
 Alpha  occ. eigenvalues --  -10.31372 -10.31354 -10.31192 -10.31118 -10.31071
 Alpha  occ. eigenvalues --  -10.31049 -10.30957 -10.30835 -10.30798 -10.30792
 Alpha  occ. eigenvalues --  -10.30779 -10.30575 -10.30503 -10.30414 -10.30185
 Alpha  occ. eigenvalues --  -10.29905 -10.29903 -10.29894 -10.29737 -10.29642
 Alpha  occ. eigenvalues --  -10.29617 -10.29095 -10.29010 -10.29005 -10.28053
 Alpha  occ. eigenvalues --  -10.27004  -3.21658  -3.20562  -1.95228  -1.94783
 Alpha  occ. eigenvalues --   -1.94628  -1.94124  -1.93707  -1.93572  -1.17564
 Alpha  occ. eigenvalues --   -1.16999  -1.13778  -1.11945  -1.11454  -1.11208
 Alpha  occ. eigenvalues --   -1.10042  -1.08094  -1.07642  -1.06754  -1.06620
 Alpha  occ. eigenvalues --   -1.06108  -1.05884  -1.05294  -1.05011  -1.04553
 Alpha  occ. eigenvalues --   -0.94308  -0.93479  -0.91605  -0.91043  -0.90365
 Alpha  occ. eigenvalues --   -0.90351  -0.89964  -0.89891  -0.89851  -0.89391
 Alpha  occ. eigenvalues --   -0.89015  -0.88713  -0.88482  -0.87728  -0.86418
 Alpha  occ. eigenvalues --   -0.86287  -0.85556  -0.85473  -0.85140  -0.84635
 Alpha  occ. eigenvalues --   -0.84495  -0.84003  -0.82990  -0.82630  -0.82482
 Alpha  occ. eigenvalues --   -0.82164  -0.81008  -0.79603  -0.79375  -0.79112
 Alpha  occ. eigenvalues --   -0.78892  -0.78654  -0.77627  -0.77274  -0.77136
 Alpha  occ. eigenvalues --   -0.77101  -0.74613  -0.74366  -0.73689  -0.73664
 Alpha  occ. eigenvalues --   -0.71674  -0.71557  -0.71111  -0.71009  -0.70122
 Alpha  occ. eigenvalues --   -0.69859  -0.69382  -0.69314  -0.67560  -0.67406
 Alpha  occ. eigenvalues --   -0.67343  -0.66904  -0.66747  -0.66711  -0.66041
 Alpha  occ. eigenvalues --   -0.65745  -0.63694  -0.63680  -0.63159  -0.62045
 Alpha  occ. eigenvalues --   -0.61437  -0.61289  -0.61264  -0.61047  -0.60480
 Alpha  occ. eigenvalues --   -0.59875  -0.59790  -0.59773  -0.59528  -0.59335
 Alpha  occ. eigenvalues --   -0.58475  -0.58326  -0.57417  -0.57232  -0.57089
 Alpha  occ. eigenvalues --   -0.56979  -0.56584  -0.56397  -0.56097  -0.55927
 Alpha  occ. eigenvalues --   -0.55675  -0.55593  -0.55284  -0.55123  -0.55117
 Alpha  occ. eigenvalues --   -0.54709  -0.54591  -0.54559  -0.54334  -0.54175
 Alpha  occ. eigenvalues --   -0.53958  -0.53600  -0.53507  -0.53192  -0.52984
 Alpha  occ. eigenvalues --   -0.52679  -0.52532  -0.52507  -0.52417  -0.52143
 Alpha  occ. eigenvalues --   -0.52132  -0.51972  -0.51753  -0.51491  -0.51416
 Alpha  occ. eigenvalues --   -0.51254  -0.51008  -0.50993  -0.50716  -0.50622
 Alpha  occ. eigenvalues --   -0.50484  -0.50410  -0.50136  -0.50013  -0.49938
 Alpha  occ. eigenvalues --   -0.49713  -0.49531  -0.49291  -0.49177  -0.49093
 Alpha  occ. eigenvalues --   -0.48743  -0.48575  -0.48514  -0.48429  -0.48129
 Alpha  occ. eigenvalues --   -0.48046  -0.47928  -0.47617  -0.47397  -0.47142
 Alpha  occ. eigenvalues --   -0.47138  -0.47120  -0.46973  -0.46807  -0.46766
 Alpha  occ. eigenvalues --   -0.46611  -0.46450  -0.46268  -0.46073  -0.45859
 Alpha  occ. eigenvalues --   -0.45802  -0.45763  -0.45516  -0.45505  -0.45320
 Alpha  occ. eigenvalues --   -0.45094  -0.45069  -0.44839  -0.44796  -0.44780
 Alpha  occ. eigenvalues --   -0.44465  -0.44456  -0.44372  -0.44097  -0.44064
 Alpha  occ. eigenvalues --   -0.43987  -0.43779  -0.43512  -0.43507  -0.43152
 Alpha  occ. eigenvalues --   -0.42980  -0.42689  -0.42658  -0.42448  -0.42343
 Alpha  occ. eigenvalues --   -0.42089  -0.41775  -0.41490  -0.41237  -0.41111
 Alpha  occ. eigenvalues --   -0.40894  -0.40378  -0.40093  -0.40014  -0.39283
 Alpha  occ. eigenvalues --   -0.39025  -0.38607  -0.38418  -0.38326  -0.38304
 Alpha  occ. eigenvalues --   -0.37286  -0.37139  -0.36395  -0.36339  -0.36153
 Alpha  occ. eigenvalues --   -0.35436  -0.35345  -0.34947  -0.34637  -0.34487
 Alpha  occ. eigenvalues --   -0.34137  -0.33407  -0.33075  -0.32929  -0.32061
 Alpha  occ. eigenvalues --   -0.31859  -0.31611  -0.31166  -0.26060  -0.25761
 Alpha  occ. eigenvalues --   -0.23359  -0.22429
 Alpha virt. eigenvalues --   -0.06746  -0.06165   0.00142   0.00156   0.02172
 Alpha virt. eigenvalues --    0.02300   0.04086   0.04584   0.04923   0.05875
 Alpha virt. eigenvalues --    0.07572   0.07611   0.08175   0.08490   0.08861

 Mulliken charges:
               1
     1  Mg   0.993031
     2  C    0.011036
     3  C   -0.117751
     4  C   -0.080872
     5  C   -0.116953
     6  N   -0.330568
     7  C   -0.016941
     8  C   -0.037165
     9  C   -0.153968
    10  C    0.076218
    11  C    0.047332
    12  C    0.007299
    13  C   -0.126058
    14  H    0.026414
    15  N   -0.509732
    16  C    0.180153
    17  C   -0.131490
    18  C   -0.119632
    19  C    0.182706
    20  C    0.046519
    21  C    0.071627
    22  O   -0.201877
    23  C   -0.025121
    24  N   -0.321318
    25  C    0.020944
    26  C   -0.086115
    27  C   -0.050124
    28  C   -0.008259
    29  C    0.024231
    30  C   -0.010754
    31  C   -0.046765
    32  N   -0.398908
    33  C    0.159881
    34  C   -0.187063
    35  C    0.034919
    36  C    0.091380
    37  C    0.104744
    38  C    0.050699
    39  O   -0.214276
    40  C   -0.074733
    41  C    0.264442
    42  O   -0.268154
    43  O   -0.355797
    44  C    0.151798
    45  H   -0.008462
    46  H    0.016527
    47  H   -0.010538
    48  H    0.043108
    49  H    0.031883
    50  H    0.045732
    51  H    0.038580
    52  H    0.045936
    53  H    0.033213
    54  H    0.041131
    55  H    0.049095
    56  H    0.062554
    57  H    0.060469
    58  H    0.029702
    59  H    0.066481
    60  H    0.061486
    61  H    0.069380
    62  H    0.048035
    63  H    0.035056
    64  H    0.029204
    65  H    0.038296
    66  H    0.025922
    67  H    0.050237
    68  H    0.032279
    69  H    0.032298
    70  H    0.028535
    71  H    0.041161
    72  H    0.043822
    73  H    0.059458
    74  H    0.063953
    75  H    0.019668
    76  H    0.072655
    77  H    0.061562
    78  H    0.057187
    79  H    0.029420
    80  Mg   0.966740
    81  C   -0.041590
    82  C   -0.128833
    83  C   -0.109121
    84  C   -0.042289
    85  N   -0.333038
    86  C   -0.011339
    87  C   -0.074828
    88  C   -0.075918
    89  C    0.063481
    90  C    0.034913
    91  C    0.028412
    92  C   -0.107154
    93  H    0.024729
    94  N   -0.466146
    95  C    0.186083
    96  C   -0.153052
    97  C   -0.065476
    98  C    0.142330
    99  C    0.072354
   100  C    0.052393
   101  O   -0.253983
   102  C    0.003601
   103  N   -0.330994
   104  C    0.128561
   105  C   -0.083512
   106  C   -0.090902
   107  C    0.027457
   108  C    0.020524
   109  C    0.009829
   110  C   -0.034494
   111  N   -0.438588
   112  C    0.046384
   113  C   -0.148293
   114  C    0.002746
   115  C    0.157773
   116  C    0.059539
   117  C    0.057925
   118  O   -0.195171
   119  C   -0.117486
   120  C    0.296738
   121  O   -0.238841
   122  O   -0.364131
   123  C    0.141309
   124  H   -0.003543
   125  H   -0.019480
   126  H   -0.016869
   127  H    0.023278
   128  H    0.032769
   129  H    0.025024
   130  H    0.044670
   131  H    0.053879
   132  H    0.020241
   133  H    0.052769
   134  H    0.048244
   135  H    0.048681
   136  H    0.019569
   137  H    0.064648
   138  H    0.059463
   139  H    0.061890
   140  H    0.091291
   141  H    0.055082
   142  H    0.038403
   143  H    0.031576
   144  H    0.030242
   145  H    0.041609
   146  H    0.029162
   147  H    0.042105
   148  H    0.025825
   149  H    0.032459
   150  H    0.043068
   151  H    0.051668
   152  H    0.058559
   153  H    0.038067
   154  H    0.040758
   155  H    0.054820
   156  H    0.058150
   157  H    0.060930
   158  H    0.042350
 Sum of Mulliken charges =  -0.00000

 Dipole moment (field-independent basis, Debye):
    X=              5.0313    Y=             -1.0617    Z=             -0.9671  Tot=              5.2323
 Quadrupole moment (field-independent basis, Debye-Ang):
   XX=           -474.9023   YY=           -551.6509   ZZ=           -494.9881
   XY=            265.3730   XZ=             -7.6131   YZ=              2.7852

 Normal termination of Gaussian 16 at Sat Sep 18 08:42:46 2021.
