 Gaussian 16, Revision A.03,
 Gaussian 16:  ES64L-G16RevA.03 25-Dec-2016

 --------------------------------
 #p wB97XD/Def2SVP td=(nstates=5)
 --------------------------------

 --------------------------------
 TDDFT excited states in gaussian
 --------------------------------
 Symbolic Z-matrix:
 Charge =  0 Multiplicity = 1

                         Standard orientation:
 ---------------------------------------------------------------------
 Center     Atomic      Atomic             Coordinates (Angstroms)
 Number     Number       Type             X           Y           Z
 ---------------------------------------------------------------------
      1         12           0        8.878274   -0.372892    0.008023
      2          6           0        7.291461    2.549854   -0.873563
      3          6           0       11.098787    1.532206    1.931174
      4          6           0       10.550613   -3.181901    0.848934
      5          6           0        6.931857   -2.110010   -2.162492
      6          7           0        9.300189    1.856048    0.248377
      7          6           0        8.338074    2.832770   -0.037301
      8          6           0        8.620472    4.156866    0.699741
      9          6           0        9.923945    3.774889    1.493278
     10          6           0       10.137837    2.291575    1.281112
     11          6           0       11.137431    4.598791    1.081474
     12          6           0        7.518843    4.775217    1.631470
     13          6           0        6.849707    6.176941    1.157013
     14          1           0        7.069445    7.277546    2.199550
     15          7           0       10.610152   -0.768764    1.109305
     16          6           0       11.298075    0.140628    1.928885
     17          6           0       12.244853   -0.547550    2.812629
     18          6           0       12.183808   -2.004443    2.468852
     19          6           0       11.037983   -2.079138    1.476911
     20          6           0       13.114198    0.175680    3.817487
     21          6           0       12.949109   -3.143327    2.955012
     22          8           0       12.783090   -4.259949    2.442306
     23          6           0       14.012584   -3.027887    4.032977
     24          7           0        8.787896   -2.268749   -0.639774
     25          6           0        9.492317   -3.340086   -0.059928
     26          6           0        9.045351   -4.776932   -0.548544
     27          6           0        7.867841   -4.343340   -1.565399
     28          6           0        7.853725   -2.803891   -1.429949
     29          6           0       10.210367   -5.637930   -1.246157
     30          6           0        6.500879   -5.011364   -1.188540
     31          6           0        5.607853   -5.459345   -2.302892
     32          7           0        7.451275    0.158412   -1.359360
     33          6           0        6.683105   -0.691935   -2.159831
     34          6           0        5.634199    0.023894   -2.802015
     35          6           0        5.782884    1.340924   -2.229024
     36          6           0        6.939803    1.343415   -1.439532
     37          6           0        4.562254   -0.424462   -3.704192
     38          6           0        5.289631    2.680299   -2.306936
     39          8           0        4.340435    3.231194   -2.875392
     40          6           0        6.369396    3.555057   -1.522153
     41          6           0        7.010606    4.494593   -2.479776
     42          8           0        8.041796    4.394689   -3.019007
     43          8           0        6.252795    5.657926   -2.592105
     44          6           0        6.994245    6.836570   -2.989837
     45          1           0       11.730697    2.123037    2.597601
     46          1           0       10.960100   -4.164830    1.090793
     47          1           0        6.208926   -2.685126   -2.744721
     48          1           0        8.888243    4.913024   -0.037460
     49          1           0        9.833854    4.009181    2.554345
     50          1           0       11.864515    3.938150    0.609999
     51          1           0       11.518403    4.954034    2.038190
     52          1           0       10.929809    5.480735    0.475898
     53          1           0        7.961319    4.922873    2.616933
     54          1           0        6.664966    4.105190    1.732739
     55          1           0        5.787647    5.931104    1.154713
     56          1           0        7.246479    6.479234    0.188099
     57          1           0       13.887919    0.689335    3.245518
     58          1           0       13.567689   -0.571135    4.467373
     59          1           0       12.594575    0.975241    4.345938
     60          1           0       14.612867   -3.933760    3.945937
     61          1           0       13.609169   -2.907727    5.038965
     62          1           0       14.794996   -2.283592    3.886125
     63          1           0        8.560853   -5.310049    0.268828
     64          1           0        8.016955   -4.652820   -2.600101
     65          1           0        9.779216   -6.178301   -2.089154
     66          1           0       10.629240   -6.457968   -0.664174
     67          1           0       11.047113   -5.027119   -1.585662
     68          1           0        5.893870   -4.420122   -0.503115
     69          1           0        6.630332   -5.958121   -0.664492
     70          1           0        4.744321   -4.797107   -2.242888
     71          1           0        5.091141   -6.417457   -2.246868
     72          1           0        6.119957   -5.336067   -3.257733
     73          1           0        4.352620   -1.473308   -3.492456
     74          1           0        5.004212   -0.344608   -4.697294
     75          1           0        3.747441    0.298605   -3.662770
     76          1           0        5.881956    4.134336   -0.738372
     77          1           0        7.142759    6.700724   -4.060552
     78          1           0        7.946879    6.773430   -2.464151
     79          1           0        6.424921    7.748890   -2.809662
     80         12           0       -8.455169   -1.031112    0.175029
     81          6           0      -10.592621    1.711260    0.762278
     82          6           0       -5.819316    1.166571   -0.009042
     83          6           0       -6.364511   -3.580118   -0.467033
     84          6           0      -11.222866   -3.138507   -0.201697
     85          7           0       -8.308230    1.126441    0.498536
     86          6           0       -9.204499    2.082316    0.726117
     87          6           0       -8.658829    3.517647    0.876575
     88          6           0       -7.183725    3.222424    0.316999
     89          6           0       -7.107787    1.718537    0.215948
     90          6           0       -6.890721    3.889707   -1.004824
     91          6           0       -8.653212    4.076001    2.405554
     92          6           0       -8.735558    5.603061    2.487739
     93          1           0       -9.988750    6.131453    3.232171
     94          7           0       -6.317974   -1.237179   -0.034414
     95          6           0       -5.414895   -0.149307   -0.127002
     96          6           0       -4.083465   -0.707669   -0.054492
     97          6           0       -4.206193   -2.090010   -0.162502
     98          6           0       -5.672395   -2.386558   -0.208397
     99          6           0       -2.814507    0.122065   -0.106718
    100          6           0       -3.171562   -3.191961   -0.164846
    101          8           0       -3.522014   -4.335620   -0.188395
    102          6           0       -1.706350   -2.907035   -0.062339
    103          7           0       -8.733316   -3.015699   -0.464603
    104          6           0       -7.707837   -3.906148   -0.595809
    105          6           0       -8.362718   -5.290334   -0.860228
    106          6           0       -9.743168   -5.230980   -0.231134
    107          6           0       -9.976962   -3.703673   -0.304938
    108          6           0       -8.502724   -5.503849   -2.366764
    109          6           0       -9.828009   -5.801686    1.136018
    110          6           0       -8.781417   -5.424146    2.154936
    111          7           0      -10.502316   -0.830683    0.283410
    112          6           0      -11.520324   -1.748189    0.103622
    113          6           0      -12.809941   -1.071973    0.312746
    114          6           0      -12.473631    0.263588    0.594261
    115          6           0      -11.108666    0.353312    0.565992
    116          6           0      -14.141506   -1.676851    0.190260
    117          6           0      -12.974679    1.536682    1.038197
    118          8           0      -14.151541    1.913264    1.314150
    119          6           0      -11.716174    2.515787    1.188427
    120          6           0      -11.945487    3.652600    0.226452
    121          8           0      -12.270885    3.484820   -0.911382
    122          8           0      -11.690378    4.952411    0.741561
    123          6           0      -11.601150    6.035608   -0.284376
    124          1           0       -4.977772    1.852277   -0.122640
    125          1           0       -5.731075   -4.414375   -0.776797
    126          1           0      -12.114292   -3.765830   -0.132327
    127          1           0       -9.276918    4.213439    0.307807
    128          1           0       -6.527971    3.621240    1.091955
    129          1           0       -6.344451    4.802463   -0.767536
    130          1           0       -7.783192    4.032973   -1.614349
    131          1           0       -6.138297    3.245298   -1.459346
    132          1           0       -7.733957    3.771544    2.906892
    133          1           0       -9.457146    3.619757    2.983516
    134          1           0       -8.689663    5.877895    1.433753
    135          1           0       -7.834044    6.040561    2.916228
    136          1           0       -3.139876    1.124065    0.170405
    137          1           0       -2.578024    0.131019   -1.170336
    138          1           0       -2.054901   -0.233583    0.589722
    139          1           0       -1.660215   -2.592954    0.980551
    140          1           0       -1.357043   -2.089644   -0.692598
    141          1           0       -1.129617   -3.812535   -0.253985
    142          1           0       -7.793194   -6.149325   -0.507129
    143          1           0      -10.521878   -5.776842   -0.762778
    144          1           0       -9.471657   -5.362681   -2.845770
    145          1           0       -8.171324   -6.519771   -2.581406
    146          1           0       -7.791826   -4.844200   -2.865649
    147          1           0       -9.897286   -6.889607    1.119036
    148          1           0      -10.787643   -5.442854    1.507632
    149          1           0       -9.300642   -4.817542    2.897474
    150          1           0       -7.873437   -4.870876    1.913180
    151          1           0       -8.471361   -6.332395    2.671461
    152          1           0      -14.322960   -1.884438   -0.864240
    153          1           0      -14.804105   -0.932429    0.631589
    154          1           0      -14.190384   -2.641488    0.697207
    155          1           0      -11.699952    2.776450    2.246837
    156          1           0      -12.598311    6.326363   -0.614732
    157          1           0      -11.009760    5.753677   -1.156702
    158          1           0      -11.200010    6.988034    0.060954
 ---------------------------------------------------------------------

 SCF Done:  E(RwB97XD) =  -4070.59226967     A.U. after   19 cycles

 Excitation energies and oscillator strengths:

 Excited State   1:      Singlet-A      1.6208 eV  764.94 nm  f=0.5968  <S**2>=0.000
     309 -> 315       -0.15292
     311 -> 313        0.65091
     312 -> 314        0.21829
 This state for optimization and/or second-order correction.
 Total Energy, E(TD-HF/TD-DFT) =  -4070.53270518
 Copying the excited state density for this state as the 1-particle RhoCI density.

 Excited State   2:      Singlet-A      1.6576 eV  747.98 nm  f=0.2108  <S**2>=0.000
     310 -> 316       -0.16917
     311 -> 313       -0.21727
     312 -> 314        0.64979
     310 <- 316       -0.10789

 Excited State   3:      Singlet-A      2.1342 eV  580.95 nm  f=0.0010  <S**2>=0.000
     309 -> 313        0.47665
     310 -> 314       -0.43378
     311 -> 315        0.19128
     312 -> 316       -0.18123

 Excited State   4:      Singlet-A      2.1376 eV  580.02 nm  f=0.2291  <S**2>=0.000
     309 -> 313        0.43163
     310 -> 314        0.47704
     311 -> 315        0.17521
     312 -> 316        0.20190

 Excited State   5:      Singlet-A      3.3293 eV  372.40 nm  f=0.0000  <S**2>=0.000
     312 -> 313        0.70656

 The electronic state is 1-A.
 Alpha  occ. eigenvalues --  -46.94837 -46.94593 -19.29595 -19.27676 -19.24818
 Alpha  occ. eigenvalues --  -19.24735 -19.24203 -19.24063 -19.23296 -19.23162
 Alpha  occ. eigenvalues --  -14.47908 -14.47468 -14.46895 -14.45814 -14.45237
 Alpha  occ. eigenvalues --  -14.44223 -14.43509 -14.43439 -10.43120 -10.42189
 Alpha  occ. eigenvalues --  -10.39598 -10.39098 -10.38641 -10.38517 -10.36223
 Alpha  occ. eigenvalues --  -10.35822 -10.35658 -10.35469 -10.35465 -10.35328
 Alpha  occ. eigenvalues --  -10.35264 -10.35033 -10.35030 -10.34971 -10.34956
 Alpha  occ. eigenvalues --  -10.34630 -10.34620 -10.34489 -10.34406 -10.33836
 Alpha  occ. eigenvalues --  -10.33576 -10.33531 -10.33525 -10.33223 -10.33038
 Alpha  occ. eigenvalues --  -10.32818 -10.32658 -10.32601 -10.32560 -10.32399
 Alpha  occ. eigenvalues --  -10.32206 -10.32189 -10.32184 -10.32107 -10.32101
 Alpha  occ. eigenvalues --  -10.32033 -10.32026 -10.31934 -10.31906 -10.31739
 Alpha  occ. eigenvalues --  -10.31658 -10.31580 -10.31491 -10.31065 -10.31052
 Alpha  occ. eigenvalues --  -10.31018 -10.30878 -10.30778 -10.30619 -10.30590
 Alpha  occ. eigenvalues --  -10.30587 -10.30505 -10.30423 -10.30359 -10.30164
 Alpha  occ. eigenvalues --  -10.30158 -10.30108 -10.30004 -10.29553 -10.29386
 Alpha  occ. eigenvalues --  -10.29225 -10.28878 -10.28819 -10.28781 -10.28271
 Alpha  occ. eigenvalues --  -10.28215  -3.20771  -3.20762  -1.94383  -1.94326
 Alpha  occ. eigenvalues --   -1.93899  -1.93871  -1.93758  -1.93755  -1.19174
 Alpha  occ. eigenvalues --   -1.17614  -1.14299  -1.12076  -1.10635  -1.10201
 Alpha  occ. eigenvalues --   -1.09451  -1.08733  -1.07193  -1.06915  -1.05728
 Alpha  occ. eigenvalues --   -1.05516  -1.04803  -1.04355  -1.03653  -1.02999
 Alpha  occ. eigenvalues --   -0.94837  -0.94799  -0.91868  -0.91389  -0.91203
 Alpha  occ. eigenvalues --   -0.90767  -0.90668  -0.90642  -0.89680  -0.89575
 Alpha  occ. eigenvalues --   -0.89420  -0.88945  -0.88740  -0.87995  -0.86489
 Alpha  occ. eigenvalues --   -0.86433  -0.85623  -0.85335  -0.84615  -0.84485
 Alpha  occ. eigenvalues --   -0.84309  -0.84097  -0.83087  -0.82933  -0.82474
 Alpha  occ. eigenvalues --   -0.81749  -0.81046  -0.80775  -0.79601  -0.79142
 Alpha  occ. eigenvalues --   -0.78894  -0.78881  -0.78073  -0.77495  -0.77431
 Alpha  occ. eigenvalues --   -0.76828  -0.75354  -0.74311  -0.73954  -0.73194
 Alpha  occ. eigenvalues --   -0.71628  -0.71520  -0.70861  -0.70731  -0.70192
 Alpha  occ. eigenvalues --   -0.69827  -0.69699  -0.68980  -0.67860  -0.67652
 Alpha  occ. eigenvalues --   -0.67536  -0.67288  -0.66839  -0.66183  -0.66089
 Alpha  occ. eigenvalues --   -0.65244  -0.63642  -0.63128  -0.62489  -0.62301
 Alpha  occ. eigenvalues --   -0.61777  -0.61635  -0.61292  -0.61032  -0.60848
 Alpha  occ. eigenvalues --   -0.60715  -0.60548  -0.60426  -0.59943  -0.59483
 Alpha  occ. eigenvalues --   -0.58796  -0.58296  -0.57778  -0.57640  -0.57529
 Alpha  occ. eigenvalues --   -0.56581  -0.56358  -0.56126  -0.55879  -0.55859
 Alpha  occ. eigenvalues --   -0.55820  -0.55548  -0.55521  -0.55480  -0.55204
 Alpha  occ. eigenvalues --   -0.54888  -0.54871  -0.54495  -0.54358  -0.54258
 Alpha  occ. eigenvalues --   -0.53787  -0.53702  -0.53547  -0.53490  -0.53371
 Alpha  occ. eigenvalues --   -0.53311  -0.52961  -0.52774  -0.52628  -0.52508
 Alpha  occ. eigenvalues --   -0.52391  -0.52252  -0.52099  -0.51968  -0.51856
 Alpha  occ. eigenvalues --   -0.51827  -0.51497  -0.51415  -0.51194  -0.50965
 Alpha  occ. eigenvalues --   -0.50906  -0.50851  -0.50762  -0.50283  -0.50200
 Alpha  occ. eigenvalues --   -0.50145  -0.50044  -0.49565  -0.49480  -0.49450
 Alpha  occ. eigenvalues --   -0.49221  -0.49075  -0.48984  -0.48682  -0.48537
 Alpha  occ. eigenvalues --   -0.48356  -0.48200  -0.48164  -0.47689  -0.47620
 Alpha  occ. eigenvalues --   -0.47493  -0.47343  -0.47214  -0.47187  -0.46997
 Alpha  occ. eigenvalues --   -0.46895  -0.46801  -0.46375  -0.46111  -0.45975
 Alpha  occ. eigenvalues --   -0.45888  -0.45733  -0.45574  -0.45541  -0.45330
 Alpha  occ. eigenvalues --   -0.45263  -0.45150  -0.45051  -0.44929  -0.44800
 Alpha  occ. eigenvalues --   -0.44643  -0.44361  -0.44275  -0.44255  -0.43904
 Alpha  occ. eigenvalues --   -0.43637  -0.43581  -0.43393  -0.43330  -0.43196
 Alpha  occ. eigenvalues --   -0.42882  -0.42850  -0.42778  -0.42301  -0.42171
 Alpha  occ. eigenvalues --   -0.42111  -0.42068  -0.41554  -0.41301  -0.41291
 Alpha  occ. eigenvalues --   -0.40911  -0.40202  -0.40089  -0.39901  -0.39572
 Alpha  occ. eigenvalues --   -0.39524  -0.39169  -0.38980  -0.38292  -0.38261
 Alpha  occ. eigenvalues --   -0.38115  -0.37165  -0.36722  -0.36510  -0.36395
 Alpha  occ. eigenvalues --   -0.36346  -0.35683  -0.35294  -0.33952  -0.33788
 Alpha  occ. eigenvalues --   -0.33759  -0.33290  -0.32491  -0.32225  -0.32156
 Alpha  occ. eigenvalues --   -0.32037  -0.31692  -0.31340  -0.26599  -0.25967
 Alpha  occ. eigenvalues --   -0.23565  -0.23095
 Alpha virt. eigenvalues --   -0.07925  -0.07178  -0.00508   0.00302   0.01505
 Alpha virt. eigenvalues --    0.02588   0.04004   0.04402   0.04936   0.06362
 Alpha virt. eigenvalues --    0.07261   0.07262   0.07606   0.07830   0.08206

 Mulliken charges:
               1
     1  Mg   0.967061
     2  C    0.011267
     3  C   -0.103190
     4  C   -0.069581
     5  C   -0.098562
     6  N   -0.364153
     7  C   -0.034206
     8  C   -0.002576
     9  C   -0.138393
    10  C    0.093303
    11  C    0.019232
    12  C   -0.009000
    13  C   -0.148427
    14  H    0.036925
    15  N   -0.482021
    16  C    0.201174
    17  C   -0.179776
    18  C   -0.027394
    19  C    0.194011
    20  C    0.079739
    21  C    0.021922
    22  O   -0.252291
    23  C   -0.034525
    24  N   -0.410923
    25  C    0.038999
    26  C   -0.045543
    27  C   -0.088269
    28  C    0.133912
    29  C   -0.001085
    30  C   -0.040946
    31  C   -0.057740
    32  N   -0.418661
    33  C    0.119371
    34  C   -0.180175
    35  C   -0.043397
    36  C    0.139006
    37  C    0.103121
    38  C    0.091938
    39  O   -0.219454
    40  C   -0.113821
    41  C    0.257250
    42  O   -0.186952
    43  O   -0.390085
    44  C    0.148126
    45  H   -0.010350
    46  H    0.026482
    47  H   -0.021989
    48  H    0.032480
    49  H    0.032627
    50  H    0.050446
    51  H    0.027542
    52  H    0.046484
    53  H    0.043075
    54  H    0.039737
    55  H    0.073153
    56  H    0.060714
    57  H    0.058986
    58  H    0.037275
    59  H    0.054264
    60  H    0.051355
    61  H    0.073501
    62  H    0.053879
    63  H    0.052298
    64  H    0.040043
    65  H    0.034487
    66  H    0.046553
    67  H    0.057538
    68  H    0.032720
    69  H    0.030317
    70  H    0.024924
    71  H    0.039726
    72  H    0.035519
    73  H    0.040968
    74  H    0.055209
    75  H    0.065004
    76  H    0.051243
    77  H    0.051189
    78  H    0.037359
    79  H    0.060037
    80  Mg   0.953569
    81  C   -0.042864
    82  C   -0.110276
    83  C   -0.074968
    84  C   -0.071517
    85  N   -0.320981
    86  C   -0.004285
    87  C   -0.076325
    88  C   -0.141482
    89  C    0.116497
    90  C    0.056370
    91  C    0.009213
    92  C   -0.101935
    93  H    0.060232
    94  N   -0.444658
    95  C    0.147462
    96  C   -0.177317
    97  C   -0.058492
    98  C    0.148435
    99  C    0.068672
   100  C    0.023071
   101  O   -0.210697
   102  C   -0.009900
   103  N   -0.406378
   104  C    0.080793
   105  C   -0.094065
   106  C   -0.044052
   107  C    0.108002
   108  C    0.034281
   109  C    0.007644
   110  C   -0.069400
   111  N   -0.442648
   112  C    0.083647
   113  C   -0.209388
   114  C    0.006985
   115  C    0.127324
   116  C    0.079153
   117  C    0.099019
   118  O   -0.251876
   119  C   -0.045703
   120  C    0.263382
   121  O   -0.210369
   122  O   -0.401571
   123  C    0.135629
   124  H    0.008136
   125  H    0.020769
   126  H   -0.000708
   127  H    0.038225
   128  H    0.036223
   129  H    0.032899
   130  H    0.057602
   131  H    0.023938
   132  H    0.027287
   133  H    0.042537
   134  H    0.027904
   135  H    0.044709
   136  H    0.033421
   137  H    0.078225
   138  H    0.059402
   139  H    0.059468
   140  H    0.054638
   141  H    0.059939
   142  H    0.024529
   143  H    0.018038
   144  H    0.045017
   145  H    0.032539
   146  H    0.031511
   147  H    0.031769
   148  H    0.016131
   149  H    0.030633
   150  H    0.056749
   151  H    0.029488
   152  H    0.053790
   153  H    0.066022
   154  H    0.034754
   155  H    0.077462
   156  H    0.056732
   157  H    0.050190
   158  H    0.051794
 Sum of Mulliken charges =  -0.00000

 Dipole moment (field-independent basis, Debye):
    X=             10.0629    Y=             -0.5092    Z=              5.2580  Tot=             11.3652
 Quadrupole moment (field-independent basis, Debye-Ang):
   XX=           -610.2308   YY=           -473.7846   ZZ=           -508.8508
   XY=             42.5120   XZ=             51.4292   YZ=             22.5285

 Normal termination of Gaussian 16 at Mon Sep 20 12:08:08 2021.
