 Gaussian 16, Revision A.03,
 Gaussian 16:  ES64L-G16RevA.03 25-Dec-2016

 --------------------------------
 #p wB97XD/Def2SVP td=(nstates=5)
 --------------------------------

 --------------------------------
 TDDFT excited states in gaussian
 --------------------------------
 Symbolic Z-matrix:
 Charge =  0 Multiplicity = 1

                         Standard orientation:
 ---------------------------------------------------------------------
 Center     Atomic      Atomic             Coordinates (Angstroms)
 Number     Number       Type             X           Y           Z
 ---------------------------------------------------------------------
      1         12           0      -20.617417   -0.508955   -0.203471
      2          6           0      -18.413280    2.046850    0.054126
      3          6           0      -23.154816    1.562774    0.951642
      4          6           0      -22.820452   -3.067210   -0.455343
      5          6           0      -18.013920   -2.688166   -0.878667
      6          7           0      -20.717279    1.534506    0.294370
      7          6           0      -19.700648    2.429651    0.375400
      8          6           0      -20.188893    3.835319    0.610166
      9          6           0      -21.648666    3.620282    1.163640
     10          6           0      -21.869195    2.129588    0.745361
     11          6           0      -21.989364    3.952374    2.676386
     12          6           0      -20.236201    4.678907   -0.742563
     13          6           0      -20.144770    6.213105   -0.492138
     14          1           0      -20.627993    6.852078    0.820627
     15          7           0      -22.713362   -0.788724    0.262491
     16          6           0      -23.568207    0.245321    0.726375
     17          6           0      -24.897244   -0.266352    0.875188
     18          6           0      -24.831025   -1.650054    0.480298
     19          6           0      -23.399355   -1.857711    0.059463
     20          6           0      -26.080717    0.547425    1.266199
     21          6           0      -25.937885   -2.697783    0.441479
     22          8           0      -25.780795   -3.928884    0.191492
     23          6           0      -27.367868   -2.281745    0.741916
     24          7           0      -20.447855   -2.582303   -0.537500
     25          6           0      -21.532674   -3.423816   -0.788891
     26          6           0      -21.160411   -4.780972   -1.452831
     27          6           0      -19.553353   -4.552369   -1.604104
     28          6           0      -19.298187   -3.213365   -1.015330
     29          6           0      -21.553632   -5.924705   -0.509064
     30          6           0      -19.032304   -4.727221   -3.000120
     31          6           0      -17.934119   -5.746340   -3.106620
     32          7           0      -18.662107   -0.485944   -0.284832
     33          6           0      -17.678690   -1.416452   -0.596788
     34          6           0      -16.400833   -0.807662   -0.559355
     35          6           0      -16.591440    0.568486   -0.261806
     36          6           0      -17.988947    0.753860   -0.205699
     37          6           0      -15.072588   -1.407847   -0.819088
     38          6           0      -15.924138    1.809938    0.063679
     39          8           0      -14.766610    2.154186    0.201817
     40          6           0      -17.149522    2.831990    0.206411
     41          6           0      -16.957846    3.792940    1.324011
     42          8           0      -16.552270    3.539185    2.429421
     43          8           0      -17.251525    5.059631    0.991664
     44          6           0      -17.082113    6.042474    2.099515
     45          1           0      -23.828559    2.240035    1.480883
     46          1           0      -23.512532   -3.910204   -0.403657
     47          1           0      -17.152302   -3.280555   -1.193300
     48          1           0      -19.663649    4.327315    1.428627
     49          1           0      -22.337134    4.186255    0.536938
     50          1           0      -21.101859    4.409857    3.113741
     51          1           0      -22.315360    3.131609    3.313302
     52          1           0      -22.840647    4.633147    2.658323
     53          1           0      -21.169330    4.372029   -1.215325
     54          1           0      -19.390354    4.358203   -1.350793
     55          1           0      -20.714094    6.615973   -1.329995
     56          1           0      -19.114713    6.493575   -0.710591
     57          1           0      -26.549704    1.118678    0.464999
     58          1           0      -25.730771    1.193111    2.070659
     59          1           0      -26.826842   -0.019919    1.821752
     60          1           0      -27.456191   -2.284890    1.828221
     61          1           0      -27.982861   -3.079968    0.327040
     62          1           0      -27.631165   -1.292350    0.367502
     63          1           0      -21.774430   -4.853349   -2.350598
     64          1           0      -19.041551   -5.298022   -0.994760
     65          1           0      -21.877102   -5.628937    0.489147
     66          1           0      -20.762000   -6.673589   -0.514595
     67          1           0      -22.449458   -6.369812   -0.943015
     68          1           0      -18.579765   -3.822800   -3.406943
     69          1           0      -19.788527   -4.994886   -3.738186
     70          1           0      -18.091924   -6.463267   -3.911851
     71          1           0      -17.837161   -6.323226   -2.187273
     72          1           0      -17.024546   -5.148868   -3.174958
     73          1           0      -14.963445   -2.461043   -0.558605
     74          1           0      -14.448561   -0.972259   -0.038201
     75          1           0      -14.774236   -1.220631   -1.850665
     76          1           0      -16.968643    3.373590   -0.722512
     77          1           0      -16.034443    6.297810    2.264781
     78          1           0      -17.626715    5.744739    2.995698
     79          1           0      -17.564690    6.973713    1.801834
     80         12           0       20.150014   -0.730869    0.388996
     81          6           0       19.992231    2.260865   -1.572132
     82          6           0       21.313909    1.122175    3.035783
     83          6           0       20.772503   -3.539495    2.158726
     84          6           0       19.901598   -2.532488   -2.633224
     85          7           0       20.578191    1.433680    0.668581
     86          6           0       20.385026    2.503704   -0.219287
     87          6           0       20.691909    3.796402    0.492362
     88          6           0       21.573685    3.307643    1.717784
     89          6           0       21.176298    1.804182    1.794785
     90          6           0       23.083325    3.518912    1.340674
     91          6           0       19.426860    4.664839    0.822220
     92          6           0       19.674068    6.055416    0.514858
     93          1           0       18.360032    6.985983    0.469247
     94          7           0       20.778826   -1.050250    2.403497
     95          6           0       21.169996   -0.162536    3.325585
     96          6           0       21.397500   -0.838231    4.565943
     97          6           0       21.269341   -2.194250    4.349930
     98          6           0       20.854603   -2.348636    2.879523
     99          6           0       21.929931   -0.095018    5.832140
    100          6           0       21.380825   -3.354069    5.360769
    101          8           0       21.268148   -4.487008    4.966162
    102          6           0       21.536447   -3.079880    6.838030
    103          7           0       20.579316   -2.731131   -0.243236
    104          6           0       20.670489   -3.715267    0.734909
    105          6           0       20.522310   -5.075332    0.134332
    106          6           0       20.218529   -4.759840   -1.411036
    107          6           0       20.163203   -3.250604   -1.441688
    108          6           0       21.689703   -5.964479    0.400566
    109          6           0       18.898680   -5.443691   -2.070871
    110          6           0       19.087769   -6.364635   -3.210805
    111          7           0       19.930592   -0.297936   -1.692794
    112          6           0       19.853186   -1.158993   -2.764159
    113          6           0       19.618328   -0.320621   -4.019074
    114          6           0       19.551251    1.018454   -3.584779
    115          6           0       19.800188    0.982725   -2.167979
    116          6           0       19.515725   -0.891556   -5.440003
    117          6           0       19.481543    2.359138   -4.081950
    118          8           0       19.315415    2.784121   -5.247539
    119          6           0       19.930988    3.232082   -2.839272
    120          6           0       18.930232    4.425583   -2.790797
    121          8           0       17.983776    4.429914   -1.982435
    122          8           0       19.326478    5.393647   -3.653123
    123          6           0       18.244746    6.434114   -3.739066
    124          1           0       21.467110    1.716905    3.939119
    125          1           0       20.950222   -4.463138    2.714686
    126          1           0       19.716626   -3.001534   -3.601716
    127          1           0       21.372055    4.339130   -0.163714
    128          1           0       21.355350    3.872571    2.623337
    129          1           0       23.457229    2.796064    0.615986
    130          1           0       23.676374    3.512577    2.254210
    131          1           0       23.201024    4.515653    0.914886
    132          1           0       19.334242    4.665509    1.908540
    133          1           0       18.521872    4.256926    0.371368
    134          1           0       20.024321    6.175218   -0.510500
    135          1           0       20.372001    6.435146    1.261452
    136          1           0       21.187817   -0.346951    6.589648
    137          1           0       21.963724    0.991035    5.747164
    138          1           0       22.942697   -0.428344    6.058242
    139          1           0       21.682892   -4.010394    7.386595
    140          1           0       20.555367   -2.627091    6.981103
    141          1           0       22.373003   -2.393406    6.968199
    142          1           0       19.624671   -5.452321    0.624815
    143          1           0       21.077401   -5.122927   -1.974938
    144          1           0       21.306849   -6.710548    1.095764
    145          1           0       22.487902   -5.466678    0.950968
    146          1           0       22.139670   -6.426283   -0.478578
    147          1           0       18.376020   -4.576571   -2.474548
    148          1           0       18.302535   -5.859153   -1.259498
    149          1           0       18.616259   -5.976701   -4.113363
    150          1           0       18.456519   -7.165047   -2.826357
    151          1           0       20.111857   -6.728034   -3.306447
    152          1           0       20.521721   -0.829568   -5.853499
    153          1           0       18.827952   -0.326365   -6.068920
    154          1           0       19.122094   -1.906571   -5.385618
    155          1           0       20.937778    3.545281   -3.112246
    156          1           0       17.362838    6.133610   -4.304547
    157          1           0       18.567352    7.395895   -4.136492
    158          1           0       17.981803    6.664470   -2.706447
 ---------------------------------------------------------------------

 SCF Done:  E(RwB97XD) =  -4070.57894359     A.U. after   18 cycles

 Excitation energies and oscillator strengths:

 Excited State   1:      Singlet-A      1.5874 eV  781.05 nm  f=0.3910  <S**2>=0.000
     309 -> 316       -0.17575
     311 -> 313        0.68654
     309 <- 316       -0.11663
 This state for optimization and/or second-order correction.
 Total Energy, E(TD-HF/TD-DFT) =  -4070.52060753
 Copying the excited state density for this state as the 1-particle RhoCI density.

 Excited State   2:      Singlet-A      1.6769 eV  739.38 nm  f=0.3527  <S**2>=0.000
     310 -> 315       -0.19188
     312 -> 314        0.68018
     310 <- 315       -0.11547

 Excited State   3:      Singlet-A      2.1692 eV  571.57 nm  f=0.1093  <S**2>=0.000
     309 -> 313        0.63605
     311 -> 316        0.29410

 Excited State   4:      Singlet-A      2.2164 eV  559.40 nm  f=0.0062  <S**2>=0.000
     310 -> 314        0.55057
     312 -> 315        0.43361

 Excited State   5:      Singlet-A      3.6379 eV  340.81 nm  f=0.0000  <S**2>=0.000
     312 -> 313        0.70709

 The electronic state is 1-A.
 Alpha  occ. eigenvalues --  -46.95730 -46.93500 -19.31326 -19.30362 -19.24664
 Alpha  occ. eigenvalues --  -19.24502 -19.24273 -19.23739 -19.23686 -19.23546
 Alpha  occ. eigenvalues --  -14.47456 -14.46840 -14.46448 -14.46293 -14.44104
 Alpha  occ. eigenvalues --  -14.43943 -14.43686 -14.43395 -10.43530 -10.42409
 Alpha  occ. eigenvalues --  -10.39632 -10.39214 -10.39165 -10.38859 -10.35806
 Alpha  occ. eigenvalues --  -10.35407 -10.35374 -10.35363 -10.35317 -10.35239
 Alpha  occ. eigenvalues --  -10.34944 -10.34904 -10.34710 -10.34510 -10.34403
 Alpha  occ. eigenvalues --  -10.34114 -10.33890 -10.33323 -10.33085 -10.33017
 Alpha  occ. eigenvalues --  -10.32970 -10.32956 -10.32936 -10.32884 -10.32829
 Alpha  occ. eigenvalues --  -10.32738 -10.32563 -10.32299 -10.32189 -10.32181
 Alpha  occ. eigenvalues --  -10.32140 -10.32093 -10.32009 -10.32008 -10.31932
 Alpha  occ. eigenvalues --  -10.31906 -10.31901 -10.31802 -10.31752 -10.31592
 Alpha  occ. eigenvalues --  -10.31583 -10.31535 -10.31396 -10.31358 -10.31136
 Alpha  occ. eigenvalues --  -10.31003 -10.30802 -10.30673 -10.30465 -10.30345
 Alpha  occ. eigenvalues --  -10.30314 -10.30085 -10.29964 -10.29750 -10.29743
 Alpha  occ. eigenvalues --  -10.29701 -10.29625 -10.29490 -10.29435 -10.29321
 Alpha  occ. eigenvalues --  -10.29274 -10.29182 -10.28972 -10.28908 -10.28884
 Alpha  occ. eigenvalues --  -10.28775  -3.21533  -3.19751  -1.95112  -1.94638
 Alpha  occ. eigenvalues --   -1.94498  -1.93340  -1.92865  -1.92772  -1.19468
 Alpha  occ. eigenvalues --   -1.18172  -1.13950  -1.12378  -1.10009  -1.09618
 Alpha  occ. eigenvalues --   -1.09443  -1.09262  -1.06513  -1.06092  -1.05596
 Alpha  occ. eigenvalues --   -1.05028  -1.04720  -1.04647  -1.03416  -1.03386
 Alpha  occ. eigenvalues --   -0.95351  -0.93126  -0.91575  -0.90817  -0.90720
 Alpha  occ. eigenvalues --   -0.90560  -0.90439  -0.90003  -0.89588  -0.89458
 Alpha  occ. eigenvalues --   -0.89163  -0.89120  -0.88353  -0.87339  -0.86244
 Alpha  occ. eigenvalues --   -0.86229  -0.85715  -0.85626  -0.84516  -0.84426
 Alpha  occ. eigenvalues --   -0.84372  -0.83583  -0.82996  -0.82591  -0.82458
 Alpha  occ. eigenvalues --   -0.82338  -0.80302  -0.80171  -0.79701  -0.79426
 Alpha  occ. eigenvalues --   -0.79265  -0.78455  -0.78403  -0.77344  -0.77149
 Alpha  occ. eigenvalues --   -0.76838  -0.74870  -0.74112  -0.73809  -0.73373
 Alpha  occ. eigenvalues --   -0.71069  -0.70762  -0.70584  -0.70136  -0.69742
 Alpha  occ. eigenvalues --   -0.69372  -0.68673  -0.68276  -0.67780  -0.67297
 Alpha  occ. eigenvalues --   -0.66974  -0.66851  -0.66768  -0.66389  -0.66246
 Alpha  occ. eigenvalues --   -0.66076  -0.64320  -0.63997  -0.62326  -0.61916
 Alpha  occ. eigenvalues --   -0.61881  -0.61030  -0.60930  -0.60394  -0.60358
 Alpha  occ. eigenvalues --   -0.60173  -0.59958  -0.59713  -0.59344  -0.58990
 Alpha  occ. eigenvalues --   -0.58071  -0.57955  -0.57408  -0.57348  -0.57149
 Alpha  occ. eigenvalues --   -0.56996  -0.56980  -0.56213  -0.55919  -0.55865
 Alpha  occ. eigenvalues --   -0.55850  -0.55436  -0.55275  -0.54950  -0.54831
 Alpha  occ. eigenvalues --   -0.54802  -0.54576  -0.54508  -0.54449  -0.54357
 Alpha  occ. eigenvalues --   -0.54353  -0.54098  -0.53898  -0.53812  -0.53238
 Alpha  occ. eigenvalues --   -0.53209  -0.53078  -0.52445  -0.52263  -0.52231
 Alpha  occ. eigenvalues --   -0.52130  -0.52038  -0.52007  -0.51921  -0.51591
 Alpha  occ. eigenvalues --   -0.51430  -0.51004  -0.50939  -0.50834  -0.50789
 Alpha  occ. eigenvalues --   -0.50516  -0.50303  -0.50127  -0.50116  -0.49912
 Alpha  occ. eigenvalues --   -0.49896  -0.49746  -0.49738  -0.49316  -0.49248
 Alpha  occ. eigenvalues --   -0.49121  -0.48625  -0.48535  -0.48488  -0.48423
 Alpha  occ. eigenvalues --   -0.48292  -0.48104  -0.47958  -0.47834  -0.47717
 Alpha  occ. eigenvalues --   -0.47249  -0.47138  -0.46843  -0.46703  -0.46483
 Alpha  occ. eigenvalues --   -0.46469  -0.46409  -0.46248  -0.45988  -0.45978
 Alpha  occ. eigenvalues --   -0.45819  -0.45699  -0.45457  -0.45351  -0.45200
 Alpha  occ. eigenvalues --   -0.45157  -0.45114  -0.44954  -0.44732  -0.44358
 Alpha  occ. eigenvalues --   -0.44246  -0.44233  -0.43972  -0.43915  -0.43832
 Alpha  occ. eigenvalues --   -0.43791  -0.43353  -0.43324  -0.42985  -0.42947
 Alpha  occ. eigenvalues --   -0.42828  -0.42649  -0.42495  -0.42317  -0.42271
 Alpha  occ. eigenvalues --   -0.42074  -0.41917  -0.41665  -0.40721  -0.40407
 Alpha  occ. eigenvalues --   -0.40199  -0.39877  -0.39735  -0.39626  -0.39184
 Alpha  occ. eigenvalues --   -0.39163  -0.39129  -0.38978  -0.38938  -0.38635
 Alpha  occ. eigenvalues --   -0.38036  -0.36735  -0.36614  -0.36200  -0.36002
 Alpha  occ. eigenvalues --   -0.35785  -0.35423  -0.35155  -0.33900  -0.33676
 Alpha  occ. eigenvalues --   -0.33346  -0.32808  -0.32637  -0.32596  -0.32198
 Alpha  occ. eigenvalues --   -0.32128  -0.31748  -0.31425  -0.26225  -0.26166
 Alpha  occ. eigenvalues --   -0.22829  -0.21977
 Alpha virt. eigenvalues --   -0.07317  -0.05855  -0.00569   0.00303   0.02117
 Alpha virt. eigenvalues --    0.02175   0.04344   0.04505   0.05109   0.06131
 Alpha virt. eigenvalues --    0.07306   0.07444   0.07811   0.07856   0.08037

 Mulliken charges:
               1
     1  Mg   0.985839
     2  C    0.012904
     3  C   -0.095364
     4  C   -0.062365
     5  C   -0.128158
     6  N   -0.378425
     7  C   -0.008527
     8  C   -0.043310
     9  C   -0.122017
    10  C    0.058028
    11  C    0.021169
    12  C    0.005307
    13  C   -0.092380
    14  H    0.043434
    15  N   -0.389422
    16  C    0.163910
    17  C   -0.155435
    18  C   -0.073778
    19  C    0.100016
    20  C    0.064826
    21  C    0.052960
    22  O   -0.274758
    23  C   -0.022242
    24  N   -0.392337
    25  C    0.057855
    26  C   -0.092127
    27  C   -0.027189
    28  C    0.109104
    29  C    0.008960
    30  C   -0.008536
    31  C   -0.062950
    32  N   -0.527716
    33  C    0.189866
    34  C   -0.191387
    35  C   -0.055033
    36  C    0.141509
    37  C    0.072760
    38  C    0.153163
    39  O   -0.183083
    40  C   -0.107191
    41  C    0.224466
    42  O   -0.229901
    43  O   -0.358813
    44  C    0.140884
    45  H   -0.003568
    46  H    0.017270
    47  H   -0.016889
    48  H    0.024485
    49  H    0.035440
    50  H    0.042329
    51  H    0.048421
    52  H    0.037239
    53  H    0.035729
    54  H    0.041486
    55  H    0.044243
    56  H    0.060611
    57  H    0.073832
    58  H    0.034856
    59  H    0.031882
    60  H    0.066652
    61  H    0.059200
    62  H    0.050471
    63  H    0.056046
    64  H    0.035256
    65  H    0.060712
    66  H    0.037238
    67  H    0.041376
    68  H    0.033244
    69  H    0.028301
    70  H    0.043817
    71  H    0.022303
    72  H    0.037646
    73  H    0.026944
    74  H    0.061490
    75  H    0.068430
    76  H    0.069251
    77  H    0.070825
    78  H    0.058529
    79  H    0.040387
    80  Mg   0.943019
    81  C    0.041779
    82  C   -0.129160
    83  C   -0.076119
    84  C   -0.077257
    85  N   -0.336087
    86  C   -0.017872
    87  C   -0.079344
    88  C   -0.155378
    89  C    0.135933
    90  C    0.022079
    91  C    0.093411
    92  C   -0.136519
    93  H    0.009105
    94  N   -0.446422
    95  C    0.165848
    96  C   -0.153368
    97  C   -0.107844
    98  C    0.164958
    99  C    0.056874
   100  C    0.032466
   101  O   -0.217406
   102  C    0.006265
   103  N   -0.392422
   104  C    0.060476
   105  C   -0.103415
   106  C   -0.058559
   107  C    0.088886
   108  C    0.029714
   109  C   -0.034555
   110  C   -0.028627
   111  N   -0.416629
   112  C    0.095633
   113  C   -0.195759
   114  C   -0.011700
   115  C    0.105133
   116  C    0.075056
   117  C    0.122606
   118  O   -0.234926
   119  C   -0.139188
   120  C    0.281317
   121  O   -0.275123
   122  O   -0.340489
   123  C    0.131715
   124  H   -0.010052
   125  H    0.029200
   126  H   -0.008281
   127  H    0.017167
   128  H    0.025387
   129  H    0.050715
   130  H    0.035102
   131  H    0.035616
   132  H    0.016193
   133  H    0.073652
   134  H    0.051817
   135  H    0.043232
   136  H    0.051651
   137  H    0.037592
   138  H    0.072588
   139  H    0.062075
   140  H    0.066277
   141  H    0.055523
   142  H    0.043076
   143  H    0.031468
   144  H    0.039715
   145  H    0.045833
   146  H    0.038538
   147  H    0.026839
   148  H    0.028223
   149  H    0.044940
   150  H    0.030330
   151  H    0.041810
   152  H    0.063070
   153  H    0.057610
   154  H    0.033418
   155  H    0.089991
   156  H    0.070086
   157  H    0.052395
   158  H    0.059099
 Sum of Mulliken charges =  -0.00000

 Dipole moment (field-independent basis, Debye):
    X=             -2.2445    Y=              1.7209    Z=              2.3068  Tot=              3.6497
 Quadrupole moment (field-independent basis, Debye-Ang):
   XX=           -309.2223   YY=           -474.8327   ZZ=           -501.1690
   XY=            -83.1007   XZ=            119.8197   YZ=             30.3516

 Normal termination of Gaussian 16 at Sun Sep 19 23:19:21 2021.
