 Gaussian 16, Revision A.03,
 Gaussian 16:  ES64L-G16RevA.03 25-Dec-2016

 --------------------------------
 #p wB97XD/Def2SVP td=(nstates=5)
 --------------------------------

 --------------------------------
 TDDFT excited states in gaussian
 --------------------------------
 Symbolic Z-matrix:
 Charge =  0 Multiplicity = 1

                         Standard orientation:
 ---------------------------------------------------------------------
 Center     Atomic      Atomic             Coordinates (Angstroms)
 Number     Number       Type             X           Y           Z
 ---------------------------------------------------------------------
      1         12           0      -16.753482    0.695502    0.075670
      2          6           0      -16.073169   -2.458650   -1.234303
      3          6           0      -14.156316    1.994725   -1.768672
      4          6           0      -17.364344    3.623421    1.642989
      5          6           0      -19.154107   -0.840229    2.231647
      6          7           0      -15.251507   -0.182324   -1.230082
      7          6           0      -15.165144   -1.471513   -1.656650
      8          6           0      -14.075611   -1.636574   -2.724056
      9          6           0      -13.412447   -0.188632   -2.727553
     10          6           0      -14.373872    0.604093   -1.835851
     11          6           0      -11.999574   -0.203804   -2.156653
     12          6           0      -14.581169   -1.923043   -4.182820
     13          6           0      -13.662103   -2.692980   -5.095199
     14          1           0      -12.251086   -2.845223   -4.739414
     15          7           0      -15.950077    2.533205   -0.115912
     16          6           0      -14.857975    2.864914   -0.942508
     17          6           0      -14.736009    4.298280   -0.891251
     18          6           0      -15.671077    4.821650    0.037197
     19          6           0      -16.388667    3.641561    0.579180
     20          6           0      -13.605213    5.057176   -1.552137
     21          6           0      -15.981826    6.205706    0.427463
     22          8           0      -16.673375    6.489138    1.382340
     23          6           0      -15.282980    7.412649   -0.297391
     24          7           0      -18.212818    1.396713    1.626595
     25          6           0      -18.218408    2.613495    2.082794
     26          6           0      -19.262989    2.788784    3.225888
     27          6           0      -19.892068    1.415905    3.378960
     28          6           0      -19.028984    0.538801    2.402129
     29          6           0      -18.573016    3.430231    4.520376
     30          6           0      -21.408888    1.408789    3.094192
     31          6           0      -22.374320    1.524391    4.332526
     32          7           0      -17.656495   -1.105675    0.280966
     33          6           0      -18.616416   -1.601262    1.197990
     34          6           0      -18.896609   -2.965703    0.959025
     35          6           0      -17.825704   -3.344728    0.042684
     36          6           0      -17.159037   -2.142294   -0.329000
     37          6           0      -19.795525   -3.852630    1.801009
     38          6           0      -17.279636   -4.496968   -0.574041
     39          8           0      -17.608666   -5.676342   -0.551995
     40          6           0      -16.081373   -3.898788   -1.567674
     41          6           0      -14.853055   -4.685458   -1.215603
     42          8           0      -14.349018   -4.728399   -0.088416
     43          8           0      -14.393238   -5.498766   -2.293545
     44          6           0      -13.176181   -6.323024   -2.013128
     45          1           0      -13.317774    2.337358   -2.379694
     46          1           0      -17.368855    4.547950    2.223470
     47          1           0      -19.912008   -1.350630    2.828994
     48          1           0      -13.393000   -2.397159   -2.344386
     49          1           0      -13.328801    0.237654   -3.727160
     50          1           0      -11.608516   -1.219178   -2.097840
     51          1           0      -11.922727    0.324961   -1.206209
     52          1           0      -11.249915    0.218373   -2.825929
     53          1           0      -14.831222   -0.964190   -4.635546
     54          1           0      -15.553871   -2.405079   -4.082466
     55          1           0      -13.618328   -2.143177   -6.035101
     56          1           0      -14.064110   -3.695721   -5.240341
     57          1           0      -12.922385    5.517740   -0.838265
     58          1           0      -14.043876    5.796134   -2.223978
     59          1           0      -12.926024    4.466918   -2.167068
     60          1           0      -14.302982    7.510690    0.170332
     61          1           0      -15.783503    8.345828   -0.038659
     62          1           0      -15.146105    7.203738   -1.357693
     63          1           0      -19.955649    3.520881    2.810309
     64          1           0      -19.664653    0.972178    4.347010
     65          1           0      -18.718162    2.789053    5.389706
     66          1           0      -19.030497    4.367112    4.838897
     67          1           0      -17.514715    3.487509    4.262463
     68          1           0      -21.614170    0.463611    2.590365
     69          1           0      -21.593851    2.210763    2.379385
     70          1           0      -22.524358    0.519046    4.727642
     71          1           0      -23.327798    2.039166    4.212730
     72          1           0      -21.719720    2.027923    5.043100
     73          1           0      -20.785317   -3.665426    1.385457
     74          1           0      -19.780765   -3.554544    2.848687
     75          1           0      -19.476660   -4.888212    1.926108
     76          1           0      -16.393963   -4.020944   -2.605460
     77          1           0      -13.359780   -7.055621   -1.228018
     78          1           0      -12.253022   -5.810036   -1.742149
     79          1           0      -13.104535   -6.846216   -2.966666
     80         12           0       17.024323    0.374834   -0.223942
     81          6           0       15.475854   -2.541140    0.857017
     82          6           0       14.116471    0.894773   -2.245231
     83          6           0       18.126222    3.382514   -0.962161
     84          6           0       19.385332   -0.013029    2.351503
     85          7           0       14.994382   -0.649132   -0.534004
     86          6           0       14.673583   -1.887794   -0.025495
     87          6           0       13.278101   -2.305488   -0.497123
     88          6           0       13.036019   -1.322526   -1.675855
     89          6           0       14.079458   -0.255930   -1.471125
     90          6           0       13.114101   -1.880299   -3.151174
     91          6           0       12.213884   -2.209907    0.608462
     92          6           0       10.882056   -2.759376    0.265724
     93          1           0        9.945041   -3.171844    1.464460
     94          7           0       16.232325    1.964777   -1.439632
     95          6           0       15.052149    1.970006   -2.199408
     96          6           0       14.967841    3.231411   -2.881209
     97          6           0       16.070242    4.035468   -2.409702
     98          6           0       16.896393    3.103045   -1.567419
     99          6           0       13.771067    3.621252   -3.792061
    100          6           0       16.275085    5.491946   -2.838309
    101          8           0       15.601734    6.006883   -3.715491
    102          6           0       17.327399    6.294614   -2.173591
    103          7           0       18.681565    1.410467    0.446037
    104          6           0       18.934980    2.623728   -0.056211
    105          6           0       20.140367    3.284682    0.727330
    106          6           0       20.547527    2.250231    1.845960
    107          6           0       19.410363    1.121300    1.573356
    108          6           0       21.330876    3.822554   -0.109351
    109          6           0       20.397957    2.888138    3.243709
    110          6           0       21.350814    2.344356    4.315184
    111          7           0       17.429331   -0.973740    1.333895
    112          6           0       18.473457   -1.080455    2.209418
    113          6           0       18.365339   -2.368145    2.905578
    114          6           0       17.281099   -2.985188    2.341611
    115          6           0       16.698284   -2.108853    1.454475
    116          6           0       19.362686   -2.929801    3.924005
    117          6           0       16.470399   -4.164403    2.395016
    118          8           0       16.568263   -5.185753    3.029561
    119          6           0       15.269129   -3.930162    1.419248
    120          6           0       15.377087   -4.934866    0.325922
    121          8           0       16.348146   -5.192374   -0.329962
    122          8           0       14.097063   -5.457537    0.072382
    123          6           0       14.011592   -6.389056   -1.016154
    124          1           0       13.239645    0.915933   -2.895044
    125          1           0       18.622394    4.342234   -1.123789
    126          1           0       20.144829   -0.199734    3.113744
    127          1           0       13.393593   -3.305105   -0.913890
    128          1           0       12.100087   -0.765682   -1.646962
    129          1           0       12.184760   -1.541163   -3.608297
    130          1           0       13.498731   -2.890415   -3.294516
    131          1           0       13.882071   -1.295771   -3.657566
    132          1           0       11.932678   -1.199240    0.905636
    133          1           0       12.578830   -2.692913    1.514961
    134          1           0       11.057779   -3.624516   -0.373615
    135          1           0       10.357103   -2.041218   -0.363935
    136          1           0       13.288724    4.303538   -3.091383
    137          1           0       13.022004    2.846107   -3.955052
    138          1           0       13.886008    4.091879   -4.768657
    139          1           0       17.157729    6.138229   -1.108301
    140          1           0       17.141929    7.347495   -2.386674
    141          1           0       18.252698    5.859409   -2.551908
    142          1           0       19.724018    4.176469    1.196657
    143          1           0       21.534715    1.804362    1.728689
    144          1           0       21.277112    4.911692   -0.108600
    145          1           0       21.301875    3.355044   -1.093015
    146          1           0       22.268003    3.605258    0.403128
    147          1           0       19.359465    2.708345    3.520591
    148          1           0       20.458112    3.976661    3.244729
    149          1           0       21.873777    3.240464    4.651010
    150          1           0       22.009084    1.545197    3.974182
    151          1           0       20.785582    1.974093    5.170560
    152          1           0       18.937411   -3.390837    4.814843
    153          1           0       19.962683   -2.049308    4.155083
    154          1           0       20.062178   -3.539165    3.351522
    155          1           0       14.364415   -4.079089    2.008790
    156          1           0       13.833944   -7.367140   -0.568965
    157          1           0       14.841983   -6.470992   -1.717876
    158          1           0       13.161019   -6.091736   -1.628930
 ---------------------------------------------------------------------

 SCF Done:  E(RwB97XD) =  -4070.64261383     A.U. after   19 cycles

 Excitation energies and oscillator strengths:

 Excited State   1:      Singlet-A      1.6918 eV  732.87 nm  f=0.3566  <S**2>=0.000
     310 -> 316        0.17791
     312 -> 313        0.68375
     310 <- 316        0.11250
 This state for optimization and/or second-order correction.
 Total Energy, E(TD-HF/TD-DFT) =  -4070.58044239
 Copying the excited state density for this state as the 1-particle RhoCI density.

 Excited State   2:      Singlet-A      1.7219 eV  720.05 nm  f=0.4095  <S**2>=0.000
     309 -> 315       -0.17619
     311 -> 314        0.68510
     309 <- 315       -0.11112

 Excited State   3:      Singlet-A      2.1733 eV  570.49 nm  f=0.1429  <S**2>=0.000
     310 -> 313        0.64713
     312 -> 316       -0.26328

 Excited State   4:      Singlet-A      2.2423 eV  552.93 nm  f=0.1151  <S**2>=0.000
     309 -> 314        0.63517
     311 -> 315        0.29259

 Excited State   5:      Singlet-A      3.2991 eV  375.81 nm  f=0.0028  <S**2>=0.000
     302 -> 314        0.12742
     305 -> 314       -0.40837
     306 -> 314        0.52381
     311 -> 315       -0.11714

 The electronic state is 1-A.
 Alpha  occ. eigenvalues --  -46.96042 -46.94351 -19.30208 -19.29368 -19.25438
 Alpha  occ. eigenvalues --  -19.24386 -19.24372 -19.23798 -19.23561 -19.23218
 Alpha  occ. eigenvalues --  -14.47297 -14.47269 -14.47009 -14.46257 -14.44902
 Alpha  occ. eigenvalues --  -14.44867 -14.43922 -14.43686 -10.43368 -10.42918
 Alpha  occ. eigenvalues --  -10.39527 -10.38901 -10.38314 -10.38149 -10.36486
 Alpha  occ. eigenvalues --  -10.35893 -10.35753 -10.35719 -10.35373 -10.35352
 Alpha  occ. eigenvalues --  -10.35231 -10.35095 -10.34985 -10.34928 -10.34881
 Alpha  occ. eigenvalues --  -10.34849 -10.34682 -10.34585 -10.33983 -10.33832
 Alpha  occ. eigenvalues --  -10.33199 -10.32824 -10.32799 -10.32592 -10.32412
 Alpha  occ. eigenvalues --  -10.32366 -10.32310 -10.32309 -10.32285 -10.32274
 Alpha  occ. eigenvalues --  -10.32216 -10.32069 -10.32068 -10.32052 -10.32012
 Alpha  occ. eigenvalues --  -10.31985 -10.31942 -10.31881 -10.31853 -10.31803
 Alpha  occ. eigenvalues --  -10.31797 -10.31677 -10.31649 -10.31531 -10.31516
 Alpha  occ. eigenvalues --  -10.31471 -10.30928 -10.30820 -10.30794 -10.30751
 Alpha  occ. eigenvalues --  -10.30541 -10.30474 -10.30431 -10.30367 -10.30296
 Alpha  occ. eigenvalues --  -10.30290 -10.30179 -10.30022 -10.29904 -10.29894
 Alpha  occ. eigenvalues --  -10.29755 -10.29690 -10.29615 -10.29462 -10.28508
 Alpha  occ. eigenvalues --  -10.27965  -3.21921  -3.20459  -1.95513  -1.95045
 Alpha  occ. eigenvalues --   -1.94875  -1.94067  -1.93581  -1.93450  -1.18795
 Alpha  occ. eigenvalues --   -1.15578  -1.13431  -1.12562  -1.12420  -1.11054
 Alpha  occ. eigenvalues --   -1.10813  -1.08012  -1.07216  -1.06633  -1.05958
 Alpha  occ. eigenvalues --   -1.05875  -1.05771  -1.05408  -1.04903  -1.04554
 Alpha  occ. eigenvalues --   -0.95255  -0.94044  -0.91325  -0.91231  -0.91218
 Alpha  occ. eigenvalues --   -0.90854  -0.90744  -0.90365  -0.90054  -0.89802
 Alpha  occ. eigenvalues --   -0.89417  -0.88460  -0.88201  -0.87937  -0.87187
 Alpha  occ. eigenvalues --   -0.86253  -0.85952  -0.85126  -0.84893  -0.84561
 Alpha  occ. eigenvalues --   -0.84155  -0.83460  -0.83276  -0.82861  -0.82346
 Alpha  occ. eigenvalues --   -0.81992  -0.80812  -0.79751  -0.79300  -0.79191
 Alpha  occ. eigenvalues --   -0.79107  -0.78780  -0.78166  -0.77807  -0.77531
 Alpha  occ. eigenvalues --   -0.77010  -0.75245  -0.75126  -0.74072  -0.73620
 Alpha  occ. eigenvalues --   -0.71578  -0.71349  -0.71017  -0.70918  -0.69963
 Alpha  occ. eigenvalues --   -0.69792  -0.69325  -0.68799  -0.68026  -0.67734
 Alpha  occ. eigenvalues --   -0.67592  -0.67194  -0.67004  -0.66977  -0.66653
 Alpha  occ. eigenvalues --   -0.66627  -0.64703  -0.63394  -0.62442  -0.62345
 Alpha  occ. eigenvalues --   -0.61911  -0.61614  -0.61343  -0.61331  -0.60823
 Alpha  occ. eigenvalues --   -0.60553  -0.60485  -0.59753  -0.59602  -0.59323
 Alpha  occ. eigenvalues --   -0.58535  -0.58296  -0.57867  -0.57488  -0.57014
 Alpha  occ. eigenvalues --   -0.56865  -0.56577  -0.56355  -0.55981  -0.55967
 Alpha  occ. eigenvalues --   -0.55561  -0.55393  -0.55315  -0.55163  -0.55142
 Alpha  occ. eigenvalues --   -0.54901  -0.54612  -0.54451  -0.54292  -0.54237
 Alpha  occ. eigenvalues --   -0.53963  -0.53885  -0.53696  -0.53648  -0.53499
 Alpha  occ. eigenvalues --   -0.52912  -0.52847  -0.52686  -0.52521  -0.52336
 Alpha  occ. eigenvalues --   -0.52238  -0.52151  -0.51830  -0.51782  -0.51658
 Alpha  occ. eigenvalues --   -0.51503  -0.51279  -0.51220  -0.51021  -0.51001
 Alpha  occ. eigenvalues --   -0.50867  -0.50591  -0.50316  -0.50283  -0.50100
 Alpha  occ. eigenvalues --   -0.50069  -0.49612  -0.49519  -0.49434  -0.49369
 Alpha  occ. eigenvalues --   -0.49213  -0.49119  -0.49081  -0.49022  -0.48855
 Alpha  occ. eigenvalues --   -0.48627  -0.48454  -0.48370  -0.48119  -0.47819
 Alpha  occ. eigenvalues --   -0.47763  -0.47339  -0.47058  -0.47049  -0.46950
 Alpha  occ. eigenvalues --   -0.46679  -0.46668  -0.46512  -0.46240  -0.46116
 Alpha  occ. eigenvalues --   -0.46095  -0.45904  -0.45827  -0.45683  -0.45326
 Alpha  occ. eigenvalues --   -0.45295  -0.45196  -0.44959  -0.44917  -0.44832
 Alpha  occ. eigenvalues --   -0.44672  -0.44580  -0.44517  -0.44369  -0.44274
 Alpha  occ. eigenvalues --   -0.44130  -0.43940  -0.43858  -0.43773  -0.43470
 Alpha  occ. eigenvalues --   -0.43445  -0.43197  -0.42699  -0.42526  -0.42191
 Alpha  occ. eigenvalues --   -0.42190  -0.41835  -0.41792  -0.41634  -0.41337
 Alpha  occ. eigenvalues --   -0.40768  -0.40559  -0.40157  -0.39819  -0.39700
 Alpha  occ. eigenvalues --   -0.39260  -0.38980  -0.38933  -0.38563  -0.38118
 Alpha  occ. eigenvalues --   -0.38060  -0.37784  -0.37232  -0.36468  -0.36309
 Alpha  occ. eigenvalues --   -0.35958  -0.35924  -0.35562  -0.34027  -0.33863
 Alpha  occ. eigenvalues --   -0.33174  -0.33097  -0.32763  -0.32643  -0.32298
 Alpha  occ. eigenvalues --   -0.32162  -0.31760  -0.31607  -0.26647  -0.26156
 Alpha  occ. eigenvalues --   -0.23521  -0.23400
 Alpha virt. eigenvalues --   -0.07429  -0.07411  -0.00062   0.00241   0.02228
 Alpha virt. eigenvalues --    0.02950   0.04477   0.04790   0.05171   0.06828
 Alpha virt. eigenvalues --    0.06884   0.06914   0.07549   0.07875   0.08494

 Mulliken charges:
               1
     1  Mg   0.981215
     2  C   -0.071111
     3  C   -0.108131
     4  C   -0.077324
     5  C   -0.077033
     6  N   -0.334097
     7  C    0.003520
     8  C   -0.040229
     9  C   -0.140133
    10  C    0.072816
    11  C    0.018704
    12  C    0.018205
    13  C   -0.105749
    14  H    0.036462
    15  N   -0.531694
    16  C    0.234387
    17  C   -0.151184
    18  C   -0.045510
    19  C    0.152445
    20  C    0.052104
    21  C    0.017190
    22  O   -0.224841
    23  C   -0.005341
    24  N   -0.321077
    25  C    0.055891
    26  C   -0.094112
    27  C   -0.043685
    28  C    0.027444
    29  C    0.014729
    30  C   -0.005395
    31  C   -0.042802
    32  N   -0.449193
    33  C    0.125141
    34  C   -0.138789
    35  C   -0.084722
    36  C    0.187674
    37  C    0.059667
    38  C    0.113552
    39  O   -0.211559
    40  C   -0.083837
    41  C    0.288693
    42  O   -0.260458
    43  O   -0.404796
    44  C    0.141051
    45  H    0.004089
    46  H    0.032137
    47  H    0.000496
    48  H    0.043800
    49  H    0.038804
    50  H    0.033309
    51  H    0.049271
    52  H    0.022996
    53  H    0.024373
    54  H    0.025406
    55  H    0.048805
    56  H    0.067396
    57  H    0.063441
    58  H    0.049929
    59  H    0.030779
    60  H    0.053333
    61  H    0.056029
    62  H    0.038207
    63  H    0.048292
    64  H    0.027391
    65  H    0.030074
    66  H    0.045683
    67  H    0.051188
    68  H    0.026156
    69  H    0.026668
    70  H    0.037046
    71  H    0.054586
    72  H    0.027410
    73  H    0.054141
    74  H    0.037477
    75  H    0.064168
    76  H    0.072272
    77  H    0.058612
    78  H    0.054389
    79  H    0.053754
    80  Mg   0.953847
    81  C   -0.018476
    82  C   -0.078119
    83  C   -0.102228
    84  C   -0.070761
    85  N   -0.331639
    86  C   -0.062297
    87  C    0.031410
    88  C   -0.153711
    89  C    0.038812
    90  C    0.036047
    91  C    0.038220
    92  C   -0.109490
    93  H    0.041449
    94  N   -0.434278
    95  C    0.181782
    96  C   -0.135686
    97  C   -0.120992
    98  C    0.235989
    99  C    0.062846
   100  C    0.024910
   101  O   -0.229659
   102  C    0.001954
   103  N   -0.396591
   104  C    0.068664
   105  C   -0.119385
   106  C   -0.096955
   107  C    0.094193
   108  C    0.022074
   109  C   -0.030794
   110  C   -0.043154
   111  N   -0.425036
   112  C    0.086039
   113  C   -0.233535
   114  C    0.018379
   115  C    0.142560
   116  C    0.107324
   117  C    0.094495
   118  O   -0.186457
   119  C   -0.073783
   120  C    0.260032
   121  O   -0.213091
   122  O   -0.378424
   123  C    0.124760
   124  H   -0.006500
   125  H   -0.019708
   126  H   -0.005964
   127  H    0.020885
   128  H    0.031278
   129  H    0.043336
   130  H    0.049317
   131  H    0.029132
   132  H    0.029777
   133  H    0.035508
   134  H    0.036452
   135  H    0.039680
   136  H    0.058543
   137  H    0.019533
   138  H    0.074497
   139  H    0.052434
   140  H    0.057986
   141  H    0.079019
   142  H    0.040384
   143  H    0.042226
   144  H    0.035897
   145  H    0.050041
   146  H    0.035419
   147  H    0.033101
   148  H    0.030011
   149  H    0.038297
   150  H    0.042339
   151  H    0.038986
   152  H    0.070675
   153  H    0.005456
   154  H    0.058229
   155  H    0.072912
   156  H    0.057196
   157  H    0.062224
   158  H    0.040158
 Sum of Mulliken charges =  -0.00000

 Dipole moment (field-independent basis, Debye):
    X=              2.8921    Y=              7.5853    Z=             -3.2412  Tot=              8.7410
 Quadrupole moment (field-independent basis, Debye-Ang):
   XX=           -520.7832   YY=           -563.0543   ZZ=           -499.8411
   XY=             -8.5355   XZ=             14.1945   YZ=             27.9822

 Normal termination of Gaussian 16 at Mon Sep 20 11:18:48 2021.
