 Gaussian 16, Revision A.03,
 Gaussian 16:  ES64L-G16RevA.03 25-Dec-2016

 --------------------------------
 #p wB97XD/Def2SVP td=(nstates=5)
 --------------------------------

 --------------------------------
 TDDFT excited states in gaussian
 --------------------------------
 Symbolic Z-matrix:
 Charge =  0 Multiplicity = 1

                         Standard orientation:
 ---------------------------------------------------------------------
 Center     Atomic      Atomic             Coordinates (Angstroms)
 Number     Number       Type             X           Y           Z
 ---------------------------------------------------------------------
      1         12           0       13.768561   -0.868824   -0.247489
      2          6           0       14.235916    2.448196    0.391737
      3          6           0       10.433846   -0.134605   -1.171890
      4          6           0       13.197084   -4.141841   -0.664630
      5          6           0       17.043281   -1.451840    0.609878
      6          7           0       12.390913    0.867326   -0.081812
      7          6           0       12.872510    2.169248    0.105601
      8          6           0       11.746387    3.231972   -0.037296
      9          6           0       10.584483    2.296936   -0.466111
     10          6           0       11.138279    0.884744   -0.524030
     11          6           0        9.186413    2.308595    0.287070
     12          6           0       12.000830    4.410817   -1.076592
     13          6           0       10.794574    5.384475   -1.156704
     14          1           0       11.072033    6.744003   -0.513630
     15          7           0       12.018694   -1.995203   -0.898962
     16          6           0       10.868851   -1.460258   -1.438799
     17          6           0       10.013341   -2.598698   -1.752583
     18          6           0       10.830773   -3.763517   -1.592129
     19          6           0       12.088676   -3.348801   -1.055517
     20          6           0        8.625164   -2.399899   -2.225933
     21          6           0       10.299067   -5.221059   -1.823308
     22          8           0       10.925127   -6.246741   -1.487220
     23          6           0        8.929823   -5.437217   -2.413170
     24          7           0       14.875689   -2.467088   -0.039137
     25          6           0       14.429435   -3.800246   -0.261238
     26          6           0       15.431677   -4.801337    0.267172
     27          6           0       16.705839   -3.962580    0.188513
     28          6           0       16.214899   -2.521925    0.202854
     29          6           0       15.107116   -5.282758    1.721182
     30          6           0       17.488730   -4.185465   -1.124761
     31          6           0       18.461916   -5.331604   -1.193745
     32          7           0       15.399338    0.195987    0.428725
     33          6           0       16.695256   -0.115747    0.591559
     34          6           0       17.415436    1.050135    1.010969
     35          6           0       16.516952    2.093044    0.934213
     36          6           0       15.296576    1.530461    0.529087
     37          6           0       18.870021    1.022887    1.327796
     38          6           0       16.394352    3.477348    1.108042
     39          8           0       17.206703    4.330090    1.410194
     40          6           0       14.864363    3.784063    0.752231
     41          6           0       14.248097    4.455617    1.928011
     42          8           0       14.028777    3.972454    3.012092
     43          8           0       13.803821    5.675348    1.610591
     44          6           0       13.106062    6.443911    2.712273
     45          1           0        9.477299    0.188735   -1.587384
     46          1           0       13.027675   -5.211583   -0.802765
     47          1           0       18.119440   -1.536129    0.772736
     48          1           0       11.541694    3.651419    0.947776
     49          1           0       10.318794    2.502009   -1.503585
     50          1           0        8.301798    2.165937   -0.334149
     51          1           0        9.144326    3.154322    0.973650
     52          1           0        9.203334    1.397891    0.885614
     53          1           0       12.234875    3.883489   -2.000574
     54          1           0       12.895187    4.950727   -0.765857
     55          1           0        9.895133    4.893247   -0.785479
     56          1           0       10.635515    5.590474   -2.214770
     57          1           0        7.951955   -2.753142   -1.444604
     58          1           0        8.576549   -2.872962   -3.206735
     59          1           0        8.431530   -1.345875   -2.425552
     60          1           0        8.752796   -6.502962   -2.557938
     61          1           0        9.013646   -5.027335   -3.420621
     62          1           0        8.088522   -4.978180   -1.894603
     63          1           0       15.473862   -5.688334   -0.365540
     64          1           0       17.378915   -4.117142    1.031579
     65          1           0       15.337851   -4.508375    2.451718
     66          1           0       15.655355   -6.197525    1.947986
     67          1           0       14.041638   -5.509970    1.716863
     68          1           0       18.017210   -3.293928   -1.459967
     69          1           0       16.786224   -4.299382   -1.950476
     70          1           0       18.124874   -5.976219   -2.005016
     71          1           0       18.245720   -5.890257   -0.282972
     72          1           0       19.509505   -5.034958   -1.247804
     73          1           0       19.451568    1.346968    0.465611
     74          1           0       19.283861    0.126199    1.790108
     75          1           0       19.008604    1.801246    2.078365
     76          1           0       14.841945    4.450176   -0.110566
     77          1           0       12.344460    5.783039    3.126755
     78          1           0       12.584304    7.331513    2.353504
     79          1           0       13.854893    6.702922    3.461106
     80         12           0      -14.237614    0.093556    0.553237
     81          6           0      -11.724781    1.678564   -1.335377
     82          6           0      -15.549894   -1.010869   -2.471986
     83          6           0      -16.399079   -1.808348    2.227271
     84          6           0      -12.248231    0.533255    3.362581
     85          7           0      -13.543427    0.213790   -1.642896
     86          6           0      -12.572724    1.006051   -2.224232
     87          6           0      -12.716526    1.219700   -3.716448
     88          6           0      -13.960758    0.373445   -4.076963
     89          6           0      -14.395746   -0.201201   -2.689052
     90          6           0      -15.115722    1.183578   -4.794112
     91          6           0      -11.468268    0.808101   -4.617880
     92          6           0      -10.591903   -0.362902   -4.144233
     93          1           0      -10.742801   -1.736439   -4.862706
     94          7           0      -15.733477   -1.189401   -0.033373
     95          6           0      -16.157808   -1.463758   -1.302389
     96          6           0      -17.351567   -2.319846   -1.257315
     97          6           0      -17.622235   -2.564865    0.123777
     98          6           0      -16.534874   -1.834693    0.844927
     99          6           0      -18.103224   -2.786326   -2.498353
    100          6           0      -18.793177   -3.542041    0.513832
    101          8           0      -19.409815   -4.086897   -0.391121
    102          6           0      -19.087263   -3.869249    2.038133
    103          7           0      -14.232607   -0.630683    2.452140
    104          6           0      -15.337688   -1.285442    2.991148
    105          6           0      -15.159047   -1.486443    4.600532
    106          6           0      -13.695489   -0.817819    4.817709
    107          6           0      -13.390035   -0.272046    3.460003
    108          6           0      -16.295267   -0.806809    5.420078
    109          6           0      -12.562149   -1.812848    5.317406
    110          6           0      -11.728589   -1.432472    6.550896
    111          7           0      -12.406754    1.041187    1.010457
    112          6           0      -11.692308    1.146974    2.176231
    113          6           0      -10.438585    1.877200    1.893572
    114          6           0      -10.499273    2.199356    0.511198
    115          6           0      -11.705207    1.612435    0.035921
    116          6           0       -9.323861    2.196095    2.850926
    117          6           0       -9.714558    2.818363   -0.573648
    118          8           0       -8.666114    3.479827   -0.583282
    119          6           0      -10.614806    2.659572   -1.789847
    120          6           0      -11.071348    3.904820   -2.308623
    121          8           0      -12.020200    4.540078   -1.780008
    122          8           0      -10.358147    4.275160   -3.466009
    123          6           0      -10.811575    5.444243   -4.212614
    124          1           0      -16.104018   -1.243578   -3.383358
    125          1           0      -17.179872   -2.290169    2.818731
    126          1           0      -11.712432    0.680714    4.302123
    127          1           0      -12.886321    2.293565   -3.784644
    128          1           0      -13.577057   -0.492567   -4.615100
    129          1           0      -15.197031    0.857599   -5.831006
    130          1           0      -14.826803    2.233113   -4.732287
    131          1           0      -16.079761    1.012448   -4.313956
    132          1           0      -10.861702    1.712744   -4.559507
    133          1           0      -11.802160    0.670368   -5.646555
    134          1           0      -10.734364   -0.542102   -3.078026
    135          1           0       -9.550132   -0.051344   -4.207500
    136          1           0      -17.918180   -3.822352   -2.782183
    137          1           0      -18.022869   -2.055486   -3.303134
    138          1           0      -19.180113   -2.717156   -2.345641
    139          1           0      -19.111034   -2.915251    2.565389
    140          1           0      -18.278619   -4.506572    2.394935
    141          1           0      -19.930227   -4.542832    2.192393
    142          1           0      -15.287754   -2.553068    4.782081
    143          1           0      -13.830445    0.022551    5.499016
    144          1           0      -15.940190    0.181708    5.710633
    145          1           0      -16.636345   -1.416257    6.257020
    146          1           0      -17.230223   -0.688961    4.872540
    147          1           0      -11.919697   -2.006761    4.457880
    148          1           0      -13.149769   -2.697032    5.564400
    149          1           0      -10.788286   -1.982651    6.595519
    150          1           0      -12.389307   -1.714858    7.370228
    151          1           0      -11.565264   -0.360295    6.439979
    152          1           0       -9.395202    1.414728    3.607066
    153          1           0       -9.660150    3.134871    3.291013
    154          1           0       -8.346570    2.352693    2.393380
    155          1           0       -9.944691    2.155933   -2.486200
    156          1           0      -10.745709    6.412647   -3.716606
    157          1           0      -11.845773    5.305106   -4.528903
    158          1           0      -10.297940    5.411174   -5.173579
 ---------------------------------------------------------------------

 SCF Done:  E(RwB97XD) =  -4070.62603076     A.U. after   19 cycles

 Excitation energies and oscillator strengths:

 Excited State   1:      Singlet-A      1.5968 eV  776.46 nm  f=0.4128  <S**2>=0.000
     309 -> 316        0.16558
     311 -> 313        0.68806
     309 <- 316        0.11235
 This state for optimization and/or second-order correction.
 Total Energy, E(TD-HF/TD-DFT) =  -4070.56735019
 Copying the excited state density for this state as the 1-particle RhoCI density.

 Excited State   2:      Singlet-A      1.6638 eV  745.17 nm  f=0.3570  <S**2>=0.000
     310 -> 315       -0.18681
     312 -> 314        0.68267
     310 <- 315       -0.11703

 Excited State   3:      Singlet-A      2.1951 eV  564.83 nm  f=0.1053  <S**2>=0.000
     309 -> 313        0.63719
     311 -> 316       -0.28948

 Excited State   4:      Singlet-A      2.2612 eV  548.32 nm  f=0.0694  <S**2>=0.000
     310 -> 314        0.61510
     312 -> 315        0.33666

 Excited State   5:      Singlet-A      3.2150 eV  385.64 nm  f=0.0019  <S**2>=0.000
     308 -> 313        0.67738

 The electronic state is 1-A.
 Alpha  occ. eigenvalues --  -46.95346 -46.93813 -19.31103 -19.30107 -19.25276
 Alpha  occ. eigenvalues --  -19.24702 -19.24451 -19.24333 -19.23656 -19.23510
 Alpha  occ. eigenvalues --  -14.47357 -14.47295 -14.46721 -14.46326 -14.44624
 Alpha  occ. eigenvalues --  -14.43961 -14.43440 -14.43395 -10.43967 -10.42336
 Alpha  occ. eigenvalues --  -10.40563 -10.39461 -10.39126 -10.38962 -10.36093
 Alpha  occ. eigenvalues --  -10.36037 -10.36022 -10.35927 -10.35490 -10.35363
 Alpha  occ. eigenvalues --  -10.35072 -10.34679 -10.34648 -10.34482 -10.34167
 Alpha  occ. eigenvalues --  -10.33990 -10.33965 -10.33502 -10.33421 -10.33406
 Alpha  occ. eigenvalues --  -10.33215 -10.33049 -10.32992 -10.32980 -10.32624
 Alpha  occ. eigenvalues --  -10.32623 -10.32610 -10.32586 -10.32428 -10.32405
 Alpha  occ. eigenvalues --  -10.32328 -10.32229 -10.32196 -10.32106 -10.31952
 Alpha  occ. eigenvalues --  -10.31879 -10.31829 -10.31739 -10.31677 -10.31475
 Alpha  occ. eigenvalues --  -10.31434 -10.31361 -10.31317 -10.31300 -10.31125
 Alpha  occ. eigenvalues --  -10.31075 -10.30818 -10.30746 -10.30727 -10.30686
 Alpha  occ. eigenvalues --  -10.30615 -10.30541 -10.30494 -10.30346 -10.30338
 Alpha  occ. eigenvalues --  -10.30054 -10.29913 -10.29772 -10.29634 -10.29558
 Alpha  occ. eigenvalues --  -10.29476 -10.29473 -10.29462 -10.29294 -10.29060
 Alpha  occ. eigenvalues --  -10.28869  -3.21413  -3.19998  -1.94958  -1.94551
 Alpha  occ. eigenvalues --   -1.94387  -1.93598  -1.93143  -1.92973  -1.19057
 Alpha  occ. eigenvalues --   -1.17220  -1.12700  -1.12694  -1.11369  -1.10416
 Alpha  occ. eigenvalues --   -1.09312  -1.09294  -1.07476  -1.06216  -1.05888
 Alpha  occ. eigenvalues --   -1.05660  -1.05056  -1.04669  -1.03967  -1.03936
 Alpha  occ. eigenvalues --   -0.95316  -0.95200  -0.91118  -0.90908  -0.90785
 Alpha  occ. eigenvalues --   -0.90628  -0.90501  -0.90014  -0.89832  -0.89074
 Alpha  occ. eigenvalues --   -0.88788  -0.88440  -0.88078  -0.87600  -0.86528
 Alpha  occ. eigenvalues --   -0.86242  -0.85845  -0.85805  -0.84752  -0.84379
 Alpha  occ. eigenvalues --   -0.83635  -0.83454  -0.83125  -0.83013  -0.82536
 Alpha  occ. eigenvalues --   -0.82111  -0.80301  -0.80160  -0.79440  -0.79222
 Alpha  occ. eigenvalues --   -0.79095  -0.78762  -0.78511  -0.78105  -0.77092
 Alpha  occ. eigenvalues --   -0.76923  -0.75189  -0.74386  -0.73792  -0.73741
 Alpha  occ. eigenvalues --   -0.71386  -0.71304  -0.70937  -0.70880  -0.70428
 Alpha  occ. eigenvalues --   -0.70188  -0.68887  -0.68009  -0.67750  -0.67726
 Alpha  occ. eigenvalues --   -0.67252  -0.66841  -0.66650  -0.66599  -0.66252
 Alpha  occ. eigenvalues --   -0.66109  -0.64504  -0.64063  -0.62304  -0.62172
 Alpha  occ. eigenvalues --   -0.61981  -0.61669  -0.61092  -0.61087  -0.60827
 Alpha  occ. eigenvalues --   -0.60711  -0.60278  -0.59956  -0.59785  -0.59263
 Alpha  occ. eigenvalues --   -0.58487  -0.58174  -0.57954  -0.57601  -0.56977
 Alpha  occ. eigenvalues --   -0.56947  -0.56643  -0.56435  -0.56214  -0.56164
 Alpha  occ. eigenvalues --   -0.55782  -0.55351  -0.55285  -0.55049  -0.54784
 Alpha  occ. eigenvalues --   -0.54608  -0.54553  -0.54362  -0.54190  -0.54119
 Alpha  occ. eigenvalues --   -0.53690  -0.53553  -0.53541  -0.53234  -0.53220
 Alpha  occ. eigenvalues --   -0.52948  -0.52716  -0.52296  -0.52244  -0.52136
 Alpha  occ. eigenvalues --   -0.52006  -0.51883  -0.51788  -0.51638  -0.51385
 Alpha  occ. eigenvalues --   -0.51322  -0.51247  -0.51124  -0.50965  -0.50837
 Alpha  occ. eigenvalues --   -0.50634  -0.50543  -0.50328  -0.50134  -0.50126
 Alpha  occ. eigenvalues --   -0.49945  -0.49647  -0.49393  -0.49332  -0.49250
 Alpha  occ. eigenvalues --   -0.49041  -0.48801  -0.48617  -0.48437  -0.48405
 Alpha  occ. eigenvalues --   -0.48366  -0.48227  -0.48146  -0.47909  -0.47804
 Alpha  occ. eigenvalues --   -0.47744  -0.47396  -0.47357  -0.47179  -0.46959
 Alpha  occ. eigenvalues --   -0.46791  -0.46631  -0.46611  -0.46526  -0.46181
 Alpha  occ. eigenvalues --   -0.46133  -0.45934  -0.45644  -0.45629  -0.45440
 Alpha  occ. eigenvalues --   -0.45235  -0.45225  -0.45087  -0.44943  -0.44764
 Alpha  occ. eigenvalues --   -0.44706  -0.44421  -0.44241  -0.44112  -0.43863
 Alpha  occ. eigenvalues --   -0.43685  -0.43609  -0.43491  -0.43484  -0.43059
 Alpha  occ. eigenvalues --   -0.43019  -0.42783  -0.42548  -0.42504  -0.42248
 Alpha  occ. eigenvalues --   -0.42205  -0.41924  -0.41816  -0.41688  -0.41656
 Alpha  occ. eigenvalues --   -0.40913  -0.40276  -0.39976  -0.39669  -0.39525
 Alpha  occ. eigenvalues --   -0.39349  -0.39220  -0.39050  -0.38991  -0.38713
 Alpha  occ. eigenvalues --   -0.38621  -0.38528  -0.36802  -0.36385  -0.36212
 Alpha  occ. eigenvalues --   -0.35952  -0.35536  -0.35423  -0.33638  -0.33597
 Alpha  occ. eigenvalues --   -0.33295  -0.33249  -0.33088  -0.32767  -0.32503
 Alpha  occ. eigenvalues --   -0.32389  -0.31830  -0.31203  -0.26498  -0.26131
 Alpha  occ. eigenvalues --   -0.22881  -0.22699
 Alpha virt. eigenvalues --   -0.07382  -0.06569   0.00053   0.00414   0.02277
 Alpha virt. eigenvalues --    0.02489   0.04044   0.04515   0.04865   0.05507
 Alpha virt. eigenvalues --    0.06418   0.07350   0.07430   0.07730   0.08047

 Mulliken charges:
               1
     1  Mg   0.971034
     2  C   -0.006025
     3  C   -0.072233
     4  C   -0.076421
     5  C   -0.099708
     6  N   -0.340869
     7  C   -0.009407
     8  C   -0.022367
     9  C   -0.153875
    10  C    0.065307
    11  C    0.013340
    12  C   -0.006063
    13  C   -0.111500
    14  H    0.047903
    15  N   -0.435227
    16  C    0.162651
    17  C   -0.218388
    18  C   -0.077972
    19  C    0.134434
    20  C    0.083710
    21  C    0.066558
    22  O   -0.256713
    23  C   -0.006710
    24  N   -0.468604
    25  C    0.098701
    26  C   -0.069467
    27  C   -0.080565
    28  C    0.140190
    29  C    0.040752
    30  C   -0.043623
    31  C   -0.003963
    32  N   -0.427996
    33  C    0.106688
    34  C   -0.178934
    35  C    0.017692
    36  C    0.137003
    37  C    0.064731
    38  C    0.098695
    39  O   -0.191750
    40  C   -0.123541
    41  C    0.249315
    42  O   -0.247120
    43  O   -0.362879
    44  C    0.139147
    45  H   -0.003900
    46  H    0.019842
    47  H   -0.001877
    48  H    0.044557
    49  H    0.034811
    50  H    0.042543
    51  H    0.043522
    52  H    0.037619
    53  H    0.035367
    54  H    0.054565
    55  H    0.051168
    56  H    0.053023
    57  H    0.065934
    58  H    0.049341
    59  H    0.025865
    60  H    0.051202
    61  H    0.045789
    62  H    0.060911
    63  H    0.028004
    64  H    0.022997
    65  H    0.041817
    66  H    0.042023
    67  H    0.041586
    68  H    0.022318
    69  H    0.020610
    70  H    0.035287
    71  H    0.017870
    72  H    0.051190
    73  H    0.062293
    74  H    0.044922
    75  H    0.051427
    76  H    0.073808
    77  H    0.058052
    78  H    0.060033
    79  H    0.069553
    80  Mg   0.987120
    81  C   -0.108872
    82  C   -0.085727
    83  C   -0.110539
    84  C   -0.096018
    85  N   -0.341990
    86  C   -0.038346
    87  C   -0.062323
    88  C   -0.058632
    89  C    0.026682
    90  C    0.027372
    91  C   -0.015011
    92  C   -0.118700
    93  H    0.036898
    94  N   -0.448642
    95  C    0.153619
    96  C   -0.157757
    97  C   -0.113586
    98  C    0.206821
    99  C    0.095497
   100  C    0.069740
   101  O   -0.226485
   102  C   -0.026163
   103  N   -0.421927
   104  C    0.079412
   105  C   -0.103162
   106  C   -0.075672
   107  C    0.085738
   108  C    0.009821
   109  C   -0.024299
   110  C   -0.038137
   111  N   -0.406516
   112  C    0.119713
   113  C   -0.211719
   114  C   -0.096422
   115  C    0.263468
   116  C    0.092513
   117  C    0.145409
   118  O   -0.218204
   119  C   -0.059545
   120  C    0.315875
   121  O   -0.277544
   122  O   -0.382320
   123  C    0.152219
   124  H   -0.009077
   125  H   -0.034945
   126  H   -0.015851
   127  H    0.049446
   128  H    0.045654
   129  H    0.043716
   130  H    0.040409
   131  H    0.046464
   132  H    0.038171
   133  H    0.048310
   134  H    0.063137
   135  H    0.056183
   136  H    0.065429
   137  H    0.023052
   138  H    0.044138
   139  H    0.073665
   140  H    0.060958
   141  H    0.052892
   142  H    0.044511
   143  H    0.036180
   144  H    0.037619
   145  H    0.038620
   146  H    0.031818
   147  H    0.048450
   148  H    0.025191
   149  H    0.051627
   150  H    0.041721
   151  H    0.037667
   152  H    0.034791
   153  H    0.054951
   154  H    0.066429
   155  H    0.059673
   156  H    0.069353
   157  H    0.033891
   158  H    0.052096
 Sum of Mulliken charges =  -0.00000

 Dipole moment (field-independent basis, Debye):
    X=             -4.8355    Y=              0.1534    Z=             -1.6858  Tot=              5.1233
 Quadrupole moment (field-independent basis, Debye-Ang):
   XX=           -524.5372   YY=           -536.6314   ZZ=           -464.4217
   XY=            -27.6536   XZ=            -58.1515   YZ=            -26.0915

 Normal termination of Gaussian 16 at Mon Sep 20 03:46:20 2021.
