 Gaussian 16, Revision A.03,
 Gaussian 16:  ES64L-G16RevA.03 25-Dec-2016

 --------------------------------
 #p wB97XD/Def2SVP td=(nstates=5)
 --------------------------------

 --------------------------------
 TDDFT excited states in gaussian
 --------------------------------
 Symbolic Z-matrix:
 Charge =  0 Multiplicity = 1

                         Standard orientation:
 ---------------------------------------------------------------------
 Center     Atomic      Atomic             Coordinates (Angstroms)
 Number     Number       Type             X           Y           Z
 ---------------------------------------------------------------------
      1         12           0       25.805050    0.825984    0.279786
      2          6           0       26.777663   -2.355603   -0.503450
      3          6           0       23.553072    0.827726   -2.176003
      4          6           0       25.182619    3.934009    1.038271
      5          6           0       28.629023    0.917880    2.452179
      6          7           0       25.331148   -0.563330   -1.318743
      7          6           0       25.672117   -1.874535   -1.251674
      8          6           0       24.769574   -2.732793   -2.095169
      9          6           0       23.922529   -1.626650   -2.843336
     10          6           0       24.335603   -0.350441   -2.142737
     11          6           0       24.096817   -1.609454   -4.380960
     12          6           0       23.930575   -3.872665   -1.250088
     13          6           0       23.899207   -5.310948   -1.789165
     14          1           0       24.138349   -5.496888   -3.320549
     15          7           0       24.480019    2.080703   -0.321139
     16          6           0       23.606602    1.961853   -1.354926
     17          6           0       22.865755    3.171841   -1.616279
     18          6           0       23.174819    3.998622   -0.578756
     19          6           0       24.402889    3.390289    0.020922
     20          6           0       22.031099    3.213966   -2.883223
     21          6           0       22.573005    5.373384   -0.225954
     22          8           0       22.956924    6.067004    0.686854
     23          6           0       21.472527    5.809286   -1.147646
     24          7           0       26.909290    2.260196    1.454162
     25          6           0       26.314138    3.445657    1.677855
     26          6           0       27.085606    4.256110    2.724159
     27          6           0       27.993122    3.175044    3.403482
     28          6           0       27.871754    2.038884    2.367306
     29          6           0       27.892426    5.536672    2.243603
     30          6           0       27.522871    2.651799    4.812810
     31          6           0       26.182626    2.002201    5.036438
     32          7           0       27.375932   -0.426842    0.982669
     33          6           0       28.506807   -0.253780    1.787229
     34          6           0       29.308968   -1.481381    1.864106
     35          6           0       28.654845   -2.349125    0.976762
     36          6           0       27.508927   -1.638610    0.499015
     37          6           0       30.507078   -1.763183    2.733960
     38          6           0       28.670689   -3.611031    0.391463
     39          8           0       29.447672   -4.550913    0.454840
     40          6           0       27.346440   -3.763819   -0.400736
     41          6           0       27.808649   -4.328970   -1.689170
     42          8           0       28.312501   -3.685476   -2.612898
     43          8           0       27.714165   -5.690501   -1.692539
     44          6           0       28.390535   -6.457706   -2.743267
     45          1           0       22.702256    0.724203   -2.852980
     46          1           0       24.999011    4.953010    1.383093
     47          1           0       29.427869    1.073612    3.181255
     48          1           0       25.336744   -3.227330   -2.883819
     49          1           0       22.870100   -1.763260   -2.595629
     50          1           0       24.745405   -0.776670   -4.652541
     51          1           0       23.120590   -1.444187   -4.836802
     52          1           0       24.548425   -2.563987   -4.651444
     53          1           0       22.912583   -3.485613   -1.203919
     54          1           0       24.339807   -3.980777   -0.246124
     55          1           0       22.905031   -5.738560   -1.662064
     56          1           0       24.559506   -5.941947   -1.194352
     57          1           0       22.591711    3.103796   -3.811621
     58          1           0       21.546507    4.138887   -3.195368
     59          1           0       21.295399    2.438822   -2.668660
     60          1           0       20.678954    5.063112   -1.179369
     61          1           0       22.019833    6.001051   -2.070335
     62          1           0       20.895370    6.697736   -0.893930
     63          1           0       26.275582    4.624636    3.354571
     64          1           0       29.025706    3.524253    3.383033
     65          1           0       27.760625    5.665860    1.169610
     66          1           0       28.965403    5.375614    2.340936
     67          1           0       27.673913    6.472080    2.760991
     68          1           0       27.617494    3.574774    5.385450
     69          1           0       28.210053    1.915585    5.228567
     70          1           0       25.571627    2.109510    4.139235
     71          1           0       25.644724    2.503444    5.840979
     72          1           0       26.187437    0.927202    5.215480
     73          1           0       31.435236   -1.795812    2.165106
     74          1           0       30.364873   -2.706113    3.262212
     75          1           0       30.562349   -0.876519    3.366021
     76          1           0       26.618825   -4.372409    0.136509
     77          1           0       28.631554   -7.471829   -2.422392
     78          1           0       29.210425   -5.899416   -3.192551
     79          1           0       27.773909   -6.581063   -3.633392
     80         12           0      -26.836309   -0.074311   -0.194570
     81          6           0      -23.396211   -0.785607   -0.425284
     82          6           0      -26.881614   -2.136956    2.604939
     83          6           0      -29.977530    0.860301    0.397710
     84          6           0      -26.321378    2.575149   -2.375992
     85          7           0      -25.214888   -1.177604    1.019139
     86          6           0      -23.900410   -1.454125    0.697308
     87          6           0      -23.275814   -2.608469    1.452558
     88          6           0      -24.405288   -3.057540    2.410084
     89          6           0      -25.574587   -2.088905    2.035630
     90          6           0      -24.806247   -4.582659    2.276665
     91          6           0      -21.938891   -2.290511    2.259826
     92          6           0      -21.767218   -0.878203    2.842510
     93          1           0      -21.972330   -0.680731    4.373689
     94          7           0      -28.202869   -0.569411    1.259763
     95          6           0      -28.060113   -1.468366    2.278208
     96          6           0      -29.335514   -1.623569    2.991820
     97          6           0      -30.266238   -0.748367    2.352691
     98          6           0      -29.467521   -0.089309    1.274147
     99          6           0      -29.536984   -2.578040    4.162787
    100          6           0      -31.716022   -0.603622    2.948757
    101          8           0      -31.981052   -1.226167    3.967702
    102          6           0      -32.756176    0.395522    2.287822
    103          7           0      -27.914413    1.542571   -0.789351
    104          6           0      -29.281519    1.644766   -0.542329
    105          6           0      -29.926691    2.886611   -1.381377
    106          6           0      -28.600385    3.458125   -2.123341
    107          6           0      -27.562083    2.454371   -1.737414
    108          6           0      -31.052827    2.431822   -2.355820
    109          6           0      -28.172962    4.931359   -1.709660
    110          6           0      -27.924858    5.971846   -2.812764
    111          7           0      -25.228992    0.700058   -1.324167
    112          6           0      -25.131186    1.780732   -2.162754
    113          6           0      -23.734204    1.883391   -2.634827
    114          6           0      -23.057953    0.786200   -2.037096
    115          6           0      -24.026041    0.143882   -1.215587
    116          6           0      -23.142311    2.931552   -3.535854
    117          6           0      -21.720691    0.178236   -1.903124
    118          8           0      -20.641014    0.382675   -2.477025
    119          6           0      -21.966989   -1.006932   -0.981431
    120          6           0      -21.743941   -2.260991   -1.618448
    121          8           0      -22.593127   -2.777682   -2.389952
    122          8           0      -20.507171   -2.820092   -1.240087
    123          6           0      -20.199960   -4.178052   -1.677509
    124          1           0      -26.998814   -2.898381    3.378439
    125          1           0      -31.045396    1.078528    0.458150
    126          1           0      -26.257674    3.390839   -3.098595
    127          1           0      -23.068947   -3.324432    0.658032
    128          1           0      -24.094099   -2.728479    3.400879
    129          1           0      -24.497166   -5.118420    3.174136
    130          1           0      -24.281281   -4.953256    1.395820
    131          1           0      -25.884902   -4.703204    2.170933
    132          1           0      -21.188858   -2.412994    1.477421
    133          1           0      -21.789642   -3.059486    3.018133
    134          1           0      -22.427019   -0.171901    2.337530
    135          1           0      -20.772280   -0.522914    2.577507
    136          1           0      -29.558984   -2.100974    5.142620
    137          1           0      -28.885325   -3.447594    4.076335
    138          1           0      -30.489466   -3.100403    4.074984
    139          1           0      -32.734456    0.206901    1.214217
    140          1           0      -32.429812    1.407618    2.525608
    141          1           0      -33.733199    0.402082    2.771023
    142          1           0      -30.433568    3.509967   -0.645362
    143          1           0      -28.775974    3.369868   -3.195718
    144          1           0      -30.594975    2.277335   -3.332637
    145          1           0      -31.901892    3.115283   -2.370103
    146          1           0      -31.551851    1.509065   -2.060317
    147          1           0      -27.298794    4.830554   -1.065610
    148          1           0      -29.040592    5.249722   -1.131778
    149          1           0      -27.319597    6.807134   -2.459480
    150          1           0      -28.937071    6.294148   -3.055950
    151          1           0      -27.419580    5.409732   -3.598425
    152          1           0      -23.779151    3.801955   -3.380267
    153          1           0      -23.347375    2.525723   -4.526469
    154          1           0      -22.067180    3.081687   -3.433289
    155          1           0      -21.235936   -0.820359   -0.195068
    156          1           0      -20.084514   -4.346022   -2.748316
    157          1           0      -20.964020   -4.866823   -1.315887
    158          1           0      -19.339828   -4.500849   -1.090700
 ---------------------------------------------------------------------

 SCF Done:  E(RwB97XD) =  -4070.59581815     A.U. after   20 cycles

 Excitation energies and oscillator strengths:

 Excited State   1:      Singlet-A      1.6637 eV  745.24 nm  f=0.3750  <S**2>=0.000
     309 -> 315       -0.18688
     311 -> 313        0.68287
     309 <- 315       -0.11707
 This state for optimization and/or second-order correction.
 Total Energy, E(TD-HF/TD-DFT) =  -4070.53467920
 Copying the excited state density for this state as the 1-particle RhoCI density.

 Excited State   2:      Singlet-A      1.7218 eV  720.09 nm  f=0.3736  <S**2>=0.000
     310 -> 316       -0.19588
     312 -> 314        0.67980
     310 <- 316       -0.11418

 Excited State   3:      Singlet-A      2.2243 eV  557.41 nm  f=0.0566  <S**2>=0.000
     310 -> 314        0.61468
     312 -> 316        0.33869

 Excited State   4:      Singlet-A      2.2612 eV  548.32 nm  f=0.0697  <S**2>=0.000
     309 -> 313        0.61506
     311 -> 315        0.33672

 Excited State   5:      Singlet-A      3.4333 eV  361.12 nm  f=0.6414  <S**2>=0.000
     307 -> 314       -0.11746
     310 -> 314       -0.32248
     312 -> 316        0.60124
     310 <- 314        0.11167

 The electronic state is 1-A.
 Alpha  occ. eigenvalues --  -46.95315 -46.94297 -19.31057 -19.29113 -19.25234
 Alpha  occ. eigenvalues --  -19.24979 -19.24674 -19.24290 -19.23267 -19.22673
 Alpha  occ. eigenvalues --  -14.47322 -14.46689 -14.46270 -14.45625 -14.44639
 Alpha  occ. eigenvalues --  -14.44591 -14.43926 -14.43318 -10.43924 -10.42085
 Alpha  occ. eigenvalues --  -10.40537 -10.39948 -10.39418 -10.37510 -10.36004
 Alpha  occ. eigenvalues --  -10.35880 -10.35453 -10.35038 -10.34931 -10.34650
 Alpha  occ. eigenvalues --  -10.34613 -10.34611 -10.34443 -10.34376 -10.34284
 Alpha  occ. eigenvalues --  -10.34228 -10.34135 -10.33929 -10.33394 -10.33108
 Alpha  occ. eigenvalues --  -10.33003 -10.32983 -10.32895 -10.32658 -10.32591
 Alpha  occ. eigenvalues --  -10.32550 -10.32390 -10.32379 -10.32294 -10.32161
 Alpha  occ. eigenvalues --  -10.32005 -10.31985 -10.31916 -10.31899 -10.31882
 Alpha  occ. eigenvalues --  -10.31836 -10.31735 -10.31712 -10.31645 -10.31637
 Alpha  occ. eigenvalues --  -10.31594 -10.31525 -10.31393 -10.31378 -10.31347
 Alpha  occ. eigenvalues --  -10.31284 -10.31052 -10.30785 -10.30711 -10.30696
 Alpha  occ. eigenvalues --  -10.30566 -10.30516 -10.30470 -10.30406 -10.30178
 Alpha  occ. eigenvalues --  -10.29898 -10.29895 -10.29890 -10.29732 -10.29729
 Alpha  occ. eigenvalues --  -10.29609 -10.29447 -10.29258 -10.29003 -10.28998
 Alpha  occ. eigenvalues --  -10.28045  -3.21381  -3.20555  -1.94926  -1.94520
 Alpha  occ. eigenvalues --   -1.94355  -1.94117  -1.93700  -1.93566  -1.17176
 Alpha  occ. eigenvalues --   -1.16991  -1.13770  -1.12673  -1.11325  -1.11201
 Alpha  occ. eigenvalues --   -1.09251  -1.08086  -1.07634  -1.06746  -1.06183
 Alpha  occ. eigenvalues --   -1.06101  -1.05627  -1.05004  -1.04637  -1.03933
 Alpha  occ. eigenvalues --   -0.95162  -0.94301  -0.91598  -0.91088  -0.90746
 Alpha  occ. eigenvalues --   -0.90343  -0.89984  -0.89883  -0.89843  -0.89383
 Alpha  occ. eigenvalues --   -0.88755  -0.88475  -0.88044  -0.87567  -0.86491
 Alpha  occ. eigenvalues --   -0.86280  -0.85814  -0.85465  -0.84718  -0.84628
 Alpha  occ. eigenvalues --   -0.84488  -0.83603  -0.82983  -0.82982  -0.82474
 Alpha  occ. eigenvalues --   -0.82076  -0.81000  -0.80126  -0.79368  -0.79187
 Alpha  occ. eigenvalues --   -0.78884  -0.78727  -0.78477  -0.77620  -0.77129
 Alpha  occ. eigenvalues --   -0.76891  -0.74606  -0.74352  -0.73758  -0.73657
 Alpha  occ. eigenvalues --   -0.71550  -0.71266  -0.71001  -0.70902  -0.70398
 Alpha  occ. eigenvalues --   -0.70114  -0.69306  -0.68855  -0.67722  -0.67335
 Alpha  occ. eigenvalues --   -0.67219  -0.66897  -0.66739  -0.66613  -0.66216
 Alpha  occ. eigenvalues --   -0.65738  -0.64465  -0.63687  -0.63151  -0.62270
 Alpha  occ. eigenvalues --   -0.61631  -0.61281  -0.61257  -0.61058  -0.60676
 Alpha  occ. eigenvalues --   -0.59867  -0.59783  -0.59751  -0.59520  -0.59230
 Alpha  occ. eigenvalues --   -0.58318  -0.58141  -0.57563  -0.57224  -0.57081
 Alpha  occ. eigenvalues --   -0.56911  -0.56577  -0.56396  -0.56389  -0.56180
 Alpha  occ. eigenvalues --   -0.55745  -0.55584  -0.55109  -0.55018  -0.54583
 Alpha  occ. eigenvalues --   -0.54551  -0.54527  -0.54330  -0.54326  -0.54167
 Alpha  occ. eigenvalues --   -0.54086  -0.53592  -0.53515  -0.53185  -0.53184
 Alpha  occ. eigenvalues --   -0.52913  -0.52684  -0.52524  -0.52409  -0.52266
 Alpha  occ. eigenvalues --   -0.52125  -0.51973  -0.51483  -0.51349  -0.51284
 Alpha  occ. eigenvalues --   -0.51247  -0.51213  -0.51000  -0.50933  -0.50708
 Alpha  occ. eigenvalues --   -0.50507  -0.50476  -0.50294  -0.50103  -0.50006
 Alpha  occ. eigenvalues --   -0.49930  -0.49705  -0.49299  -0.49220  -0.49085
 Alpha  occ. eigenvalues --   -0.48735  -0.48580  -0.48568  -0.48422  -0.48406
 Alpha  occ. eigenvalues --   -0.48196  -0.48111  -0.47710  -0.47610  -0.47390
 Alpha  occ. eigenvalues --   -0.47324  -0.47134  -0.46925  -0.46758  -0.46754
 Alpha  occ. eigenvalues --   -0.46600  -0.46495  -0.46443  -0.46149  -0.46065
 Alpha  occ. eigenvalues --   -0.45900  -0.45795  -0.45755  -0.45497  -0.45186
 Alpha  occ. eigenvalues --   -0.45061  -0.45045  -0.44910  -0.44831  -0.44789
 Alpha  occ. eigenvalues --   -0.44675  -0.44384  -0.44364  -0.44205  -0.44077
 Alpha  occ. eigenvalues --   -0.44057  -0.43772  -0.43576  -0.43499  -0.43145
 Alpha  occ. eigenvalues --   -0.42987  -0.42973  -0.42682  -0.42516  -0.42440
 Alpha  occ. eigenvalues --   -0.42174  -0.41790  -0.41626  -0.41482  -0.41103
 Alpha  occ. eigenvalues --   -0.40872  -0.40370  -0.40086  -0.39630  -0.39490
 Alpha  occ. eigenvalues --   -0.39185  -0.39018  -0.39015  -0.38671  -0.38410
 Alpha  occ. eigenvalues --   -0.38296  -0.37131  -0.36769  -0.36343  -0.36331
 Alpha  occ. eigenvalues --   -0.35502  -0.35429  -0.34939  -0.34629  -0.33565
 Alpha  occ. eigenvalues --   -0.33399  -0.33264  -0.33047  -0.32921  -0.32472
 Alpha  occ. eigenvalues --   -0.32054  -0.31852  -0.31794  -0.26098  -0.25753
 Alpha  occ. eigenvalues --   -0.22665  -0.22421
 Alpha virt. eigenvalues --   -0.06535  -0.06157   0.00085   0.00163   0.02308
 Alpha virt. eigenvalues --    0.02314   0.04077   0.04592   0.04895   0.05549
 Alpha virt. eigenvalues --    0.05883   0.07464   0.07579   0.07775   0.08498

 Mulliken charges:
               1
     1  Mg   0.992941
     2  C    0.010965
     3  C   -0.117733
     4  C   -0.080902
     5  C   -0.116878
     6  N   -0.330583
     7  C   -0.016991
     8  C   -0.037179
     9  C   -0.153976
    10  C    0.076273
    11  C    0.047334
    12  C    0.007298
    13  C   -0.126015
    14  H    0.026414
    15  N   -0.509752
    16  C    0.180028
    17  C   -0.131375
    18  C   -0.119613
    19  C    0.182784
    20  C    0.046297
    21  C    0.071736
    22  O   -0.201889
    23  C   -0.025330
    24  N   -0.321161
    25  C    0.020817
    26  C   -0.086022
    27  C   -0.050061
    28  C   -0.008343
    29  C    0.024214
    30  C   -0.010786
    31  C   -0.046754
    32  N   -0.398890
    33  C    0.159794
    34  C   -0.186988
    35  C    0.034806
    36  C    0.091566
    37  C    0.104726
    38  C    0.050737
    39  O   -0.214281
    40  C   -0.074766
    41  C    0.264552
    42  O   -0.268214
    43  O   -0.355801
    44  C    0.151796
    45  H   -0.008452
    46  H    0.016517
    47  H   -0.010549
    48  H    0.043132
    49  H    0.031885
    50  H    0.045728
    51  H    0.038586
    52  H    0.045936
    53  H    0.033219
    54  H    0.041133
    55  H    0.049098
    56  H    0.062502
    57  H    0.060519
    58  H    0.029696
    59  H    0.066557
    60  H    0.061547
    61  H    0.069429
    62  H    0.048060
    63  H    0.035054
    64  H    0.029197
    65  H    0.038298
    66  H    0.025920
    67  H    0.050235
    68  H    0.032273
    69  H    0.032282
    70  H    0.028535
    71  H    0.041156
    72  H    0.043825
    73  H    0.059446
    74  H    0.063944
    75  H    0.019686
    76  H    0.072654
    77  H    0.061557
    78  H    0.057174
    79  H    0.029428
    80  Mg   0.986912
    81  C   -0.109052
    82  C   -0.085599
    83  C   -0.110604
    84  C   -0.096015
    85  N   -0.341917
    86  C   -0.038027
    87  C   -0.062472
    88  C   -0.058505
    89  C    0.026454
    90  C    0.027360
    91  C   -0.015256
    92  C   -0.118665
    93  H    0.036880
    94  N   -0.448602
    95  C    0.153610
    96  C   -0.157745
    97  C   -0.113722
    98  C    0.206780
    99  C    0.095441
   100  C    0.069780
   101  O   -0.226543
   102  C   -0.026206
   103  N   -0.421939
   104  C    0.079609
   105  C   -0.103181
   106  C   -0.075620
   107  C    0.085557
   108  C    0.009850
   109  C   -0.024349
   110  C   -0.038116
   111  N   -0.406430
   112  C    0.119662
   113  C   -0.211618
   114  C   -0.096386
   115  C    0.263468
   116  C    0.092505
   117  C    0.145488
   118  O   -0.217917
   119  C   -0.059207
   120  C    0.315736
   121  O   -0.277615
   122  O   -0.382242
   123  C    0.152245
   124  H   -0.009086
   125  H   -0.035076
   126  H   -0.015843
   127  H    0.049466
   128  H    0.045649
   129  H    0.043696
   130  H    0.040413
   131  H    0.046413
   132  H    0.038314
   133  H    0.048324
   134  H    0.063107
   135  H    0.056386
   136  H    0.065388
   137  H    0.023016
   138  H    0.044108
   139  H    0.073656
   140  H    0.060937
   141  H    0.052813
   142  H    0.044448
   143  H    0.036133
   144  H    0.037587
   145  H    0.038531
   146  H    0.031793
   147  H    0.048514
   148  H    0.025131
   149  H    0.051613
   150  H    0.041641
   151  H    0.037695
   152  H    0.034759
   153  H    0.054936
   154  H    0.066645
   155  H    0.059763
   156  H    0.069360
   157  H    0.033798
   158  H    0.052183
 Sum of Mulliken charges =  -0.00000

 Dipole moment (field-independent basis, Debye):
    X=             -7.7282    Y=              1.7947    Z=             -0.4125  Tot=              7.9446
 Quadrupole moment (field-independent basis, Debye-Ang):
   XX=           -649.5354   YY=           -488.1503   ZZ=           -508.3586
   XY=             40.2034   XZ=             39.4655   YZ=            -11.3356

 Normal termination of Gaussian 16 at Sat Sep 18 12:58:43 2021.
