 Gaussian 16, Revision A.03,
 Gaussian 16:  ES64L-G16RevA.03 25-Dec-2016

 --------------------------------
 #p wB97XD/Def2SVP td=(nstates=5)
 --------------------------------

 --------------------------------
 TDDFT excited states in gaussian
 --------------------------------
 Symbolic Z-matrix:
 Charge =  0 Multiplicity = 1

                         Standard orientation:
 ---------------------------------------------------------------------
 Center     Atomic      Atomic             Coordinates (Angstroms)
 Number     Number       Type             X           Y           Z
 ---------------------------------------------------------------------
      1         12           0       21.523343    0.669226   -0.103913
      2          6           0       21.698488   -2.869448    0.013733
      3          6           0       18.775216    0.478508    1.880790
      4          6           0       21.863896    4.007810    0.441307
      5          6           0       24.613232    0.666634   -1.674046
      6          7           0       20.537252   -1.087392    0.920042
      7          6           0       20.676346   -2.442000    0.772487
      8          6           0       19.617143   -3.192244    1.490938
      9          6           0       18.515999   -2.069335    1.789665
     10          6           0       19.300154   -0.826731    1.538973
     11          6           0       17.293153   -2.223490    0.899795
     12          6           0       20.279296   -3.872133    2.699626
     13          6           0       20.088195   -5.439547    2.856496
     14          1           0       19.510699   -6.058283    4.165070
     15          7           0       20.482766    2.103444    0.950018
     16          6           0       19.299930    1.812558    1.643776
     17          6           0       18.715955    3.056347    2.047396
     18          6           0       19.598259    4.127364    1.678500
     19          6           0       20.674795    3.431945    0.923513
     20          6           0       17.358683    3.093484    2.737924
     21          6           0       19.457335    5.609666    1.943408
     22          8           0       18.350755    5.924101    2.469800
     23          6           0       20.512089    6.736479    1.754727
     24          7           0       23.034298    2.175516   -0.557928
     25          6           0       22.919326    3.486919   -0.253110
     26          6           0       24.150867    4.325408   -0.686652
     27          6           0       24.984881    3.254115   -1.470506
     28          6           0       24.167764    1.911715   -1.165259
     29          6           0       23.695826    5.502192   -1.531080
     30          6           0       26.414396    3.114621   -1.044130
     31          6           0       27.405622    3.574638   -2.078433
     32          7           0       22.809711   -0.699278   -0.868337
     33          6           0       24.032619   -0.609506   -1.545243
     34          6           0       24.421742   -1.817798   -2.069351
     35          6           0       23.512223   -2.741102   -1.514458
     36          6           0       22.608466   -2.021669   -0.735956
     37          6           0       25.507857   -1.970021   -3.113157
     38          6           0       23.114762   -4.174061   -1.528406
     39          8           0       23.597101   -5.085325   -2.126259
     40          6           0       21.970618   -4.234501   -0.446945
     41          6           0       20.906321   -5.167062   -0.982894
     42          8           0       20.729726   -6.322712   -0.597232
     43          8           0       20.112746   -4.503852   -1.950179
     44          6           0       18.990708   -5.322987   -2.407652
     45          1           0       17.778860    0.431384    2.325777
     46          1           0       21.964138    5.093824    0.505907
     47          1           0       25.661946    0.576468   -1.962572
     48          1           0       19.210827   -3.962732    0.835563
     49          1           0       18.195333   -2.176782    2.825531
     50          1           0       17.535975   -2.540880   -0.113378
     51          1           0       16.835786   -1.241396    0.775211
     52          1           0       16.518762   -2.863005    1.323337
     53          1           0       19.888579   -3.384467    3.592606
     54          1           0       21.343201   -3.656583    2.798364
     55          1           0       21.124046   -5.763554    2.752548
     56          1           0       19.631084   -5.863260    1.963058
     57          1           0       17.328102    2.402164    3.580103
     58          1           0       16.634965    2.753044    1.997458
     59          1           0       17.059593    4.029497    3.211647
     60          1           0       20.602701    6.810736    0.671510
     61          1           0       21.449713    6.412537    2.206564
     62          1           0       20.213115    7.673348    2.225577
     63          1           0       24.718589    4.744056    0.143942
     64          1           0       24.860385    3.399564   -2.543253
     65          1           0       22.906370    6.016245   -0.982541
     66          1           0       23.301727    5.112658   -2.470271
     67          1           0       24.433627    6.214846   -1.897746
     68          1           0       26.711091    2.086117   -0.838558
     69          1           0       26.702795    3.618829   -0.122005
     70          1           0       28.060686    4.308120   -1.609950
     71          1           0       26.937273    4.111989   -2.903057
     72          1           0       27.969475    2.767839   -2.547882
     73          1           0       25.355800   -2.951978   -3.562352
     74          1           0       26.507084   -1.917918   -2.681458
     75          1           0       25.342241   -1.144725   -3.805301
     76          1           0       22.441737   -4.821947    0.341974
     77          1           0       18.169170   -4.691016   -2.745247
     78          1           0       18.531656   -5.865023   -1.582087
     79          1           0       19.273584   -6.047384   -3.171909
     80         12           0      -22.231327    0.135617   -0.403143
     81          6           0      -19.049750   -0.727541    0.729146
     82          6           0      -23.348675   -3.007631    0.466400
     83          6           0      -25.164021    1.192704   -1.427923
     84          6           0      -21.208347    3.630650   -0.258947
     85          7           0      -21.198807   -1.724341    0.474973
     86          6           0      -19.902386   -1.843209    0.890651
     87          6           0      -19.623469   -3.221561    1.375512
     88          6           0      -21.030428   -3.940556    1.328012
     89          6           0      -21.974716   -2.838627    0.706812
     90          6           0      -21.023585   -5.334167    0.650776
     91          6           0      -19.010547   -3.251887    2.796723
     92          6           0      -17.735423   -4.092976    2.818742
     93          1           0      -17.640920   -5.228155    3.882436
     94          7           0      -24.014675   -0.801829   -0.499587
     95          6           0      -24.298271   -2.118919   -0.141294
     96          6           0      -25.693774   -2.327774   -0.505143
     97          6           0      -26.252844   -1.105744   -1.105316
     98          6           0      -25.099427   -0.151331   -1.105411
     99          6           0      -26.427435   -3.518859   -0.137857
    100          6           0      -27.685373   -0.964319   -1.415325
    101          8           0      -28.505223   -1.847210   -1.272921
    102          6           0      -28.319083    0.311685   -1.847865
    103          7           0      -23.023943    2.067506   -0.724896
    104          6           0      -24.195822    2.192815   -1.427076
    105          6           0      -24.506544    3.655395   -1.665685
    106          6           0      -23.493625    4.379190   -0.859871
    107          6           0      -22.547478    3.335642   -0.526117
    108          6           0      -24.626283    4.077655   -3.187256
    109          6           0      -24.058053    4.923381    0.497215
    110          6           0      -23.438687    6.133595    1.025956
    111          7           0      -20.482944    1.280769    0.093189
    112          6           0      -20.191824    2.650314    0.043227
    113          6           0      -18.780412    2.831626    0.177079
    114          6           0      -18.288425    1.569193    0.486824
    115          6           0      -19.386824    0.637434    0.464559
    116          6           0      -18.098455    4.144473    0.058078
    117          6           0      -17.129522    0.856008    0.851388
    118          8           0      -15.991908    1.241922    1.002832
    119          6           0      -17.544107   -0.627928    0.965663
    120          6           0      -16.713959   -1.430061    0.053032
    121          8           0      -16.950410   -1.634899   -1.149521
    122          8           0      -15.548251   -1.790965    0.688915
    123          6           0      -14.598491   -2.675245    0.033342
    124          1           0      -23.616554   -4.037983    0.707166
    125          1           0      -26.088793    1.690403   -1.730334
    126          1           0      -20.939455    4.689037   -0.255313
    127          1           0      -19.103544   -3.696102    0.542816
    128          1           0      -21.432265   -4.176566    2.312889
    129          1           0      -19.966595   -5.601226    0.682655
    130          1           0      -21.486025   -5.401527   -0.334021
    131          1           0      -21.568434   -6.047915    1.268197
    132          1           0      -19.633608   -3.750918    3.538697
    133          1           0      -18.829823   -2.212698    3.070944
    134          1           0      -17.031569   -3.331552    3.154456
    135          1           0      -17.537711   -4.406008    1.794610
    136          1           0      -25.736789   -4.198348    0.362003
    137          1           0      -26.815264   -4.115421   -0.964115
    138          1           0      -27.211560   -3.254462    0.572482
    139          1           0      -27.606990    0.603330   -2.619876
    140          1           0      -28.302757    1.009769   -1.010482
    141          1           0      -29.313407    0.140047   -2.260697
    142          1           0      -25.510990    3.760163   -1.257200
    143          1           0      -22.881447    5.127793   -1.362899
    144          1           0      -24.645724    3.195796   -3.827877
    145          1           0      -23.921238    4.845086   -3.508629
    146          1           0      -25.607077    4.476165   -3.445258
    147          1           0      -24.012067    4.132490    1.245965
    148          1           0      -25.118003    5.159670    0.404876
    149          1           0      -23.939914    6.999095    0.591257
    150          1           0      -22.362261    6.157525    0.852963
    151          1           0      -23.723306    6.264132    2.070510
    152          1           0      -18.544535    4.750113   -0.730675
    153          1           0      -17.020210    4.072028   -0.085090
    154          1           0      -18.367644    4.655214    0.982671
    155          1           0      -17.273769   -1.071037    1.924230
    156          1           0      -14.002907   -2.292874   -0.795680
    157          1           0      -15.105724   -3.589792   -0.273264
    158          1           0      -13.854514   -2.876135    0.803320
 ---------------------------------------------------------------------

 SCF Done:  E(RwB97XD) =  -4070.57837590     A.U. after   20 cycles

 Excitation energies and oscillator strengths:

 Excited State   1:      Singlet-A      1.6143 eV  768.02 nm  f=0.3792  <S**2>=0.000
     310 -> 315       -0.19389
     312 -> 314        0.67997
     310 <- 315       -0.12092
 This state for optimization and/or second-order correction.
 Total Energy, E(TD-HF/TD-DFT) =  -4070.51904995
 Copying the excited state density for this state as the 1-particle RhoCI density.

 Excited State   2:      Singlet-A      1.6249 eV  763.04 nm  f=0.3495  <S**2>=0.000
     309 -> 316        0.17938
     311 -> 313        0.68342
     309 <- 316        0.11726

 Excited State   3:      Singlet-A      2.1298 eV  582.13 nm  f=0.0986  <S**2>=0.000
     310 -> 314        0.63363
     312 -> 315        0.30002

 Excited State   4:      Singlet-A      2.1635 eV  573.08 nm  f=0.1557  <S**2>=0.000
     309 -> 313        0.64645
     311 -> 316       -0.27021

 Excited State   5:      Singlet-A      3.2310 eV  383.73 nm  f=0.0021  <S**2>=0.000
     304 -> 313        0.24852
     304 -> 318       -0.10038
     306 -> 313        0.63568

 The electronic state is 1-A.
 Alpha  occ. eigenvalues --  -46.95370 -46.95294 -19.30862 -19.30108 -19.25969
 Alpha  occ. eigenvalues --  -19.24885 -19.24327 -19.23407 -19.23367 -19.22413
 Alpha  occ. eigenvalues --  -14.46994 -14.46933 -14.46825 -14.46559 -14.44920
 Alpha  occ. eigenvalues --  -14.44703 -14.43768 -14.43614 -10.44253 -10.42952
 Alpha  occ. eigenvalues --  -10.39680 -10.39495 -10.38209 -10.37658 -10.36064
 Alpha  occ. eigenvalues --  -10.35688 -10.35660 -10.35596 -10.35418 -10.35406
 Alpha  occ. eigenvalues --  -10.35157 -10.35125 -10.35092 -10.34891 -10.34741
 Alpha  occ. eigenvalues --  -10.34715 -10.34556 -10.34465 -10.33898 -10.33104
 Alpha  occ. eigenvalues --  -10.33066 -10.32975 -10.32870 -10.32717 -10.32712
 Alpha  occ. eigenvalues --  -10.32712 -10.32592 -10.32583 -10.32447 -10.32437
 Alpha  occ. eigenvalues --  -10.32432 -10.32384 -10.32371 -10.32279 -10.32273
 Alpha  occ. eigenvalues --  -10.32212 -10.32077 -10.32039 -10.31866 -10.31863
 Alpha  occ. eigenvalues --  -10.31569 -10.31418 -10.31398 -10.31351 -10.31330
 Alpha  occ. eigenvalues --  -10.31259 -10.31212 -10.31135 -10.31091 -10.30932
 Alpha  occ. eigenvalues --  -10.30816 -10.30679 -10.30462 -10.30378 -10.30365
 Alpha  occ. eigenvalues --  -10.30341 -10.30182 -10.30102 -10.29877 -10.29369
 Alpha  occ. eigenvalues --  -10.29319 -10.29136 -10.29069 -10.29009 -10.28793
 Alpha  occ. eigenvalues --  -10.28761  -3.21374  -3.21232  -1.94943  -1.94823
 Alpha  occ. eigenvalues --   -1.94502  -1.94365  -1.94349  -1.94188  -1.17758
 Alpha  occ. eigenvalues --   -1.17639  -1.14284  -1.12296  -1.12067  -1.10175
 Alpha  occ. eigenvalues --   -1.09858  -1.08908  -1.07263  -1.06995  -1.06300
 Alpha  occ. eigenvalues --   -1.05824  -1.05400  -1.05015  -1.04812  -1.03637
 Alpha  occ. eigenvalues --   -0.95293  -0.94643  -0.92658  -0.91785  -0.91466
 Alpha  occ. eigenvalues --   -0.91265  -0.91000  -0.90956  -0.89802  -0.89655
 Alpha  occ. eigenvalues --   -0.89197  -0.88973  -0.88280  -0.87915  -0.87175
 Alpha  occ. eigenvalues --   -0.86781  -0.86460  -0.86210  -0.85385  -0.84572
 Alpha  occ. eigenvalues --   -0.84509  -0.83871  -0.83387  -0.82798  -0.82668
 Alpha  occ. eigenvalues --   -0.82458  -0.80598  -0.79924  -0.79779  -0.79383
 Alpha  occ. eigenvalues --   -0.79075  -0.78832  -0.78430  -0.78252  -0.77469
 Alpha  occ. eigenvalues --   -0.77350  -0.75529  -0.75410  -0.74219  -0.74034
 Alpha  occ. eigenvalues --   -0.71383  -0.71326  -0.71037  -0.70927  -0.69953
 Alpha  occ. eigenvalues --   -0.69671  -0.69483  -0.69260  -0.68417  -0.68250
 Alpha  occ. eigenvalues --   -0.67901  -0.67680  -0.67386  -0.67299  -0.66952
 Alpha  occ. eigenvalues --   -0.66703  -0.65119  -0.64029  -0.62726  -0.62535
 Alpha  occ. eigenvalues --   -0.62073  -0.61614  -0.61483  -0.61462  -0.60984
 Alpha  occ. eigenvalues --   -0.60975  -0.60093  -0.59940  -0.59391  -0.58830
 Alpha  occ. eigenvalues --   -0.58408  -0.58237  -0.57831  -0.57794  -0.57637
 Alpha  occ. eigenvalues --   -0.57424  -0.57145  -0.56862  -0.56378  -0.56324
 Alpha  occ. eigenvalues --   -0.56182  -0.55842  -0.55530  -0.55175  -0.55153
 Alpha  occ. eigenvalues --   -0.54755  -0.54640  -0.54502  -0.54248  -0.54242
 Alpha  occ. eigenvalues --   -0.54040  -0.54014  -0.53690  -0.53681  -0.53596
 Alpha  occ. eigenvalues --   -0.53224  -0.53197  -0.53055  -0.52825  -0.52478
 Alpha  occ. eigenvalues --   -0.52368  -0.52254  -0.52004  -0.51972  -0.51836
 Alpha  occ. eigenvalues --   -0.51626  -0.51610  -0.51358  -0.51069  -0.50861
 Alpha  occ. eigenvalues --   -0.50784  -0.50571  -0.50491  -0.50421  -0.50274
 Alpha  occ. eigenvalues --   -0.49941  -0.49679  -0.49522  -0.49169  -0.49088
 Alpha  occ. eigenvalues --   -0.48952  -0.48851  -0.48730  -0.48578  -0.48560
 Alpha  occ. eigenvalues --   -0.48432  -0.48254  -0.48177  -0.47962  -0.47841
 Alpha  occ. eigenvalues --   -0.47697  -0.47681  -0.47444  -0.47260  -0.47250
 Alpha  occ. eigenvalues --   -0.47137  -0.46895  -0.46824  -0.46530  -0.46472
 Alpha  occ. eigenvalues --   -0.45995  -0.45983  -0.45896  -0.45660  -0.45599
 Alpha  occ. eigenvalues --   -0.45426  -0.45210  -0.45174  -0.44993  -0.44869
 Alpha  occ. eigenvalues --   -0.44636  -0.44475  -0.44429  -0.44381  -0.44329
 Alpha  occ. eigenvalues --   -0.43996  -0.43990  -0.43662  -0.43658  -0.43550
 Alpha  occ. eigenvalues --   -0.43482  -0.43418  -0.43377  -0.43094  -0.43043
 Alpha  occ. eigenvalues --   -0.42597  -0.42176  -0.42046  -0.41119  -0.40972
 Alpha  occ. eigenvalues --   -0.40688  -0.40460  -0.40161  -0.39755  -0.39660
 Alpha  occ. eigenvalues --   -0.39505  -0.39310  -0.39277  -0.39079  -0.38382
 Alpha  occ. eigenvalues --   -0.38382  -0.38310  -0.37386  -0.36690  -0.36356
 Alpha  occ. eigenvalues --   -0.35747  -0.35485  -0.35210  -0.33989  -0.33609
 Alpha  occ. eigenvalues --   -0.33125  -0.32672  -0.32557  -0.32172  -0.32051
 Alpha  occ. eigenvalues --   -0.31962  -0.31700  -0.31547  -0.26331  -0.26239
 Alpha  occ. eigenvalues --   -0.23469  -0.23386
 Alpha virt. eigenvalues --   -0.07700  -0.07529  -0.00606   0.00073   0.02305
 Alpha virt. eigenvalues --    0.02311   0.04429   0.04453   0.04995   0.05826
 Alpha virt. eigenvalues --    0.06269   0.06482   0.07435   0.07443   0.07926

 Mulliken charges:
               1
     1  Mg   0.972155
     2  C    0.037612
     3  C   -0.077639
     4  C   -0.047364
     5  C   -0.093012
     6  N   -0.359494
     7  C   -0.051811
     8  C   -0.053661
     9  C   -0.081956
    10  C    0.068627
    11  C    0.030597
    12  C    0.005051
    13  C   -0.116265
    14  H    0.047952
    15  N   -0.473420
    16  C    0.150609
    17  C   -0.148619
    18  C   -0.063193
    19  C    0.180191
    20  C    0.070476
    21  C    0.021586
    22  O   -0.276235
    23  C    0.023518
    24  N   -0.303482
    25  C    0.005206
    26  C   -0.045767
    27  C   -0.064958
    28  C    0.055556
    29  C    0.009355
    30  C   -0.002860
    31  C   -0.061520
    32  N   -0.466511
    33  C    0.108549
    34  C   -0.190753
    35  C   -0.079713
    36  C    0.147794
    37  C    0.086699
    38  C    0.122402
    39  O   -0.159475
    40  C   -0.057467
    41  C    0.245383
    42  O   -0.241434
    43  O   -0.390672
    44  C    0.140091
    45  H    0.005764
    46  H   -0.060467
    47  H    0.006944
    48  H    0.035208
    49  H    0.038507
    50  H    0.038021
    51  H    0.024539
    52  H    0.047558
    53  H    0.031356
    54  H    0.047666
    55  H    0.050611
    56  H    0.054818
    57  H    0.034282
    58  H    0.046833
    59  H    0.065070
    60  H    0.062914
    61  H    0.064272
    62  H    0.063564
    63  H    0.043476
    64  H    0.043090
    65  H    0.033490
    66  H    0.024395
    67  H    0.040180
    68  H    0.030948
    69  H    0.026648
    70  H    0.031336
    71  H    0.020869
    72  H    0.039946
    73  H    0.062287
    74  H    0.052043
    75  H    0.046480
    76  H    0.069833
    77  H    0.047290
    78  H    0.043964
    79  H    0.064132
    80  Mg   0.953507
    81  C    0.048296
    82  C   -0.057482
    83  C   -0.121916
    84  C   -0.096267
    85  N   -0.342715
    86  C   -0.024080
    87  C   -0.029569
    88  C   -0.145891
    89  C    0.045679
    90  C    0.012168
    91  C    0.023815
    92  C   -0.137398
    93  H    0.039241
    94  N   -0.537525
    95  C    0.202069
    96  C   -0.171462
    97  C   -0.063982
    98  C    0.269772
    99  C    0.097415
   100  C   -0.011513
   101  O   -0.239006
   102  C    0.006825
   103  N   -0.369006
   104  C    0.069651
   105  C   -0.083405
   106  C   -0.081600
   107  C    0.063181
   108  C    0.032034
   109  C    0.003048
   110  C   -0.018627
   111  N   -0.406933
   112  C    0.111676
   113  C   -0.185338
   114  C   -0.015254
   115  C    0.112671
   116  C    0.089627
   117  C    0.108472
   118  O   -0.187614
   119  C   -0.127570
   120  C    0.253669
   121  O   -0.269053
   122  O   -0.361207
   123  C    0.149002
   124  H    0.001506
   125  H   -0.005740
   126  H   -0.002739
   127  H    0.049527
   128  H    0.042587
   129  H    0.038427
   130  H    0.051706
   131  H    0.032395
   132  H    0.051894
   133  H    0.051957
   134  H    0.064242
   135  H    0.053291
   136  H    0.001052
   137  H    0.057483
   138  H    0.064889
   139  H    0.039528
   140  H    0.062483
   141  H    0.058210
   142  H    0.032793
   143  H    0.027076
   144  H    0.034025
   145  H    0.045459
   146  H    0.027827
   147  H    0.039419
   148  H    0.019995
   149  H    0.027124
   150  H    0.029210
   151  H    0.034570
   152  H    0.036185
   153  H    0.067932
   154  H    0.051134
   155  H    0.050897
   156  H    0.058127
   157  H    0.047294
   158  H    0.050830
 Sum of Mulliken charges =  -0.00000

 Dipole moment (field-independent basis, Debye):
    X=             -0.8236    Y=              5.2426    Z=             -0.5693  Tot=              5.3374
 Quadrupole moment (field-independent basis, Debye-Ang):
   XX=           -466.4895   YY=           -507.7288   ZZ=           -511.0437
   XY=             55.7131   XZ=            -36.7045   YZ=            -31.6461

 Normal termination of Gaussian 16 at Sun Sep 19 19:53:15 2021.
