 Gaussian 16, Revision A.03,
 Gaussian 16:  ES64L-G16RevA.03 25-Dec-2016

 --------------------------------
 #p wB97XD/Def2SVP td=(nstates=5)
 --------------------------------

 --------------------------------
 TDDFT excited states in gaussian
 --------------------------------
 Symbolic Z-matrix:
 Charge =  0 Multiplicity = 1

                         Standard orientation:
 ---------------------------------------------------------------------
 Center     Atomic      Atomic             Coordinates (Angstroms)
 Number     Number       Type             X           Y           Z
 ---------------------------------------------------------------------
      1         12           0      -20.256931    0.617777    0.401071
      2          6           0      -19.346379   -1.626975   -2.094004
      3          6           0      -21.027224   -2.029306    2.436375
      4          6           0      -21.433351    2.860154    2.681863
      5          6           0      -19.633818    3.190795   -1.970560
      6          7           0      -20.227979   -1.564204    0.185493
      7          6           0      -19.697749   -2.228249   -0.889069
      8          6           0      -19.724588   -3.717058   -0.534503
      9          6           0      -20.525791   -3.820637    0.751039
     10          6           0      -20.565578   -2.356822    1.174874
     11          6           0      -21.878702   -4.480184    0.740461
     12          6           0      -18.295823   -4.441395   -0.487465
     13          6           0      -18.287045   -5.895771    0.083816
     14          1           0      -18.459453   -7.080978   -0.901895
     15          7           0      -20.968077    0.420725    2.340728
     16          6           0      -21.243140   -0.738707    2.988496
     17          6           0      -21.805722   -0.375265    4.263047
     18          6           0      -21.924851    1.044454    4.321493
     19          6           0      -21.464246    1.512024    3.092033
     20          6           0      -22.174696   -1.432225    5.257770
     21          6           0      -22.597838    1.867313    5.458441
     22          8           0      -22.967955    3.015035    5.287218
     23          6           0      -22.946522    1.311206    6.755760
     24          7           0      -20.471999    2.600636    0.343211
     25          6           0      -20.939346    3.357161    1.417449
     26          6           0      -20.923139    4.867747    1.125762
     27          6           0      -20.100287    4.922556   -0.206199
     28          6           0      -20.026758    3.460036   -0.613009
     29          6           0      -22.209806    5.575960    1.234513
     30          6           0      -18.658968    5.679134   -0.223851
     31          6           0      -18.411821    6.864286   -1.162033
     32          7           0      -19.653735    0.791646   -1.703201
     33          6           0      -19.473825    1.898780   -2.484047
     34          6           0      -19.050727    1.541200   -3.796028
     35          6           0      -18.904085    0.105939   -3.682095
     36          6           0      -19.376055   -0.291803   -2.399827
     37          6           0      -18.752246    2.514483   -4.871991
     38          6           0      -18.425810   -1.065963   -4.378883
     39          8           0      -17.882407   -1.249725   -5.450356
     40          6           0      -18.723688   -2.281134   -3.318492
     41          6           0      -19.468761   -3.393871   -3.960741
     42          8           0      -20.609789   -3.299178   -4.356744
     43          8           0      -18.741680   -4.522025   -4.041129
     44          6           0      -19.469903   -5.787996   -4.437572
     45          1           0      -21.223749   -2.867609    3.108412
     46          1           0      -21.822308    3.556497    3.427469
     47          1           0      -19.475765    4.113077   -2.533797
     48          1           0      -20.283810   -4.100226   -1.387945
     49          1           0      -19.973045   -4.422984    1.471545
     50          1           0      -22.502924   -3.592645    0.839349
     51          1           0      -21.991252   -5.221375    1.531838
     52          1           0      -22.131318   -4.895704   -0.235291
     53          1           0      -17.737348   -3.775747    0.170993
     54          1           0      -17.858190   -4.459878   -1.484886
     55          1           0      -19.090457   -6.050413    0.802944
     56          1           0      -17.350730   -6.035028    0.624191
     57          1           0      -21.928029   -2.468804    5.025967
     58          1           0      -23.263094   -1.419669    5.305084
     59          1           0      -21.836845   -1.204512    6.268954
     60          1           0      -23.481706    0.364227    6.817847
     61          1           0      -23.459805    1.991703    7.435020
     62          1           0      -21.967956    1.208939    7.224389
     63          1           0      -20.272556    5.162317    1.949666
     64          1           0      -20.856474    5.369977   -0.851055
     65          1           0      -22.292544    6.335586    2.012300
     66          1           0      -22.980400    4.826003    1.414887
     67          1           0      -22.487351    6.134347    0.340581
     68          1           0      -17.904644    4.932893   -0.472564
     69          1           0      -18.291478    6.081757    0.720812
     70          1           0      -17.811267    6.635398   -2.042785
     71          1           0      -18.083263    7.778468   -0.668458
     72          1           0      -19.367176    7.114960   -1.623283
     73          1           0      -19.550701    3.255668   -4.897601
     74          1           0      -18.595968    2.037612   -5.839231
     75          1           0      -17.928427    3.137898   -4.522973
     76          1           0      -17.743804   -2.677137   -3.053803
     77          1           0      -18.650941   -6.420491   -4.779396
     78          1           0      -20.180666   -5.547714   -5.227998
     79          1           0      -19.906989   -6.194099   -3.525238
     80         12           0       20.659621    0.710174   -0.229416
     81          6           0       18.627997   -2.363930    0.256288
     82          6           0       23.238329   -1.233191    0.769341
     83          6           0       22.236298    3.454833   -0.398411
     84          6           0       17.555533    2.444757   -0.401968
     85          7           0       20.856242   -1.506243    0.472953
     86          6           0       19.955348   -2.555277    0.401629
     87          6           0       20.576659   -3.944217    0.588286
     88          6           0       21.944706   -3.509244    1.198690
     89          6           0       22.058748   -1.983348    0.814440
     90          6           0       22.079574   -3.717240    2.674309
     91          6           0       20.653643   -4.869211   -0.672414
     92          6           0       20.577605   -6.345189   -0.466428
     93          1           0       21.458787   -7.179080   -1.391069
     94          7           0       22.550757    1.086596    0.095540
     95          6           0       23.527162    0.134548    0.456171
     96          6           0       24.808007    0.776715    0.385996
     97          6           0       24.500382    2.115826   -0.114820
     98          6           0       23.087150    2.231133   -0.151017
     99          6           0       26.191408    0.064206    0.619188
    100          6           0       25.515063    3.149647   -0.496858
    101          8           0       25.184847    4.304423   -0.861349
    102          6           0       26.975966    2.884135   -0.526268
    103          7           0       20.048440    2.689152   -0.218126
    104          6           0       20.916844    3.697481   -0.318608
    105          6           0       20.245223    5.104071   -0.425815
    106          6           0       18.806645    4.646976   -0.872493
    107          6           0       18.765020    3.157944   -0.432515
    108          6           0       20.213220    5.850256    0.946768
    109          6           0       18.599321    4.756466   -2.441486
    110          6           0       18.883814    6.096365   -3.152212
    111          7           0       18.527223    0.184149   -0.148197
    112          6           0       17.421791    1.012886   -0.302949
    113          6           0       16.211368    0.235581   -0.174923
    114          6           0       16.636345   -1.086956    0.004778
    115          6           0       18.054829   -1.075351    0.103495
    116          6           0       14.812474    0.719619   -0.359680
    117          6           0       16.163771   -2.455232    0.170302
    118          8           0       15.058233   -2.980134    0.155492
    119          6           0       17.526475   -3.320592    0.245039
    120          6           0       17.394685   -4.154881    1.427116
    121          8           0       17.297825   -3.770850    2.603304
    122          8           0       16.955629   -5.382526    1.021366
    123          6           0       16.679000   -6.385642    1.998964
    124          1           0       24.042006   -1.949234    0.954257
    125          1           0       22.739136    4.421613   -0.466034
    126          1           0       16.636352    3.029986   -0.478364
    127          1           0       19.994344   -4.453967    1.356152
    128          1           0       22.769525   -3.966796    0.653214
    129          1           0       22.016834   -2.733787    3.140171
    130          1           0       23.072105   -4.106448    2.900791
    131          1           0       21.342862   -4.357891    3.158599
    132          1           0       21.626039   -4.693290   -1.131531
    133          1           0       19.898148   -4.519977   -1.375724
    134          1           0       19.531797   -6.575323   -0.668964
    135          1           0       20.631974   -6.625059    0.585716
    136          1           0       26.779159   -0.126385   -0.278281
    137          1           0       26.074429   -0.849933    1.200608
    138          1           0       26.693910    0.786259    1.263994
    139          1           0       27.340446    2.868248    0.501184
    140          1           0       27.413901    3.718353   -1.075026
    141          1           0       27.110442    1.961049   -1.089139
    142          1           0       20.826489    5.654173   -1.166595
    143          1           0       17.976371    5.156254   -0.384165
    144          1           0       20.881226    6.706051    0.846239
    145          1           0       20.453775    5.248002    1.822253
    146          1           0       19.178396    6.193845    0.981437
    147          1           0       17.549287    4.567082   -2.663063
    148          1           0       19.152240    3.923751   -2.875828
    149          1           0       19.649072    5.858068   -3.890770
    150          1           0       19.312414    6.724283   -2.370583
    151          1           0       18.002940    6.503745   -3.648173
    152          1           0       14.927112    1.700790   -0.820973
    153          1           0       14.390986    0.807631    0.641631
    154          1           0       14.175409    0.036661   -0.921628
    155          1           0       17.619979   -3.930748   -0.653146
    156          1           0       16.895956   -6.037180    3.008959
    157          1           0       17.369295   -7.198057    1.771520
    158          1           0       15.680584   -6.800678    1.868637
 ---------------------------------------------------------------------

 SCF Done:  E(RwB97XD) =  -4070.60803628     A.U. after   19 cycles

 Excitation energies and oscillator strengths:

 Excited State   1:      Singlet-A      1.6009 eV  774.48 nm  f=0.3919  <S**2>=0.000
     309 -> 316       -0.16171
     311 -> 313        0.68927
     309 <- 316       -0.11299
 This state for optimization and/or second-order correction.
 Total Energy, E(TD-HF/TD-DFT) =  -4070.54920526
 Copying the excited state density for this state as the 1-particle RhoCI density.

 Excited State   2:      Singlet-A      1.6386 eV  756.64 nm  f=0.3943  <S**2>=0.000
     310 -> 315        0.18466
     312 -> 314        0.68349
     310 <- 315        0.11771

 Excited State   3:      Singlet-A      2.1247 eV  583.54 nm  f=0.2096  <S**2>=0.000
     309 -> 313        0.66537
     311 -> 316        0.22070

 Excited State   4:      Singlet-A      2.1629 eV  573.24 nm  f=0.0926  <S**2>=0.000
     310 -> 314        0.63069
     312 -> 315       -0.30290

 Excited State   5:      Singlet-A      3.1835 eV  389.46 nm  f=0.0051  <S**2>=0.000
     303 -> 313        0.18233
     305 -> 313        0.66076

 The electronic state is 1-A.
 Alpha  occ. eigenvalues --  -46.95245 -46.94206 -19.30061 -19.29617 -19.25003
 Alpha  occ. eigenvalues --  -19.24409 -19.24090 -19.23702 -19.23180 -19.22450
 Alpha  occ. eigenvalues --  -14.47317 -14.46941 -14.46600 -14.46005 -14.44284
 Alpha  occ. eigenvalues --  -14.44206 -14.43671 -14.43011 -10.43026 -10.41778
 Alpha  occ. eigenvalues --  -10.40061 -10.39535 -10.38658 -10.37931 -10.35841
 Alpha  occ. eigenvalues --  -10.35646 -10.35463 -10.35121 -10.35105 -10.34861
 Alpha  occ. eigenvalues --  -10.34800 -10.34781 -10.34698 -10.34488 -10.34453
 Alpha  occ. eigenvalues --  -10.34431 -10.33849 -10.33845 -10.33728 -10.33578
 Alpha  occ. eigenvalues --  -10.33214 -10.33125 -10.32970 -10.32920 -10.32439
 Alpha  occ. eigenvalues --  -10.32401 -10.32276 -10.32189 -10.32188 -10.32170
 Alpha  occ. eigenvalues --  -10.32161 -10.32092 -10.32066 -10.32049 -10.32006
 Alpha  occ. eigenvalues --  -10.31712 -10.31614 -10.31561 -10.31547 -10.31469
 Alpha  occ. eigenvalues --  -10.31421 -10.31299 -10.31217 -10.31179 -10.31117
 Alpha  occ. eigenvalues --  -10.31000 -10.30988 -10.30951 -10.30936 -10.30897
 Alpha  occ. eigenvalues --  -10.30878 -10.30778 -10.30329 -10.30111 -10.30095
 Alpha  occ. eigenvalues --  -10.30000 -10.29790 -10.29648 -10.29626 -10.29576
 Alpha  occ. eigenvalues --  -10.29566 -10.29440 -10.29383 -10.29383 -10.29312
 Alpha  occ. eigenvalues --  -10.29292  -3.21347  -3.20283  -1.94906  -1.94470
 Alpha  occ. eigenvalues --   -1.94334  -1.93895  -1.93409  -1.93260  -1.18747
 Alpha  occ. eigenvalues --   -1.17996  -1.13181  -1.12522  -1.11720  -1.09642
 Alpha  occ. eigenvalues --   -1.09237  -1.08905  -1.07219  -1.06935  -1.06114
 Alpha  occ. eigenvalues --   -1.06063  -1.05671  -1.05322  -1.04602  -1.04398
 Alpha  occ. eigenvalues --   -0.95719  -0.94383  -0.91424  -0.91054  -0.90686
 Alpha  occ. eigenvalues --   -0.90562  -0.90261  -0.89963  -0.89480  -0.89399
 Alpha  occ. eigenvalues --   -0.88902  -0.88796  -0.88633  -0.88187  -0.86640
 Alpha  occ. eigenvalues --   -0.86519  -0.85985  -0.85587  -0.85031  -0.84546
 Alpha  occ. eigenvalues --   -0.84357  -0.84026  -0.83327  -0.83040  -0.82788
 Alpha  occ. eigenvalues --   -0.82694  -0.80748  -0.80516  -0.79701  -0.79427
 Alpha  occ. eigenvalues --   -0.79223  -0.79181  -0.78178  -0.77819  -0.77391
 Alpha  occ. eigenvalues --   -0.77082  -0.75370  -0.74756  -0.73781  -0.72906
 Alpha  occ. eigenvalues --   -0.71286  -0.71221  -0.70823  -0.70601  -0.70214
 Alpha  occ. eigenvalues --   -0.70184  -0.68921  -0.68918  -0.67662  -0.67525
 Alpha  occ. eigenvalues --   -0.67355  -0.67092  -0.66906  -0.66599  -0.66467
 Alpha  occ. eigenvalues --   -0.66191  -0.64060  -0.63407  -0.62743  -0.62516
 Alpha  occ. eigenvalues --   -0.61791  -0.61688  -0.61506  -0.60947  -0.60848
 Alpha  occ. eigenvalues --   -0.60801  -0.60396  -0.59951  -0.59706  -0.59215
 Alpha  occ. eigenvalues --   -0.58318  -0.57865  -0.57736  -0.57613  -0.57274
 Alpha  occ. eigenvalues --   -0.56869  -0.56702  -0.56622  -0.56472  -0.56104
 Alpha  occ. eigenvalues --   -0.55749  -0.55671  -0.55192  -0.55088  -0.54891
 Alpha  occ. eigenvalues --   -0.54780  -0.54526  -0.54475  -0.54359  -0.54215
 Alpha  occ. eigenvalues --   -0.54014  -0.53705  -0.53356  -0.53233  -0.53192
 Alpha  occ. eigenvalues --   -0.52942  -0.52900  -0.52753  -0.52438  -0.52248
 Alpha  occ. eigenvalues --   -0.52226  -0.51851  -0.51827  -0.51826  -0.51645
 Alpha  occ. eigenvalues --   -0.51458  -0.51367  -0.51240  -0.51164  -0.51032
 Alpha  occ. eigenvalues --   -0.50891  -0.50658  -0.50535  -0.50261  -0.50162
 Alpha  occ. eigenvalues --   -0.50080  -0.49792  -0.49632  -0.49523  -0.49359
 Alpha  occ. eigenvalues --   -0.49176  -0.49032  -0.48763  -0.48493  -0.48487
 Alpha  occ. eigenvalues --   -0.48460  -0.48362  -0.48159  -0.48150  -0.48004
 Alpha  occ. eigenvalues --   -0.47903  -0.47385  -0.47059  -0.47042  -0.47010
 Alpha  occ. eigenvalues --   -0.46928  -0.46749  -0.46722  -0.46311  -0.46301
 Alpha  occ. eigenvalues --   -0.46172  -0.45926  -0.45908  -0.45676  -0.45634
 Alpha  occ. eigenvalues --   -0.45267  -0.45187  -0.45066  -0.44777  -0.44770
 Alpha  occ. eigenvalues --   -0.44634  -0.44603  -0.44042  -0.43965  -0.43921
 Alpha  occ. eigenvalues --   -0.43713  -0.43610  -0.43449  -0.43246  -0.43202
 Alpha  occ. eigenvalues --   -0.42810  -0.42662  -0.42593  -0.42273  -0.42088
 Alpha  occ. eigenvalues --   -0.41750  -0.41426  -0.41379  -0.41239  -0.41172
 Alpha  occ. eigenvalues --   -0.40685  -0.40482  -0.40171  -0.39738  -0.39696
 Alpha  occ. eigenvalues --   -0.39238  -0.39196  -0.38878  -0.38411  -0.38268
 Alpha  occ. eigenvalues --   -0.38051  -0.37869  -0.36632  -0.36281  -0.36204
 Alpha  occ. eigenvalues --   -0.36026  -0.35404  -0.34955  -0.33789  -0.33451
 Alpha  occ. eigenvalues --   -0.33244  -0.33164  -0.32253  -0.32208  -0.32081
 Alpha  occ. eigenvalues --   -0.31888  -0.31775  -0.31202  -0.26182  -0.26109
 Alpha  occ. eigenvalues --   -0.23556  -0.22914
 Alpha virt. eigenvalues --   -0.08032  -0.07144   0.00052   0.01132   0.02349
 Alpha virt. eigenvalues --    0.02693   0.04273   0.04845   0.04936   0.06093
 Alpha virt. eigenvalues --    0.06495   0.07357   0.07639   0.07945   0.08297

 Mulliken charges:
               1
     1  Mg   0.969985
     2  C    0.027076
     3  C   -0.088607
     4  C   -0.071934
     5  C   -0.105527
     6  N   -0.331653
     7  C   -0.006737
     8  C   -0.044447
     9  C   -0.151760
    10  C    0.059905
    11  C    0.050744
    12  C    0.000327
    13  C   -0.115544
    14  H    0.029146
    15  N   -0.488141
    16  C    0.172370
    17  C   -0.166755
    18  C   -0.057431
    19  C    0.125941
    20  C    0.053447
    21  C    0.071603
    22  O   -0.233746
    23  C   -0.004520
    24  N   -0.422860
    25  C    0.060881
    26  C   -0.086699
    27  C   -0.053597
    28  C    0.048447
    29  C    0.042992
    30  C   -0.002787
    31  C   -0.069035
    32  N   -0.373865
    33  C    0.160114
    34  C   -0.166708
    35  C   -0.076208
    36  C    0.112827
    37  C    0.102506
    38  C    0.145366
    39  O   -0.193124
    40  C   -0.138460
    41  C    0.241428
    42  O   -0.254393
    43  O   -0.372529
    44  C    0.133502
    45  H   -0.016256
    46  H    0.028686
    47  H    0.001713
    48  H    0.035380
    49  H    0.021879
    50  H    0.039170
    51  H    0.043583
    52  H    0.038578
    53  H    0.034514
    54  H    0.060956
    55  H    0.043685
    56  H    0.059146
    57  H    0.039660
    58  H    0.049844
    59  H    0.047142
    60  H    0.056589
    61  H    0.050130
    62  H    0.049761
    63  H    0.038407
    64  H    0.031786
    65  H    0.040565
    66  H    0.046719
    67  H    0.027920
    68  H    0.036131
    69  H    0.035543
    70  H    0.039397
    71  H    0.045772
    72  H    0.018512
    73  H    0.034824
    74  H    0.072743
    75  H    0.044380
    76  H    0.067430
    77  H    0.062677
    78  H    0.082013
    79  H    0.059486
    80  Mg   0.983357
    81  C   -0.013754
    82  C   -0.065896
    83  C   -0.042859
    84  C   -0.083070
    85  N   -0.296632
    86  C   -0.036589
    87  C   -0.083992
    88  C   -0.102344
    89  C   -0.016723
    90  C    0.047880
    91  C    0.043047
    92  C   -0.116534
    93  H    0.053906
    94  N   -0.496893
    95  C    0.190266
    96  C   -0.170686
    97  C   -0.082045
    98  C    0.148063
    99  C    0.071660
   100  C    0.008575
   101  O   -0.274933
   102  C    0.010063
   103  N   -0.391768
   104  C    0.045285
   105  C   -0.110553
   106  C   -0.102264
   107  C    0.088765
   108  C    0.051779
   109  C   -0.033939
   110  C   -0.032734
   111  N   -0.399963
   112  C    0.123216
   113  C   -0.202597
   114  C   -0.040066
   115  C    0.129365
   116  C    0.087842
   117  C    0.156496
   118  O   -0.192257
   119  C   -0.060098
   120  C    0.245648
   121  O   -0.268809
   122  O   -0.350402
   123  C    0.133698
   124  H   -0.007729
   125  H    0.013672
   126  H    0.005021
   127  H    0.033298
   128  H    0.025429
   129  H    0.044478
   130  H    0.034251
   131  H    0.048390
   132  H    0.032043
   133  H    0.031315
   134  H    0.048011
   135  H    0.042903
   136  H    0.068060
   137  H    0.040297
   138  H    0.043067
   139  H    0.063930
   140  H    0.055083
   141  H    0.045465
   142  H    0.047108
   143  H    0.025398
   144  H    0.046377
   145  H    0.060223
   146  H    0.027953
   147  H    0.024675
   148  H    0.033440
   149  H    0.042582
   150  H    0.036194
   151  H    0.048628
   152  H    0.031204
   153  H    0.059987
   154  H    0.065052
   155  H    0.071954
   156  H    0.066055
   157  H    0.033742
   158  H    0.061935
 Sum of Mulliken charges =  -0.00000

 Dipole moment (field-independent basis, Debye):
    X=              3.1263    Y=             -2.0516    Z=              3.9262  Tot=              5.4220
 Quadrupole moment (field-independent basis, Debye-Ang):
   XX=           -433.3946   YY=           -456.0347   ZZ=           -528.7980
   XY=            -39.4621   XZ=           -121.7693   YZ=            -23.6162

 Normal termination of Gaussian 16 at Mon Sep 20 01:51:49 2021.
