 Gaussian 16, Revision A.03,
 Gaussian 16:  ES64L-G16RevA.03 25-Dec-2016

 --------------------------------
 #p wB97XD/Def2SVP td=(nstates=5)
 --------------------------------

 --------------------------------
 TDDFT excited states in gaussian
 --------------------------------
 Symbolic Z-matrix:
 Charge =  0 Multiplicity = 1

                         Standard orientation:
 ---------------------------------------------------------------------
 Center     Atomic      Atomic             Coordinates (Angstroms)
 Number     Number       Type             X           Y           Z
 ---------------------------------------------------------------------
      1         12           0       -0.713334    0.139503    0.370142
      2          6           0        2.777719    0.024653    0.223510
      3          6           0       -0.729155   -3.296722    0.055745
      4          6           0       -4.077530    0.242370   -0.197895
      5          6           0       -0.540041    3.580217    0.017392
      6          7           0        0.853123   -1.383970    0.260285
      7          6           0        2.169328   -1.209056    0.434424
      8          6           0        2.961279   -2.501536    0.680797
      9          6           0        1.852332   -3.595983    0.438250
     10          6           0        0.484815   -2.717500    0.322975
     11          6           0        2.040359   -4.536776   -0.771399
     12          6           0        3.636177   -2.584653    2.050077
     13          6           0        4.880761   -3.490729    2.060815
     14          1           0        5.295580   -4.212396    0.770846
     15          7           0       -2.223600   -1.303079    0.094166
     16          6           0       -2.037398   -2.704309    0.058767
     17          6           0       -3.336130   -3.332377   -0.078529
     18          6           0       -4.337524   -2.300948   -0.222349
     19          6           0       -3.582029   -1.057685   -0.076860
     20          6           0       -3.489971   -4.824784    0.025998
     21          6           0       -5.925263   -2.406548   -0.323758
     22          8           0       -6.664704   -1.452787   -0.298085
     23          6           0       -6.495833   -3.799814   -0.476455
     24          7           0       -2.081363    1.663974   -0.122553
     25          6           0       -3.425628    1.486261   -0.272426
     26          6           0       -4.185537    2.845134   -0.497581
     27          6           0       -3.044765    3.850937   -0.352086
     28          6           0       -1.823142    2.975024   -0.147078
     29          6           0       -5.123662    3.070096   -1.751185
     30          6           0       -3.288850    4.806539    0.839366
     31          6           0       -2.921031    4.333510    2.263219
     32          7           0        0.772131    1.615013    0.306145
     33          6           0        0.702772    2.976405    0.161333
     34          6           0        2.000730    3.563426    0.167803
     35          6           0        2.902812    2.406651    0.185708
     36          6           0        2.119008    1.320656    0.241811
     37          6           0        2.438007    4.960420    0.122621
     38          6           0        4.286105    1.967693    0.064056
     39          8           0        5.330857    2.627416    0.055635
     40          6           0        4.294247    0.410790    0.088414
     41          6           0        4.924999   -0.140329   -1.106595
     42          8           0        4.411795   -0.232868   -2.216685
     43          8           0        6.261374   -0.333217   -0.861219
     44          6           0        7.198984   -0.479669   -1.991493
     45          1           0       -0.636700   -4.377774   -0.069342
     46          1           0       -5.168410    0.291024   -0.194985
     47          1           0       -0.482981    4.670603    0.003908
     48          1           0        3.684759   -2.686089   -0.112995
     49          1           0        1.628336   -4.188721    1.324428
     50          1           0        1.944690   -5.504758   -0.279826
     51          1           0        3.033079   -4.414660   -1.203982
     52          1           0        1.284280   -4.338321   -1.531142
     53          1           0        2.947116   -2.913653    2.826992
     54          1           0        3.957967   -1.593446    2.370668
     55          1           0        4.600255   -4.202790    2.837227
     56          1           0        5.749088   -2.984429    2.484862
     57          1           0       -2.475276   -5.222679    0.008452
     58          1           0       -4.081860   -5.180755   -0.817510
     59          1           0       -4.009033   -5.138124    0.933052
     60          1           0       -6.396144   -4.273439   -1.453646
     61          1           0       -7.539175   -3.765585   -0.162841
     62          1           0       -5.927910   -4.354462    0.270411
     63          1           0       -4.853761    2.846278    0.363267
     64          1           0       -3.003009    4.403498   -1.290026
     65          1           0       -4.951163    4.002517   -2.287419
     66          1           0       -6.151635    3.131264   -1.395344
     67          1           0       -5.040497    2.188441   -2.387388
     68          1           0       -4.346362    5.062810    0.788098
     69          1           0       -2.729331    5.707769    0.587001
     70          1           0       -3.744604    4.682465    2.885641
     71          1           0       -2.013950    4.796283    2.651315
     72          1           0       -2.730526    3.264115    2.346649
     73          1           0        3.262687    5.069980    0.826029
     74          1           0        1.671707    5.701909    0.348834
     75          1           0        2.930897    5.164105   -0.828168
     76          1           0        4.837225    0.165925    1.001154
     77          1           0        6.687230   -0.474943   -2.954507
     78          1           0        7.692129   -1.446547   -1.888246
     79          1           0        7.837021    0.390455   -1.840981
 ---------------------------------------------------------------------

 SCF Done:  E(RwB97XD) =  -2035.31866706     A.U. after   17 cycles

 Excitation energies and oscillator strengths:

 Excited State   1:      Singlet-A      1.6570 eV  748.26 nm  f=0.4103  <S**2>=0.000
     155 ->158         0.18747
     156 ->157         0.68176
     155 <-158         0.11637
 This state for optimization and/or second-order correction.
 Total Energy, E(TD-HF/TD-DFT) =  -2035.25777478
 Copying the excited state density for this state as the 1-particle RhoCI density.

 Excited State   2:      Singlet-A      2.0777 eV  596.73 nm  f=0.1520  <S**2>=0.000
     155 ->157         0.65641
     156 ->158        -0.23986

 Excited State   3:      Singlet-A      3.1037 eV  399.48 nm  f=0.0053  <S**2>=0.000
     153 ->157        -0.12842
     154 ->157         0.67537

 Excited State   4:      Singlet-A      3.3679 eV  368.13 nm  f=0.0037  <S**2>=0.000
     153 ->157         0.66570
     154 ->157         0.10761
     156 ->158         0.14859

 Excited State   5:      Singlet-A      3.5877 eV  345.58 nm  f=0.0002  <S**2>=0.000
     152 ->157         0.56848
     152 ->159        -0.33341
     152 ->160         0.20865

 The electronic state is 1-A.
 Alpha  occ. eigenvalues --  -46.94592 -19.29115 -19.24960 -19.23925 -19.23765
 Alpha  occ. eigenvalues --  -14.46880 -14.46464 -14.44065 -14.42774 -10.42509
 Alpha  occ. eigenvalues --  -10.40163 -10.39109 -10.34921 -10.34912 -10.34889
 Alpha  occ. eigenvalues --  -10.34713 -10.34659 -10.34382 -10.33900 -10.32845
 Alpha  occ. eigenvalues --  -10.32827 -10.32716 -10.32295 -10.32268 -10.32150
 Alpha  occ. eigenvalues --  -10.31809 -10.31709 -10.31697 -10.31693 -10.31459
 Alpha  occ. eigenvalues --  -10.31157 -10.30932 -10.30924 -10.30880 -10.30643
 Alpha  occ. eigenvalues --  -10.30278 -10.30191 -10.29972 -10.29835 -10.29697
 Alpha  occ. eigenvalues --  -10.29662 -10.29295 -10.28798  -3.20554  -1.94144
 Alpha  occ. eigenvalues --   -1.93675  -1.93532  -1.17254  -1.13803  -1.11103
 Alpha  occ. eigenvalues --   -1.08833  -1.06445  -1.05327  -1.04476  -1.03059
 Alpha  occ. eigenvalues --   -0.94053  -0.91033  -0.90645  -0.90074  -0.89018
 Alpha  occ. eigenvalues --   -0.88392  -0.88028  -0.86123  -0.85326  -0.84221
 Alpha  occ. eigenvalues --   -0.83873  -0.82950  -0.82132  -0.80093  -0.79044
 Alpha  occ. eigenvalues --   -0.78749  -0.77824  -0.76962  -0.74420  -0.73070
 Alpha  occ. eigenvalues --   -0.71730  -0.70413  -0.69651  -0.68066  -0.66711
 Alpha  occ. eigenvalues --   -0.66625  -0.66442  -0.65731  -0.63393  -0.61778
 Alpha  occ. eigenvalues --   -0.61076  -0.61033  -0.60278  -0.59658  -0.59399
 Alpha  occ. eigenvalues --   -0.57817  -0.57380  -0.57115  -0.56609  -0.55619
 Alpha  occ. eigenvalues --   -0.55272  -0.54788  -0.54615  -0.54247  -0.54055
 Alpha  occ. eigenvalues --   -0.53892  -0.53545  -0.52733  -0.52579  -0.52174
 Alpha  occ. eigenvalues --   -0.51620  -0.51516  -0.51310  -0.50968  -0.50909
 Alpha  occ. eigenvalues --   -0.50445  -0.50145  -0.50029  -0.49549  -0.49048
 Alpha  occ. eigenvalues --   -0.48673  -0.48188  -0.48036  -0.47782  -0.47559
 Alpha  occ. eigenvalues --   -0.47192  -0.46937  -0.46564  -0.46237  -0.45880
 Alpha  occ. eigenvalues --   -0.45591  -0.45321  -0.45150  -0.44981  -0.44739
 Alpha  occ. eigenvalues --   -0.44658  -0.44270  -0.43920  -0.43406  -0.43011
 Alpha  occ. eigenvalues --   -0.42795  -0.42514  -0.42153  -0.41817  -0.40432
 Alpha  occ. eigenvalues --   -0.40303  -0.39746  -0.39597  -0.38774  -0.38046
 Alpha  occ. eigenvalues --   -0.37689  -0.36310  -0.35741  -0.35504  -0.33562
 Alpha  occ. eigenvalues --   -0.33100  -0.32795  -0.31791  -0.30836  -0.25421
 Alpha  occ. eigenvalues --   -0.23107
 Alpha virt. eigenvalues --   -0.07272   0.00620   0.02649   0.04595   0.05684
 Alpha virt. eigenvalues --    0.07447   0.07777   0.08472   0.09693   0.10884
 Alpha virt. eigenvalues --    0.11531   0.12038   0.12711   0.13134   0.14206

 Mulliken charges:
               1
     1  Mg   0.959990
     2  C   -0.000741
     3  C   -0.090166
     4  C   -0.073960
     5  C   -0.086969
     6  N   -0.357049
     7  C   -0.011454
     8  C   -0.047845
     9  C   -0.148932
    10  C    0.067829
    11  C    0.032197
    12  C    0.017154
    13  C   -0.110763
    14  H    0.046856
    15  N   -0.477901
    16  C    0.165530
    17  C   -0.178548
    18  C   -0.089862
    19  C    0.129322
    20  C    0.057133
    21  C    0.082179
    22  O   -0.208408
    23  C   -0.022373
    24  N   -0.338003
    25  C    0.039681
    26  C   -0.081582
    27  C   -0.049221
    28  C    0.051219
    29  C    0.022577
    30  C   -0.042543
    31  C   -0.033348
    32  N   -0.449900
    33  C    0.142008
    34  C   -0.165076
    35  C   -0.034674
    36  C    0.132490
    37  C    0.085491
    38  C    0.094062
    39  O   -0.220679
    40  C   -0.059000
    41  C    0.274383
    42  O   -0.254778
    43  O   -0.379438
    44  C    0.128369
    45  H    0.001332
    46  H    0.020111
    47  H   -0.015919
    48  H    0.038839
    49  H    0.031188
    50  H    0.040098
    51  H    0.043106
    52  H    0.055430
    53  H    0.031061
    54  H    0.031044
    55  H    0.040495
    56  H    0.054361
    57  H    0.029125
    58  H    0.047919
    59  H    0.067786
    60  H    0.082029
    61  H    0.053789
    62  H    0.031736
    63  H    0.039752
    64  H    0.036108
    65  H    0.039821
    66  H    0.035664
    67  H    0.050981
    68  H    0.030132
    69  H    0.031105
    70  H    0.040359
    71  H    0.037222
    72  H    0.046603
    73  H    0.052932
    74  H    0.034597
    75  H    0.057845
    76  H    0.073255
    77  H    0.066888
    78  H    0.054424
    79  H    0.073527
 Sum of Mulliken charges =  -0.00000

 Dipole moment (field-independent basis, Debye):
    X=             -1.6218    Y=             -2.6309    Z=              2.2206  Tot=              3.8057
 Quadrupole moment (field-independent basis, Debye-Ang):
   XX=           -264.8927   YY=           -222.1694   ZZ=           -254.5390
   XY=            -15.5803   XZ=              1.0843   YZ=             -2.2161

 Normal termination of Gaussian 16 at Sun Sep 19 16:06:31 2021.
