 Gaussian 16, Revision A.03,
 Gaussian 16:  ES64L-G16RevA.03 25-Dec-2016

 --------------------------------
 #p wB97XD/Def2SVP td=(nstates=5)
 --------------------------------

 --------------------------------
 TDDFT excited states in gaussian
 --------------------------------
 Symbolic Z-matrix:
 Charge =  0 Multiplicity = 1

                         Standard orientation:
 ---------------------------------------------------------------------
 Center     Atomic      Atomic             Coordinates (Angstroms)
 Number     Number       Type             X           Y           Z
 ---------------------------------------------------------------------
      1         12           0       25.178663   -0.735402    0.239263
      2          6           0       25.431252    2.313698   -1.513836
      3          6           0       25.143302    1.049426    3.176022
      4          6           0       25.016292   -3.598989    1.986840
      5          6           0       25.796899   -2.511047   -2.711678
      6          7           0       25.144854    1.409840    0.661258
      7          6           0       25.241047    2.495555   -0.100817
      8          6           0       25.191473    3.855311    0.626628
      9          6           0       25.395604    3.285815    2.113309
     10          6           0       25.262791    1.789298    1.970303
     11          6           0       26.713490    3.675661    2.737431
     12          6           0       23.788565    4.661032    0.447100
     13          6           0       23.944267    6.177785    0.590856
     14          1           0       23.549889    6.978767   -0.676726
     15          7           0       24.923443   -1.241334    2.320807
     16          6           0       24.987934   -0.307554    3.384519
     17          6           0       24.570594   -1.008343    4.578023
     18          6           0       24.501791   -2.362272    4.262213
     19          6           0       24.797858   -2.475485    2.799571
     20          6           0       24.485590   -0.365976    5.949730
     21          6           0       24.138627   -3.569737    5.095820
     22          8           0       24.067850   -4.647357    4.580987
     23          6           0       23.786227   -3.458102    6.545610
     24          7           0       25.569947   -2.749014   -0.226939
     25          6           0       25.363811   -3.770606    0.653731
     26          6           0       25.553064   -5.086076   -0.151551
     27          6           0       25.228775   -4.747142   -1.595465
     28          6           0       25.566064   -3.237701   -1.571047
     29          6           0       27.010594   -5.534058   -0.052753
     30          6           0       23.839045   -5.061058   -2.010333
     31          6           0       22.695752   -4.649970   -1.115920
     32          7           0       25.512958   -0.263540   -1.737685
     33          6           0       25.759903   -1.062819   -2.837981
     34          6           0       25.912804   -0.204082   -4.022593
     35          6           0       25.763911    1.106854   -3.537458
     36          6           0       25.530387    1.018027   -2.192261
     37          6           0       26.211908   -0.648620   -5.388926
     38          6           0       25.616614    2.489769   -3.904537
     39          8           0       25.639192    3.052891   -5.038270
     40          6           0       25.358904    3.313956   -2.555704
     41          6           0       26.500097    4.289739   -2.429802
     42          8           0       27.644042    3.972650   -2.569613
     43          8           0       26.135985    5.615788   -2.070719
     44          6           0       27.267591    6.488195   -1.632319
     45          1           0       25.182866    1.594333    4.120905
     46          1           0       25.069893   -4.546804    2.527169
     47          1           0       25.818570   -3.000164   -3.688039
     48          1           0       25.966373    4.516047    0.235970
     49          1           0       24.570185    3.725252    2.674741
     50          1           0       26.504758    4.539443    3.368424
     51          1           0       27.503744    3.823984    2.001191
     52          1           0       26.910722    2.873729    3.448767
     53          1           0       23.074688    4.333360    1.203455
     54          1           0       23.324307    4.414841   -0.508077
     55          1           0       24.995907    6.260856    0.865955
     56          1           0       23.410875    6.565027    1.458769
     57          1           0       24.425871    0.701455    5.740707
     58          1           0       25.470236   -0.568363    6.370207
     59          1           0       23.607317   -0.690321    6.508257
     60          1           0       22.811276   -2.979101    6.453835
     61          1           0       24.444111   -2.810699    7.124771
     62          1           0       23.726518   -4.448265    6.998700
     63          1           0       24.973532   -5.936977    0.204834
     64          1           0       25.821978   -5.273325   -2.342621
     65          1           0       27.689393   -5.355910   -0.886840
     66          1           0       27.006555   -6.605198    0.148834
     67          1           0       27.446025   -5.063892    0.829710
     68          1           0       23.713494   -6.118454   -2.244453
     69          1           0       23.722801   -4.526292   -2.952812
     70          1           0       22.167201   -3.865198   -1.657855
     71          1           0       22.827215   -4.264706   -0.104352
     72          1           0       22.002821   -5.488503   -1.048405
     73          1           0       27.240513   -1.008505   -5.409932
     74          1           0       26.023778    0.237505   -5.995031
     75          1           0       25.592172   -1.498746   -5.677238
     76          1           0       24.367256    3.747163   -2.687642
     77          1           0       27.829425    6.841435   -2.496938
     78          1           0       27.953976    5.989511   -0.946485
     79          1           0       26.988946    7.427426   -1.155366
     80         12           0      -24.893759   -0.586267   -0.493425
     81          6           0      -26.345076    2.195085    1.313819
     82          6           0      -24.056137    1.582449   -2.736735
     83          6           0      -23.884599   -3.278796   -2.104149
     84          6           0      -26.616723   -2.908223    1.708747
     85          7           0      -25.084605    1.700677   -0.599476
     86          6           0      -25.696390    2.644827    0.198740
     87          6           0      -25.578049    3.993916   -0.413492
     88          6           0      -25.284936    3.690475   -1.905348
     89          6           0      -24.815000    2.222330   -1.776096
     90          6           0      -26.516789    3.794051   -2.831146
     91          6           0      -24.360573    4.746516    0.204791
     92          6           0      -24.589543    6.260921    0.583941
     93          1           0      -23.626821    6.971849    1.616305
     94          7           0      -23.995250   -0.780070   -2.261225
     95          6           0      -23.618444    0.218820   -3.014169
     96          6           0      -22.859717   -0.316062   -4.129030
     97          6           0      -22.731964   -1.694329   -3.836210
     98          6           0      -23.579967   -1.961077   -2.706170
     99          6           0      -22.243653    0.616883   -5.187371
    100          6           0      -21.919764   -2.697744   -4.606597
    101          8           0      -21.915361   -3.846522   -4.278491
    102          6           0      -21.041859   -2.225250   -5.719214
    103          7           0      -25.484544   -2.836332   -0.342090
    104          6           0      -24.739363   -3.657296   -1.079218
    105          6           0      -24.831537   -5.062411   -0.615260
    106          6           0      -25.898773   -4.923890    0.516210
    107          6           0      -26.054513   -3.434928    0.678882
    108          6           0      -25.109277   -6.175245   -1.688903
    109          6           0      -25.441854   -5.678114    1.825511
    110          6           0      -26.118176   -7.021717    2.216353
    111          7           0      -26.157798   -0.486676    1.100149
    112          6           0      -26.726261   -1.455994    1.956490
    113          6           0      -27.476681   -0.779058    3.034303
    114          6           0      -27.321320    0.582201    2.809202
    115          6           0      -26.584720    0.741154    1.647628
    116          6           0      -28.373469   -1.487724    4.078166
    117          6           0      -27.704563    1.915067    3.376267
    118          8           0      -28.311119    2.263199    4.361690
    119          6           0      -27.224447    3.030557    2.318955
    120          6           0      -26.611800    4.135081    2.960905
    121          8           0      -25.387707    4.193853    3.143067
    122          8           0      -27.456302    5.140893    3.420427
    123          6           0      -26.857594    6.415386    3.923100
    124          1           0      -23.677037    2.210848   -3.544577
    125          1           0      -23.496371   -4.169838   -2.601728
    126          1           0      -27.132570   -3.592156    2.384464
    127          1           0      -26.542316    4.501810   -0.381586
    128          1           0      -24.531810    4.312042   -2.389267
    129          1           0      -26.355778    4.552805   -3.597536
    130          1           0      -27.362311    4.071082   -2.202192
    131          1           0      -26.800351    2.860242   -3.317443
    132          1           0      -23.588237    4.698104   -0.563057
    133          1           0      -24.042587    4.145209    1.056262
    134          1           0      -25.621399    6.362746    0.919011
    135          1           0      -24.486697    6.755084   -0.382881
    136          1           0      -21.157448    0.553741   -5.110175
    137          1           0      -22.573604    1.654795   -5.159193
    138          1           0      -22.416178    0.216106   -6.185817
    139          1           0      -20.263005   -1.545000   -5.375614
    140          1           0      -21.509343   -1.606653   -6.485225
    141          1           0      -20.513828   -3.083477   -6.135575
    142          1           0      -23.879351   -5.316775   -0.149687
    143          1           0      -26.865458   -5.260901    0.141358
    144          1           0      -25.072014   -5.678282   -2.657748
    145          1           0      -25.999631   -6.790439   -1.554171
    146          1           0      -24.311391   -6.915554   -1.628031
    147          1           0      -25.614154   -5.028586    2.684155
    148          1           0      -24.352765   -5.653128    1.788825
    149          1           0      -25.358145   -7.749551    2.499983
    150          1           0      -26.715812   -7.384085    1.379745
    151          1           0      -26.765760   -6.888020    3.083706
    152          1           0      -27.930757   -2.461109    4.287550
    153          1           0      -29.341818   -1.704824    3.626716
    154          1           0      -28.475390   -0.905655    4.994379
    155          1           0      -28.104173    3.375315    1.776313
    156          1           0      -26.315748    6.933694    3.130725
    157          1           0      -26.361862    6.273474    4.882669
    158          1           0      -27.683578    7.116343    4.042896
 ---------------------------------------------------------------------

 SCF Done:  E(RwB97XD) =  -4070.57481672     A.U. after   19 cycles

 Excitation energies and oscillator strengths:

 Excited State   1:      Singlet-A      1.6528 eV  750.16 nm  f=0.3664  <S**2>=0.000
     309 -> 315       -0.17781
     312 -> 314        0.68544
     309 <- 315       -0.11379
 This state for optimization and/or second-order correction.
 Total Energy, E(TD-HF/TD-DFT) =  -4070.51407827
 Copying the excited state density for this state as the 1-particle RhoCI density.

 Excited State   2:      Singlet-A      1.6949 eV  731.53 nm  f=0.3830  <S**2>=0.000
     310 -> 316        0.16833
     311 -> 313        0.68668
     310 <- 316        0.11048

 Excited State   3:      Singlet-A      2.1227 eV  584.09 nm  f=0.2187  <S**2>=0.000
     310 -> 313        0.67194
     311 -> 316       -0.20544

 Excited State   4:      Singlet-A      2.1346 eV  580.82 nm  f=0.1177  <S**2>=0.000
     309 -> 314        0.64470
     312 -> 315        0.27145

 Excited State   5:      Singlet-A      3.3778 eV  367.05 nm  f=0.0300  <S**2>=0.000
     300 -> 314       -0.15966
     305 -> 314        0.38362
     306 -> 314       -0.36712
     308 -> 314        0.34686
     312 -> 315        0.19134

 The electronic state is 1-A.
 Alpha  occ. eigenvalues --  -46.95795 -46.94961 -19.29721 -19.29202 -19.24942
 Alpha  occ. eigenvalues --  -19.24636 -19.24326 -19.24154 -19.23465 -19.23281
 Alpha  occ. eigenvalues --  -14.48039 -14.46396 -14.45937 -14.44747 -14.44427
 Alpha  occ. eigenvalues --  -14.44379 -14.44348 -14.43627 -10.43244 -10.42335
 Alpha  occ. eigenvalues --  -10.39944 -10.39189 -10.39136 -10.38760 -10.35952
 Alpha  occ. eigenvalues --  -10.35456 -10.35381 -10.35372 -10.35305 -10.35107
 Alpha  occ. eigenvalues --  -10.35105 -10.35070 -10.34760 -10.34749 -10.34523
 Alpha  occ. eigenvalues --  -10.34087 -10.34037 -10.33842 -10.33667 -10.33595
 Alpha  occ. eigenvalues --  -10.33366 -10.33350 -10.32971 -10.32961 -10.32860
 Alpha  occ. eigenvalues --  -10.32786 -10.32525 -10.32327 -10.32325 -10.32316
 Alpha  occ. eigenvalues --  -10.32278 -10.32254 -10.32254 -10.32193 -10.32144
 Alpha  occ. eigenvalues --  -10.31985 -10.31910 -10.31709 -10.31326 -10.31311
 Alpha  occ. eigenvalues --  -10.31310 -10.31183 -10.31155 -10.31146 -10.30867
 Alpha  occ. eigenvalues --  -10.30710 -10.30623 -10.30573 -10.30503 -10.30405
 Alpha  occ. eigenvalues --  -10.30307 -10.30284 -10.30177 -10.30030 -10.29890
 Alpha  occ. eigenvalues --  -10.29670 -10.29608 -10.29558 -10.29409 -10.29358
 Alpha  occ. eigenvalues --  -10.29300 -10.29092 -10.28965 -10.28926 -10.28395
 Alpha  occ. eigenvalues --  -10.28281  -3.21773  -3.20894  -1.95347  -1.94904
 Alpha  occ. eigenvalues --   -1.94735  -1.94507  -1.93993  -1.93881  -1.17738
 Alpha  occ. eigenvalues --   -1.16333  -1.14438  -1.14386  -1.13055  -1.09575
 Alpha  occ. eigenvalues --   -1.08852  -1.08542  -1.07838  -1.07326  -1.06985
 Alpha  occ. eigenvalues --   -1.06928  -1.05640  -1.04925  -1.03766  -1.02973
 Alpha  occ. eigenvalues --   -0.94924  -0.93201  -0.92000  -0.91328  -0.91157
 Alpha  occ. eigenvalues --   -0.90827  -0.90777  -0.89893  -0.89817  -0.89781
 Alpha  occ. eigenvalues --   -0.89633  -0.88856  -0.88115  -0.87137  -0.86620
 Alpha  occ. eigenvalues --   -0.86286  -0.85429  -0.84956  -0.84592  -0.84434
 Alpha  occ. eigenvalues --   -0.84087  -0.83926  -0.83052  -0.82887  -0.82388
 Alpha  occ. eigenvalues --   -0.81875  -0.80935  -0.80784  -0.79263  -0.79048
 Alpha  occ. eigenvalues --   -0.79011  -0.78615  -0.78218  -0.78141  -0.77396
 Alpha  occ. eigenvalues --   -0.76946  -0.74738  -0.74437  -0.73316  -0.73100
 Alpha  occ. eigenvalues --   -0.71615  -0.71218  -0.70854  -0.70730  -0.69982
 Alpha  occ. eigenvalues --   -0.69827  -0.69292  -0.69104  -0.68066  -0.67789
 Alpha  occ. eigenvalues --   -0.67545  -0.66992  -0.66969  -0.66249  -0.66211
 Alpha  occ. eigenvalues --   -0.65342  -0.63762  -0.63503  -0.63061  -0.62425
 Alpha  occ. eigenvalues --   -0.62081  -0.61916  -0.61159  -0.61070  -0.60964
 Alpha  occ. eigenvalues --   -0.60547  -0.60043  -0.59602  -0.59540  -0.59182
 Alpha  occ. eigenvalues --   -0.58585  -0.58429  -0.57764  -0.57649  -0.57491
 Alpha  occ. eigenvalues --   -0.56712  -0.56452  -0.56013  -0.55949  -0.55929
 Alpha  occ. eigenvalues --   -0.55843  -0.55683  -0.55607  -0.55378  -0.55030
 Alpha  occ. eigenvalues --   -0.54995  -0.54608  -0.54389  -0.54365  -0.53942
 Alpha  occ. eigenvalues --   -0.53819  -0.53785  -0.53632  -0.53456  -0.53234
 Alpha  occ. eigenvalues --   -0.52754  -0.52631  -0.52542  -0.52205  -0.52195
 Alpha  occ. eigenvalues --   -0.52083  -0.51920  -0.51810  -0.51649  -0.51633
 Alpha  occ. eigenvalues --   -0.51551  -0.51547  -0.51182  -0.51090  -0.51038
 Alpha  occ. eigenvalues --   -0.50768  -0.50661  -0.50278  -0.50246  -0.50162
 Alpha  occ. eigenvalues --   -0.49954  -0.49708  -0.49690  -0.49594  -0.49478
 Alpha  occ. eigenvalues --   -0.49362  -0.49097  -0.48677  -0.48386  -0.48280
 Alpha  occ. eigenvalues --   -0.48155  -0.47807  -0.47722  -0.47468  -0.47468
 Alpha  occ. eigenvalues --   -0.47340  -0.47316  -0.47120  -0.46924  -0.46889
 Alpha  occ. eigenvalues --   -0.46744  -0.46534  -0.46440  -0.46244  -0.46095
 Alpha  occ. eigenvalues --   -0.45952  -0.45655  -0.45448  -0.45436  -0.45285
 Alpha  occ. eigenvalues --   -0.45141  -0.45046  -0.44918  -0.44783  -0.44740
 Alpha  occ. eigenvalues --   -0.44673  -0.44473  -0.44408  -0.44170  -0.43787
 Alpha  occ. eigenvalues --   -0.43754  -0.43500  -0.43215  -0.42963  -0.42923
 Alpha  occ. eigenvalues --   -0.42904  -0.42565  -0.42295  -0.42281  -0.42169
 Alpha  occ. eigenvalues --   -0.42104  -0.41798  -0.41773  -0.41660  -0.41430
 Alpha  occ. eigenvalues --   -0.40318  -0.40268  -0.39691  -0.39578  -0.39293
 Alpha  occ. eigenvalues --   -0.39110  -0.39098  -0.38480  -0.38389  -0.38234
 Alpha  occ. eigenvalues --   -0.38181  -0.37730  -0.36634  -0.36513  -0.35570
 Alpha  occ. eigenvalues --   -0.35416  -0.35051  -0.34773  -0.33986  -0.33918
 Alpha  occ. eigenvalues --   -0.33632  -0.33383  -0.33291  -0.32775  -0.32345
 Alpha  occ. eigenvalues --   -0.32156  -0.31806  -0.31460  -0.26088  -0.25477
 Alpha  occ. eigenvalues --   -0.23477  -0.23217
 Alpha virt. eigenvalues --   -0.07435  -0.07307   0.00175   0.01562   0.02470
 Alpha virt. eigenvalues --    0.03030   0.04286   0.04700   0.05473   0.06252
 Alpha virt. eigenvalues --    0.06722   0.07136   0.07705   0.07713   0.08082

 Mulliken charges:
               1
     1  Mg   0.953882
     2  C   -0.042986
     3  C   -0.110365
     4  C   -0.074549
     5  C   -0.071344
     6  N   -0.321034
     7  C   -0.004201
     8  C   -0.076095
     9  C   -0.141370
    10  C    0.116686
    11  C    0.056686
    12  C    0.009043
    13  C   -0.101777
    14  H    0.060715
    15  N   -0.444602
    16  C    0.147204
    17  C   -0.177167
    18  C   -0.058253
    19  C    0.148256
    20  C    0.068318
    21  C    0.023131
    22  O   -0.209941
    23  C   -0.009764
    24  N   -0.406467
    25  C    0.080432
    26  C   -0.094027
    27  C   -0.044145
    28  C    0.108119
    29  C    0.034228
    30  C    0.007572
    31  C   -0.069607
    32  N   -0.442504
    33  C    0.083661
    34  C   -0.209117
    35  C    0.006962
    36  C    0.127439
    37  C    0.079139
    38  C    0.099189
    39  O   -0.251526
    40  C   -0.045733
    41  C    0.263240
    42  O   -0.210378
    43  O   -0.401494
    44  C    0.135705
    45  H    0.006494
    46  H    0.021275
    47  H   -0.000372
    48  H    0.038070
    49  H    0.035957
    50  H    0.032110
    51  H    0.057753
    52  H    0.022857
    53  H    0.027418
    54  H    0.042831
    55  H    0.027480
    56  H    0.044611
    57  H    0.032545
    58  H    0.076092
    59  H    0.059614
    60  H    0.059851
    61  H    0.052684
    62  H    0.061974
    63  H    0.024995
    64  H    0.018256
    65  H    0.044999
    66  H    0.032951
    67  H    0.031283
    68  H    0.032137
    69  H    0.016181
    70  H    0.030678
    71  H    0.056747
    72  H    0.029948
    73  H    0.053933
    74  H    0.066183
    75  H    0.035050
    76  H    0.077664
    77  H    0.056920
    78  H    0.049880
    79  H    0.051788
    80  Mg   0.973826
    81  C   -0.021116
    82  C   -0.054177
    83  C   -0.053578
    84  C   -0.109933
    85  N   -0.302034
    86  C   -0.007242
    87  C   -0.073149
    88  C   -0.132817
    89  C    0.070391
    90  C    0.036903
    91  C    0.034103
    92  C   -0.096303
    93  H    0.049847
    94  N   -0.460659
    95  C    0.091580
    96  C   -0.147428
    97  C   -0.078578
    98  C    0.134277
    99  C    0.063203
   100  C    0.051891
   101  O   -0.201375
   102  C   -0.020643
   103  N   -0.271207
   104  C    0.014662
   105  C   -0.095387
   106  C   -0.044750
   107  C    0.058144
   108  C    0.023293
   109  C   -0.029495
   110  C   -0.028139
   111  N   -0.485487
   112  C    0.125797
   113  C   -0.223712
   114  C   -0.055339
   115  C    0.152486
   116  C    0.077574
   117  C    0.163252
   118  O   -0.174816
   119  C   -0.083117
   120  C    0.267118
   121  O   -0.273041
   122  O   -0.389996
   123  C    0.157551
   124  H   -0.025710
   125  H    0.021059
   126  H   -0.000234
   127  H    0.020590
   128  H    0.035029
   129  H    0.041940
   130  H    0.027856
   131  H    0.045280
   132  H    0.025023
   133  H    0.073831
   134  H    0.043880
   135  H    0.037069
   136  H    0.048552
   137  H    0.053704
   138  H    0.042064
   139  H    0.049830
   140  H    0.042962
   141  H    0.056156
   142  H    0.045874
   143  H    0.031662
   144  H    0.049317
   145  H    0.037548
   146  H    0.032013
   147  H    0.020865
   148  H    0.014722
   149  H    0.040141
   150  H    0.034916
   151  H    0.038241
   152  H    0.028667
   153  H    0.052710
   154  H    0.061910
   155  H    0.080223
   156  H    0.043705
   157  H    0.073779
   158  H    0.042448
 Sum of Mulliken charges =  -0.00000

 Dipole moment (field-independent basis, Debye):
    X=             -0.1449    Y=              0.7236    Z=              2.0676  Tot=              2.1953
 Quadrupole moment (field-independent basis, Debye-Ang):
   XX=           -659.9519   YY=           -475.3439   ZZ=           -510.8012
   XY=            -21.9244   XZ=            308.5979   YZ=             11.8710

 Normal termination of Gaussian 16 at Sat Sep 18 10:57:44 2021.
