 Gaussian 16, Revision A.03,
 Gaussian 16:  ES64L-G16RevA.03 25-Dec-2016

 --------------------------------
 #p wB97XD/Def2SVP td=(nstates=5)
 --------------------------------

 --------------------------------
 TDDFT excited states in gaussian
 --------------------------------
 Symbolic Z-matrix:
 Charge =  0 Multiplicity = 1

                         Standard orientation:
 ---------------------------------------------------------------------
 Center     Atomic      Atomic             Coordinates (Angstroms)
 Number     Number       Type             X           Y           Z
 ---------------------------------------------------------------------
      1         12           0       13.605493   -0.155914    0.214452
      2          6           0       11.181720   -1.079594   -1.990573
      3          6           0       14.302365    2.515237   -1.885206
      4          6           0       15.723132    0.960796    2.568419
      5          6           0       12.377584   -2.474117    2.560501
      6          7           0       12.635959    0.765139   -1.603140
      7          6           0       11.680969    0.138809   -2.319437
      8          6           0       11.220773    0.942476   -3.480348
      9          6           0       12.532997    1.935228   -3.638499
     10          6           0       13.238965    1.747512   -2.279125
     11          6           0       13.401293    1.595629   -4.885788
     12          6           0        9.957590    1.703217   -3.109669
     13          6           0        9.968678    2.658866   -1.828128
     14          1           0        9.256911    4.005521   -1.864274
     15          7           0       14.836325    1.493787    0.337059
     16          6           0       15.095652    2.424527   -0.700607
     17          6           0       16.203799    3.216797   -0.282913
     18          6           0       16.613831    2.852285    0.993547
     19          6           0       15.770790    1.705999    1.372876
     20          6           0       16.715045    4.281638   -1.231877
     21          6           0       17.652113    3.529589    1.855786
     22          8           0       18.213581    4.530653    1.345059
     23          6           0       17.895251    3.271321    3.235357
     24          7           0       13.827514   -0.560122    2.352342
     25          6           0       14.837167    0.004389    3.074998
     26          6           0       14.861211   -0.538090    4.524081
     27          6           0       13.760710   -1.651438    4.487479
     28          6           0       13.228070   -1.515618    3.071058
     29          6           0       16.224809   -1.026687    4.963888
     30          6           0       12.644845   -1.411175    5.638416
     31          6           0       12.204157   -2.690741    6.358477
     32          7           0       12.063499   -1.575253    0.345759
     33          6           0       11.802987   -2.566152    1.237327
     34          6           0       10.879181   -3.466812    0.603081
     35          6           0       10.592253   -2.984906   -0.720903
     36          6           0       11.326863   -1.813516   -0.802402
     37          6           0       10.126416   -4.553202    1.291825
     38          6           0        9.836813   -3.118551   -1.924852
     39          8           0        9.070322   -4.058622   -2.170039
     40          6           0       10.215858   -1.928187   -2.786378
     41          6           0       10.780413   -2.430017   -4.062795
     42          8           0       10.112523   -3.172495   -4.755339
     43          8           0       12.002101   -1.921008   -4.382114
     44          6           0       12.559641   -2.391373   -5.651690
     45          1           0       14.703839    3.176012   -2.656191
     46          1           0       16.570875    1.184732    3.219031
     47          1           0       12.065315   -3.331114    3.161448
     48          1           0       10.983702    0.419846   -4.407094
     49          1           0       12.223657    2.950718   -3.889265
     50          1           0       13.469727    2.464546   -5.539290
     51          1           0       12.875589    0.811179   -5.430838
     52          1           0       14.401798    1.225769   -4.657790
     53          1           0        9.148403    0.973805   -3.068455
     54          1           0        9.710353    2.201951   -4.046737
     55          1           0       10.953737    2.955528   -1.467676
     56          1           0        9.418252    2.058026   -1.104749
     57          1           0       16.087995    5.154734   -1.050310
     58          1           0       16.547023    3.950939   -2.256058
     59          1           0       17.767337    4.551163   -1.136810
     60          1           0       18.250279    4.160281    3.757662
     61          1           0       18.506565    2.385592    3.412958
     62          1           0       16.904922    3.132189    3.666811
     63          1           0       14.528654    0.318415    5.111555
     64          1           0       14.236039   -2.631191    4.530810
     65          1           0       17.019021   -0.833599    4.243240
     66          1           0       16.365672   -2.033087    5.357193
     67          1           0       16.492903   -0.304963    5.736025
     68          1           0       11.729920   -0.942900    5.275317
     69          1           0       12.974114   -0.686273    6.382648
     70          1           0       12.629694   -2.676016    7.361506
     71          1           0       12.666555   -3.540086    5.855134
     72          1           0       11.120637   -2.791582    6.422957
     73          1           0       10.690060   -5.423839    1.624915
     74          1           0        9.350170   -4.851500    0.586146
     75          1           0        9.645675   -4.203673    2.205573
     76          1           0        9.286894   -1.394657   -2.989660
     77          1           0       11.846907   -2.144404   -6.439053
     78          1           0       12.825017   -3.448669   -5.644022
     79          1           0       13.547724   -1.962996   -5.819238
     80         12           0      -13.239268    0.876618   -0.136083
     81          6           0      -13.200561   -2.659929   -0.221474
     82          6           0       -9.814585    0.861241   -0.563848
     83          6           0      -13.267167    4.243815    0.241839
     84          6           0      -16.684571    0.833945    0.510041
     85          7           0      -11.766105   -0.772075   -0.252765
     86          6           0      -11.981075   -2.127705   -0.489615
     87          6           0      -10.623255   -2.884460   -0.791381
     88          6           0       -9.580111   -1.750015   -0.608625
     89          6           0      -10.407850   -0.460741   -0.408563
     90          6           0       -8.507775   -1.904686    0.533874
     91          6           0      -10.565544   -3.737106   -2.124559
     92          6           0      -10.294535   -5.199105   -1.936198
     93          1           0       -9.388512   -5.884158   -3.034522
     94          7           0      -11.749714    2.272973   -0.156404
     95          6           0      -10.403093    2.112531   -0.412565
     96          6           0       -9.737333    3.402914   -0.326689
     97          6           0      -10.700169    4.425807   -0.095530
     98          6           0      -12.001528    3.666060   -0.012084
     99          6           0       -8.240666    3.623316   -0.625150
    100          6           0      -10.524142    5.937549    0.005209
    101          8           0      -11.445677    6.719300    0.119288
    102          6           0       -9.134167    6.683654   -0.133654
    103          7           0      -14.770385    2.335082    0.413547
    104          6           0      -14.524952    3.636205    0.495555
    105          6           0      -15.819151    4.459968    0.831075
    106          6           0      -16.954305    3.366448    0.722126
    107          6           0      -16.102505    2.078777    0.508519
    108          6           0      -15.684494    5.236886    2.172610
    109          6           0      -17.958252    3.690425   -0.366479
    110          6           0      -19.410558    3.424590    0.025780
    111          7           0      -14.709095   -0.548801    0.247462
    112          6           0      -16.078290   -0.437883    0.396311
    113          6           0      -16.590726   -1.755442    0.615301
    114          6           0      -15.543265   -2.671051    0.346583
    115          6           0      -14.372280   -1.894091    0.124099
    116          6           0      -17.989808   -2.099959    0.960641
    117          6           0      -15.216237   -4.096854    0.170983
    118          8           0      -15.849493   -5.128660    0.374110
    119          6           0      -13.560352   -4.095340   -0.273652
    120          6           0      -12.813881   -4.892749    0.648744
    121          8           0      -12.094191   -4.450522    1.517796
    122          8           0      -12.915532   -6.228932    0.333699
    123          6           0      -12.201525   -7.100634    1.299633
    124          1           0       -8.754010    0.909277   -0.820180
    125          1           0      -13.327594    5.318941    0.420351
    126          1           0      -17.768065    0.914748    0.625229
    127          1           0      -10.459386   -3.495817    0.095372
    128          1           0       -9.005436   -1.605309   -1.523501
    129          1           0       -7.564245   -1.542448    0.124472
    130          1           0       -8.457285   -2.955338    0.818623
    131          1           0       -8.724928   -1.331120    1.435184
    132          1           0       -9.811418   -3.258546   -2.749512
    133          1           0      -11.549514   -3.660122   -2.587451
    134          1           0      -11.235798   -5.750327   -1.938997
    135          1           0       -9.837126   -5.245430   -0.948304
    136          1           0       -8.221261    4.213404   -1.540715
    137          1           0       -7.792692    2.671027   -0.909981
    138          1           0       -7.677232    4.161557    0.138056
    139          1           0       -8.701666    6.408578   -1.096224
    140          1           0       -8.524879    6.614335    0.767978
    141          1           0       -9.384574    7.739482   -0.035026
    142          1           0      -16.067055    5.206189    0.076491
    143          1           0      -17.397157    3.299855    1.716077
    144          1           0      -16.558817    5.015400    2.785318
    145          1           0      -15.519655    6.306324    2.038922
    146          1           0      -14.806114    4.885229    2.711315
    147          1           0      -17.746636    3.157505   -1.292893
    148          1           0      -17.915476    4.720825   -0.722791
    149          1           0      -19.475871    2.878125    0.966692
    150          1           0      -19.826333    2.793074   -0.759847
    151          1           0      -20.019245    4.328785    0.009029
    152          1           0      -18.694566   -1.276897    1.078498
    153          1           0      -17.929139   -2.848685    1.751391
    154          1           0      -18.380251   -2.481947    0.017077
    155          1           0      -13.463909   -4.508194   -1.278223
    156          1           0      -12.613002   -6.959337    2.299288
    157          1           0      -11.143286   -6.862073    1.193557
    158          1           0      -12.330956   -8.161708    1.089987
 ---------------------------------------------------------------------

 SCF Done:  E(RwB97XD) =  -4070.60975760     A.U. after   20 cycles

 Excitation energies and oscillator strengths:

 Excited State   1:      Singlet-A      1.6887 eV  734.18 nm  f=0.3980  <S**2>=0.000
     309 -> 315        0.18197
     311 -> 313        0.68310
     309 <- 315        0.11276
 This state for optimization and/or second-order correction.
 Total Energy, E(TD-HF/TD-DFT) =  -4070.54769782
 Copying the excited state density for this state as the 1-particle RhoCI density.

 Excited State   2:      Singlet-A      1.7610 eV  704.04 nm  f=0.3674  <S**2>=0.000
     310 -> 316        0.17849
     312 -> 314        0.68333
     310 <- 316        0.10764

 Excited State   3:      Singlet-A      2.1634 eV  573.10 nm  f=0.1257  <S**2>=0.000
     309 -> 313        0.64778
     311 -> 315       -0.25640

 Excited State   4:      Singlet-A      2.2095 eV  561.14 nm  f=0.1120  <S**2>=0.000
     310 -> 314        0.63751
     312 -> 316       -0.28405

 Excited State   5:      Singlet-A      3.2089 eV  386.38 nm  f=0.0007  <S**2>=0.000
     305 -> 313       -0.33951
     307 -> 313        0.59790

 The electronic state is 1-A.
 Alpha  occ. eigenvalues --  -46.95544 -46.94508 -19.31671 -19.29405 -19.24903
 Alpha  occ. eigenvalues --  -19.24500 -19.24286 -19.24000 -19.23391 -19.23305
 Alpha  occ. eigenvalues --  -14.46824 -14.46746 -14.46734 -14.46267 -14.44948
 Alpha  occ. eigenvalues --  -14.44522 -14.43251 -14.43210 -10.43377 -10.41991
 Alpha  occ. eigenvalues --  -10.40394 -10.39896 -10.38886 -10.38519 -10.36592
 Alpha  occ. eigenvalues --  -10.36559 -10.36105 -10.35815 -10.35413 -10.35316
 Alpha  occ. eigenvalues --  -10.35295 -10.35214 -10.34877 -10.34580 -10.34551
 Alpha  occ. eigenvalues --  -10.34394 -10.34262 -10.34071 -10.33681 -10.33240
 Alpha  occ. eigenvalues --  -10.33135 -10.33012 -10.32678 -10.32576 -10.32559
 Alpha  occ. eigenvalues --  -10.32532 -10.32518 -10.32505 -10.32504 -10.32318
 Alpha  occ. eigenvalues --  -10.32243 -10.32181 -10.31999 -10.31938 -10.31886
 Alpha  occ. eigenvalues --  -10.31836 -10.31766 -10.31608 -10.31601 -10.31564
 Alpha  occ. eigenvalues --  -10.31517 -10.31445 -10.31344 -10.31338 -10.31288
 Alpha  occ. eigenvalues --  -10.31094 -10.30999 -10.30855 -10.30816 -10.30596
 Alpha  occ. eigenvalues --  -10.30595 -10.30525 -10.30488 -10.30408 -10.30296
 Alpha  occ. eigenvalues --  -10.30236 -10.30031 -10.29824 -10.29632 -10.29594
 Alpha  occ. eigenvalues --  -10.29487 -10.29034 -10.28890 -10.28856 -10.28774
 Alpha  occ. eigenvalues --  -10.28631  -3.21450  -3.20473  -1.95011  -1.94588
 Alpha  occ. eigenvalues --   -1.94401  -1.94072  -1.93589  -1.93450  -1.19658
 Alpha  occ. eigenvalues --   -1.17875  -1.13734  -1.11364  -1.11318  -1.10703
 Alpha  occ. eigenvalues --   -1.10284  -1.09476  -1.07062  -1.06618  -1.06016
 Alpha  occ. eigenvalues --   -1.04819  -1.04472  -1.03892  -1.03677  -1.02868
 Alpha  occ. eigenvalues --   -0.96129  -0.93681  -0.91316  -0.90981  -0.90927
 Alpha  occ. eigenvalues --   -0.90716  -0.90204  -0.89942  -0.89790  -0.89191
 Alpha  occ. eigenvalues --   -0.88752  -0.88415  -0.87855  -0.87406  -0.87095
 Alpha  occ. eigenvalues --   -0.86195  -0.86081  -0.85439  -0.85363  -0.84781
 Alpha  occ. eigenvalues --   -0.84340  -0.83472  -0.82934  -0.82927  -0.82589
 Alpha  occ. eigenvalues --   -0.81987  -0.80645  -0.80380  -0.80047  -0.79043
 Alpha  occ. eigenvalues --   -0.78768  -0.78269  -0.78147  -0.77577  -0.77008
 Alpha  occ. eigenvalues --   -0.76608  -0.74556  -0.74193  -0.74143  -0.73216
 Alpha  occ. eigenvalues --   -0.72167  -0.71151  -0.71022  -0.70861  -0.70681
 Alpha  occ. eigenvalues --   -0.69363  -0.69242  -0.69053  -0.68552  -0.67468
 Alpha  occ. eigenvalues --   -0.67423  -0.67288  -0.66661  -0.66528  -0.66444
 Alpha  occ. eigenvalues --   -0.66276  -0.65883  -0.63048  -0.62299  -0.62022
 Alpha  occ. eigenvalues --   -0.61788  -0.61409  -0.61087  -0.60813  -0.60690
 Alpha  occ. eigenvalues --   -0.60455  -0.60106  -0.59867  -0.59675  -0.58937
 Alpha  occ. eigenvalues --   -0.58823  -0.58652  -0.57876  -0.57852  -0.57590
 Alpha  occ. eigenvalues --   -0.57170  -0.56643  -0.56548  -0.56293  -0.56058
 Alpha  occ. eigenvalues --   -0.55778  -0.55545  -0.55511  -0.55169  -0.55101
 Alpha  occ. eigenvalues --   -0.55098  -0.54877  -0.54535  -0.54418  -0.53969
 Alpha  occ. eigenvalues --   -0.53889  -0.53785  -0.53525  -0.53428  -0.53254
 Alpha  occ. eigenvalues --   -0.53093  -0.52969  -0.52885  -0.52713  -0.52431
 Alpha  occ. eigenvalues --   -0.52398  -0.51983  -0.51650  -0.51508  -0.51443
 Alpha  occ. eigenvalues --   -0.51375  -0.51280  -0.51124  -0.50777  -0.50658
 Alpha  occ. eigenvalues --   -0.50562  -0.50498  -0.50492  -0.50149  -0.49889
 Alpha  occ. eigenvalues --   -0.49847  -0.49624  -0.49594  -0.49396  -0.49109
 Alpha  occ. eigenvalues --   -0.48733  -0.48630  -0.48490  -0.48452  -0.48248
 Alpha  occ. eigenvalues --   -0.48081  -0.48046  -0.47845  -0.47749  -0.47635
 Alpha  occ. eigenvalues --   -0.47395  -0.47226  -0.47031  -0.46898  -0.46673
 Alpha  occ. eigenvalues --   -0.46666  -0.46595  -0.46586  -0.46557  -0.46339
 Alpha  occ. eigenvalues --   -0.45883  -0.45800  -0.45769  -0.45588  -0.45405
 Alpha  occ. eigenvalues --   -0.45132  -0.45082  -0.44915  -0.44829  -0.44404
 Alpha  occ. eigenvalues --   -0.44305  -0.44264  -0.44226  -0.44130  -0.43909
 Alpha  occ. eigenvalues --   -0.43819  -0.43813  -0.43378  -0.43322  -0.43162
 Alpha  occ. eigenvalues --   -0.43058  -0.43022  -0.42422  -0.42375  -0.42139
 Alpha  occ. eigenvalues --   -0.41850  -0.41501  -0.41497  -0.41220  -0.41168
 Alpha  occ. eigenvalues --   -0.40744  -0.40535  -0.39877  -0.39791  -0.39568
 Alpha  occ. eigenvalues --   -0.39549  -0.39134  -0.39073  -0.38814  -0.38143
 Alpha  occ. eigenvalues --   -0.37975  -0.37755  -0.36798  -0.36086  -0.36055
 Alpha  occ. eigenvalues --   -0.35708  -0.35374  -0.35260  -0.34071  -0.33844
 Alpha  occ. eigenvalues --   -0.33431  -0.32887  -0.32809  -0.32476  -0.32385
 Alpha  occ. eigenvalues --   -0.32107  -0.31212  -0.30681  -0.26300  -0.25946
 Alpha  occ. eigenvalues --   -0.23552  -0.23082
 Alpha virt. eigenvalues --   -0.07572  -0.06765  -0.00024   0.00223   0.02139
 Alpha virt. eigenvalues --    0.02165   0.04047   0.04284   0.04393   0.06090
 Alpha virt. eigenvalues --    0.07020   0.07277   0.07941   0.08007   0.08289

 Mulliken charges:
               1
     1  Mg   0.931671
     2  C   -0.001168
     3  C   -0.065796
     4  C   -0.091539
     5  C   -0.077406
     6  N   -0.307377
     7  C    0.004342
     8  C   -0.074598
     9  C   -0.126229
    10  C    0.080311
    11  C    0.020523
    12  C    0.008051
    13  C   -0.130961
    14  H    0.036584
    15  N   -0.514622
    16  C    0.149004
    17  C   -0.151787
    18  C   -0.055438
    19  C    0.178140
    20  C    0.087304
    21  C    0.034461
    22  O   -0.270917
    23  C    0.017038
    24  N   -0.324850
    25  C    0.043668
    26  C   -0.057466
    27  C   -0.088526
    28  C    0.105823
    29  C    0.017409
    30  C   -0.009884
    31  C   -0.055818
    32  N   -0.439768
    33  C    0.094691
    34  C   -0.179719
    35  C    0.011825
    36  C    0.117590
    37  C    0.048042
    38  C    0.070895
    39  O   -0.202028
    40  C   -0.081098
    41  C    0.257116
    42  O   -0.227914
    43  O   -0.352641
    44  C    0.138891
    45  H   -0.003837
    46  H   -0.037136
    47  H   -0.005144
    48  H    0.022050
    49  H    0.037497
    50  H    0.038118
    51  H    0.026431
    52  H    0.039199
    53  H    0.024819
    54  H    0.032609
    55  H    0.078162
    56  H    0.066313
    57  H    0.053629
    58  H    0.029936
    59  H    0.064049
    60  H    0.061185
    61  H    0.077370
    62  H    0.047589
    63  H    0.049749
    64  H    0.040862
    65  H    0.036156
    66  H    0.052027
    67  H    0.027186
    68  H    0.036365
    69  H    0.028037
    70  H    0.035071
    71  H    0.031421
    72  H    0.047237
    73  H    0.038461
    74  H    0.058083
    75  H    0.037736
    76  H    0.089348
    77  H    0.063353
    78  H    0.059165
    79  H    0.051067
    80  Mg   0.955355
    81  C    0.013655
    82  C   -0.100303
    83  C   -0.065709
    84  C   -0.067002
    85  N   -0.380779
    86  C   -0.011849
    87  C   -0.051943
    88  C   -0.156897
    89  C    0.113156
    90  C    0.022884
    91  C    0.049768
    92  C   -0.135505
    93  H    0.030100
    94  N   -0.509984
    95  C    0.184334
    96  C   -0.168046
    97  C   -0.051524
    98  C    0.184784
    99  C    0.066016
   100  C    0.037459
   101  O   -0.218317
   102  C   -0.019148
   103  N   -0.317929
   104  C    0.037675
   105  C   -0.121158
   106  C   -0.060567
   107  C    0.021198
   108  C    0.018102
   109  C    0.000773
   110  C   -0.056996
   111  N   -0.463916
   112  C    0.166384
   113  C   -0.208641
   114  C   -0.042172
   115  C    0.161264
   116  C    0.091206
   117  C    0.152291
   118  O   -0.199151
   119  C   -0.162598
   120  C    0.269491
   121  O   -0.250489
   122  O   -0.372314
   123  C    0.150430
   124  H   -0.008374
   125  H    0.020276
   126  H   -0.018408
   127  H    0.051680
   128  H    0.033026
   129  H    0.037226
   130  H    0.043642
   131  H    0.050631
   132  H    0.039026
   133  H    0.034315
   134  H    0.065838
   135  H    0.050694
   136  H    0.052512
   137  H    0.034315
   138  H    0.066352
   139  H    0.061699
   140  H    0.055631
   141  H    0.047249
   142  H    0.040260
   143  H    0.034306
   144  H    0.035109
   145  H    0.050505
   146  H    0.041481
   147  H    0.030967
   148  H    0.027870
   149  H    0.041044
   150  H    0.031067
   151  H    0.041120
   152  H    0.018959
   153  H    0.070113
   154  H    0.044775
   155  H    0.079965
   156  H    0.059964
   157  H    0.049675
   158  H    0.052102
 Sum of Mulliken charges =  -0.00000

 Dipole moment (field-independent basis, Debye):
    X=              7.4089    Y=              4.4534    Z=              0.6244  Tot=              8.6669
 Quadrupole moment (field-independent basis, Debye-Ang):
   XX=           -494.6579   YY=           -552.4187   ZZ=           -472.9081
   XY=            -82.0089   XZ=             40.9578   YZ=            -23.0377

 Normal termination of Gaussian 16 at Sun Sep 19 21:06:05 2021.
