 Gaussian 16, Revision A.03,
 Gaussian 16:  ES64L-G16RevA.03 25-Dec-2016

 --------------------------------
 #p wB97XD/Def2SVP td=(nstates=5)
 --------------------------------

 --------------------------------
 TDDFT excited states in gaussian
 --------------------------------
 Symbolic Z-matrix:
 Charge =  0 Multiplicity = 1

                         Standard orientation:
 ---------------------------------------------------------------------
 Center     Atomic      Atomic             Coordinates (Angstroms)
 Number     Number       Type             X           Y           Z
 ---------------------------------------------------------------------
      1         12           0      -14.465582   -0.022308    0.427250
      2          6           0      -12.369677    1.304739   -1.956024
      3          6           0      -16.476223   -1.420340   -1.966540
      4          6           0      -16.470747   -1.524508    2.875539
      5          6           0      -12.105058    0.587666    2.873077
      6          7           0      -14.233818   -0.187692   -1.722219
      7          6           0      -13.411626    0.573630   -2.557370
      8          6           0      -13.668507    0.259416   -4.033363
      9          6           0      -15.049033   -0.433740   -3.908067
     10          6           0      -15.265207   -0.799629   -2.425326
     11          6           0      -16.192246    0.368925   -4.566764
     12          6           0      -12.570129   -0.636541   -4.639321
     13          6           0      -12.078799   -0.274687   -6.083412
     14          1           0      -11.631057   -1.406522   -6.923294
     15          7           0      -16.216895   -1.220459    0.433137
     16          6           0      -16.941861   -1.611767   -0.639767
     17          6           0      -18.213951   -2.164925   -0.283096
     18          6           0      -18.307063   -2.086703    1.116199
     19          6           0      -16.950005   -1.556865    1.555056
     20          6           0      -19.290165   -2.577276   -1.289454
     21          6           0      -19.521359   -2.525840    2.012242
     22          8           0      -20.502153   -3.084319    1.457403
     23          6           0      -19.621092   -2.230094    3.570515
     24          7           0      -14.174294   -0.679601    2.527228
     25          6           0      -15.187045   -1.125545    3.309646
     26          6           0      -14.841508   -1.122031    4.776662
     27          6           0      -13.430087   -0.496728    4.802533
     28          6           0      -13.221536   -0.132075    3.330487
     29          6           0      -15.897409   -0.422348    5.695333
     30          6           0      -12.328988   -1.446256    5.476808
     31          6           0      -11.895810   -1.023574    6.885362
     32          7           0      -12.637234    0.826209    0.503771
     33          6           0      -11.751906    1.060282    1.578929
     34          6           0      -10.668545    1.944797    1.130038
     35          6           0      -10.935899    2.109688   -0.221878
     36          6           0      -12.048704    1.314536   -0.541697
     37          6           0       -9.525302    2.520983    1.886110
     38          6           0      -10.440647    2.751328   -1.448055
     39          8           0       -9.600587    3.647639   -1.631294
     40          6           0      -11.385074    2.287583   -2.628517
     41          6           0      -12.096851    3.472202   -3.268014
     42          8           0      -12.657659    4.412987   -2.697221
     43          8           0      -11.902301    3.276168   -4.603007
     44          6           0      -12.323601    4.351746   -5.484924
     45          1           0      -17.128443   -1.866007   -2.720372
     46          1           0      -17.044695   -1.876429    3.735365
     47          1           0      -11.323171    0.820720    3.598647
     48          1           0      -13.690295    1.187409   -4.605692
     49          1           0      -14.920235   -1.349675   -4.484678
     50          1           0      -15.957133    1.112329   -5.328424
     51          1           0      -16.642150    0.948021   -3.760471
     52          1           0      -16.939019   -0.278589   -5.025683
     53          1           0      -12.820691   -1.696402   -4.603602
     54          1           0      -11.758751   -0.613246   -3.911443
     55          1           0      -11.258845    0.439538   -6.008685
     56          1           0      -12.914745    0.161946   -6.631682
     57          1           0      -20.173789   -1.996732   -1.025320
     58          1           0      -19.341885   -3.664586   -1.347172
     59          1           0      -18.938156   -2.175404   -2.239512
     60          1           0      -19.085836   -3.039954    4.064836
     61          1           0      -20.680826   -2.278737    3.819826
     62          1           0      -19.335725   -1.185844    3.700675
     63          1           0      -14.790530   -2.158411    5.110703
     64          1           0      -13.347807    0.496496    5.243316
     65          1           0      -15.423687    0.245702    6.414111
     66          1           0      -16.503162   -1.134221    6.255752
     67          1           0      -16.624715    0.093963    5.070155
     68          1           0      -11.393672   -1.461891    4.917457
     69          1           0      -12.668845   -2.481723    5.459836
     70          1           0      -11.758285   -1.907907    7.507821
     71          1           0      -12.662135   -0.389574    7.330815
     72          1           0      -10.969125   -0.450498    6.909894
     73          1           0       -9.664111    2.259385    2.935128
     74          1           0       -9.369744    3.558972    1.591366
     75          1           0       -8.651170    1.939252    1.591603
     76          1           0      -10.851548    1.714006   -3.386915
     77          1           0      -13.303181    4.765199   -5.241622
     78          1           0      -12.335493    4.140611   -6.554197
     79          1           0      -11.611040    5.174816   -5.425172
     80         12           0       14.317128   -0.786618   -0.456066
     81          6           0       14.366409    2.596880    0.355551
     82          6           0       10.961218   -0.687317   -0.737910
     83          6           0       14.339447   -4.150531   -0.786323
     84          6           0       17.672828   -0.910409    0.327353
     85          7           0       12.828195    0.832617   -0.186778
     86          6           0       13.106704    2.170052   -0.063269
     87          6           0       11.859468    2.965965   -0.138329
     88          6           0       10.727126    1.974279   -0.429412
     89          6           0       11.501428    0.587459   -0.485329
     90          6           0        9.503202    1.968002    0.473296
     91          6           0       11.986079    4.172223   -1.231495
     92          6           0       11.857999    5.625071   -0.716629
     93          1           0       11.108865    6.665117   -1.512871
     94          7           0       12.877606   -2.202173   -0.843645
     95          6           0       11.511775   -1.972120   -0.913088
     96          6           0       10.833131   -3.199176   -1.121931
     97          6           0       11.800301   -4.240507   -1.136627
     98          6           0       13.075844   -3.544916   -0.937198
     99          6           0        9.280192   -3.157505   -1.403152
    100          6           0       11.489053   -5.731720   -1.251860
    101          8           0       12.323991   -6.646620   -1.186678
    102          6           0       10.119448   -6.165312   -1.541179
    103          7           0       15.721066   -2.401339   -0.030170
    104          6           0       15.546029   -3.667036   -0.349263
    105          6           0       16.778533   -4.512637    0.043185
    106          6           0       17.865630   -3.376494   -0.105903
    107          6           0       17.032150   -2.108513    0.050264
    108          6           0       16.872783   -5.185870    1.462390
    109          6           0       18.721512   -3.361450   -1.461877
    110          6           0       17.999680   -3.216946   -2.738649
    111          7           0       15.839492    0.541926    0.273927
    112          6           0       17.208672    0.343240    0.539006
    113          6           0       17.788703    1.572523    0.977414
    114          6           0       16.735719    2.465398    0.992533
    115          6           0       15.583938    1.807817    0.448847
    116          6           0       19.104798    1.744289    1.561436
    117          6           0       16.426938    3.812203    1.111652
    118          8           0       17.110304    4.786052    1.444319
    119          6           0       14.868544    3.984060    0.810255
    120          6           0       14.245811    4.321203    2.124635
    121          8           0       14.213673    3.725114    3.180752
    122          8           0       13.697048    5.524255    1.946896
    123          6           0       12.966087    6.094239    3.125754
    124          1           0        9.926096   -0.483362   -1.019559
    125          1           0       14.319060   -5.208482   -1.053484
    126          1           0       18.748797   -0.951829    0.507933
    127          1           0       11.746488    3.397173    0.855580
    128          1           0       10.364622    2.141468   -1.443439
    129          1           0        9.848360    1.172732    1.132937
    130          1           0        8.547720    1.803279   -0.025037
    131          1           0        9.287732    2.834179    1.098332
    132          1           0       11.256196    4.002943   -2.022596
    133          1           0       12.968871    4.237270   -1.699067
    134          1           0       12.872376    6.024518   -0.696122
    135          1           0       11.536571    5.663892    0.323328
    136          1           0        8.788053   -3.845613   -0.716095
    137          1           0        9.318135   -3.609592   -2.394327
    138          1           0        8.749438   -2.218517   -1.245667
    139          1           0        9.424685   -5.796900   -0.787682
    140          1           0       10.096706   -7.229692   -1.308545
    141          1           0        9.785521   -6.001673   -2.566106
    142          1           0       17.012266   -5.177746   -0.788259
    143          1           0       18.555004   -3.576705    0.713982
    144          1           0       16.504886   -4.587982    2.295360
    145          1           0       17.938716   -5.401422    1.544362
    146          1           0       16.307059   -6.117659    1.485386
    147          1           0       19.307926   -4.268314   -1.611609
    148          1           0       19.310363   -2.448053   -1.545411
    149          1           0       17.827870   -2.143402   -2.802845
    150          1           0       17.027076   -3.695030   -2.859087
    151          1           0       18.516785   -3.480240   -3.660766
    152          1           0       18.960144    1.456559    2.603458
    153          1           0       19.505886    2.756751    1.525139
    154          1           0       19.884963    1.183547    1.045480
    155          1           0       14.657870    4.695395    0.011609
    156          1           0       11.912964    5.993243    2.862443
    157          1           0       13.277637    7.126002    3.286972
    158          1           0       13.072942    5.577644    4.080010
 ---------------------------------------------------------------------

 SCF Done:  E(RwB97XD) =  -4070.60499024     A.U. after   19 cycles

 Excitation energies and oscillator strengths:

 Excited State   1:      Singlet-A      1.6461 eV  753.20 nm  f=0.4313  <S**2>=0.000
     310 -> 316        0.18067
     311 -> 313        0.68160
     310 <- 316        0.11516
 This state for optimization and/or second-order correction.
 Total Energy, E(TD-HF/TD-DFT) =  -4070.54449697
 Copying the excited state density for this state as the 1-particle RhoCI density.

 Excited State   2:      Singlet-A      1.6656 eV  744.39 nm  f=0.3084  <S**2>=0.000
     309 -> 315       -0.17811
     312 -> 314        0.68177
     309 <- 315       -0.11299

 Excited State   3:      Singlet-A      2.1203 eV  584.74 nm  f=0.1343  <S**2>=0.000
     310 -> 313        0.64946
     311 -> 316       -0.26622

 Excited State   4:      Singlet-A      2.1967 eV  564.41 nm  f=0.0909  <S**2>=0.000
     309 -> 314        0.62322
     312 -> 315        0.31712

 Excited State   5:      Singlet-A      3.7464 eV  330.94 nm  f=0.0000  <S**2>=0.000
     312 -> 313        0.70706

 The electronic state is 1-A.
 Alpha  occ. eigenvalues --  -46.95655 -46.95588 -19.31644 -19.30247 -19.25275
 Alpha  occ. eigenvalues --  -19.24847 -19.24002 -19.23678 -19.23541 -19.23289
 Alpha  occ. eigenvalues --  -14.47093 -14.46824 -14.46557 -14.46401 -14.44931
 Alpha  occ. eigenvalues --  -14.44289 -14.43732 -14.43551 -10.43874 -10.42427
 Alpha  occ. eigenvalues --  -10.40817 -10.39017 -10.38823 -10.38174 -10.36390
 Alpha  occ. eigenvalues --  -10.35850 -10.35806 -10.35442 -10.35441 -10.35303
 Alpha  occ. eigenvalues --  -10.35209 -10.35176 -10.34609 -10.34588 -10.34492
 Alpha  occ. eigenvalues --  -10.34279 -10.34082 -10.33794 -10.33701 -10.33100
 Alpha  occ. eigenvalues --  -10.32976 -10.32838 -10.32785 -10.32771 -10.32616
 Alpha  occ. eigenvalues --  -10.32576 -10.32539 -10.32464 -10.32269 -10.32259
 Alpha  occ. eigenvalues --  -10.32245 -10.32201 -10.32123 -10.32066 -10.32044
 Alpha  occ. eigenvalues --  -10.31982 -10.31927 -10.31851 -10.31833 -10.31830
 Alpha  occ. eigenvalues --  -10.31773 -10.31580 -10.31527 -10.31458 -10.31453
 Alpha  occ. eigenvalues --  -10.31448 -10.31426 -10.31168 -10.31061 -10.30894
 Alpha  occ. eigenvalues --  -10.30687 -10.30580 -10.30508 -10.30318 -10.30310
 Alpha  occ. eigenvalues --  -10.30301 -10.30074 -10.29997 -10.29910 -10.29866
 Alpha  occ. eigenvalues --  -10.29830 -10.29616 -10.29429 -10.28680 -10.28632
 Alpha  occ. eigenvalues --  -10.28529  -3.21565  -3.21519  -1.95120  -1.95109
 Alpha  occ. eigenvalues --   -1.94674  -1.94616  -1.94561  -1.94504  -1.19164
 Alpha  occ. eigenvalues --   -1.19084  -1.11315  -1.10962  -1.10800  -1.10612
 Alpha  occ. eigenvalues --   -1.10017  -1.09533  -1.07411  -1.06735  -1.06282
 Alpha  occ. eigenvalues --   -1.06090  -1.05653  -1.05377  -1.04633  -1.04235
 Alpha  occ. eigenvalues --   -0.94174  -0.93424  -0.91104  -0.90877  -0.90776
 Alpha  occ. eigenvalues --   -0.90631  -0.90586  -0.90294  -0.89866  -0.89503
 Alpha  occ. eigenvalues --   -0.89252  -0.89020  -0.88786  -0.88452  -0.86540
 Alpha  occ. eigenvalues --   -0.86299  -0.86135  -0.85831  -0.84964  -0.84470
 Alpha  occ. eigenvalues --   -0.83911  -0.83632  -0.83490  -0.83148  -0.82676
 Alpha  occ. eigenvalues --   -0.82201  -0.80691  -0.79928  -0.79571  -0.79494
 Alpha  occ. eigenvalues --   -0.79287  -0.78756  -0.77872  -0.77866  -0.77305
 Alpha  occ. eigenvalues --   -0.77276  -0.75458  -0.74757  -0.73780  -0.73639
 Alpha  occ. eigenvalues --   -0.71319  -0.71182  -0.71023  -0.70978  -0.69899
 Alpha  occ. eigenvalues --   -0.69703  -0.69344  -0.69141  -0.68107  -0.67704
 Alpha  occ. eigenvalues --   -0.67353  -0.67138  -0.67039  -0.66757  -0.66633
 Alpha  occ. eigenvalues --   -0.65935  -0.64730  -0.64025  -0.62406  -0.61973
 Alpha  occ. eigenvalues --   -0.61891  -0.61673  -0.61286  -0.61006  -0.60663
 Alpha  occ. eigenvalues --   -0.60574  -0.60228  -0.59868  -0.59762  -0.59283
 Alpha  occ. eigenvalues --   -0.58397  -0.58054  -0.57796  -0.57670  -0.57455
 Alpha  occ. eigenvalues --   -0.57302  -0.57026  -0.56965  -0.56748  -0.56621
 Alpha  occ. eigenvalues --   -0.55775  -0.55387  -0.55275  -0.55171  -0.55147
 Alpha  occ. eigenvalues --   -0.54925  -0.54824  -0.54623  -0.54598  -0.54116
 Alpha  occ. eigenvalues --   -0.53971  -0.53821  -0.53592  -0.53354  -0.53227
 Alpha  occ. eigenvalues --   -0.53105  -0.53099  -0.52988  -0.52849  -0.52307
 Alpha  occ. eigenvalues --   -0.51922  -0.51701  -0.51636  -0.51441  -0.51361
 Alpha  occ. eigenvalues --   -0.51308  -0.51111  -0.51085  -0.50933  -0.50489
 Alpha  occ. eigenvalues --   -0.50417  -0.50303  -0.50259  -0.50151  -0.50006
 Alpha  occ. eigenvalues --   -0.49814  -0.49749  -0.49455  -0.49290  -0.49183
 Alpha  occ. eigenvalues --   -0.49078  -0.48881  -0.48741  -0.48584  -0.48576
 Alpha  occ. eigenvalues --   -0.48357  -0.48158  -0.48036  -0.47893  -0.47728
 Alpha  occ. eigenvalues --   -0.47517  -0.47217  -0.47154  -0.46794  -0.46537
 Alpha  occ. eigenvalues --   -0.46416  -0.46370  -0.46132  -0.46059  -0.46009
 Alpha  occ. eigenvalues --   -0.45767  -0.45722  -0.45602  -0.45519  -0.45270
 Alpha  occ. eigenvalues --   -0.45267  -0.45122  -0.44991  -0.44902  -0.44568
 Alpha  occ. eigenvalues --   -0.44438  -0.44435  -0.44163  -0.44123  -0.44042
 Alpha  occ. eigenvalues --   -0.43955  -0.43716  -0.43594  -0.43558  -0.43140
 Alpha  occ. eigenvalues --   -0.42981  -0.42814  -0.42778  -0.42621  -0.42564
 Alpha  occ. eigenvalues --   -0.42061  -0.41672  -0.41382  -0.41333  -0.40823
 Alpha  occ. eigenvalues --   -0.40753  -0.40355  -0.40134  -0.40005  -0.39957
 Alpha  occ. eigenvalues --   -0.39614  -0.39484  -0.39056  -0.38981  -0.38450
 Alpha  occ. eigenvalues --   -0.38403  -0.38024  -0.36914  -0.36843  -0.36450
 Alpha  occ. eigenvalues --   -0.36226  -0.35722  -0.35342  -0.33805  -0.33663
 Alpha  occ. eigenvalues --   -0.33366  -0.32951  -0.32754  -0.32687  -0.32486
 Alpha  occ. eigenvalues --   -0.32476  -0.32127  -0.32008  -0.26198  -0.25909
 Alpha  occ. eigenvalues --   -0.23234  -0.22967
 Alpha virt. eigenvalues --   -0.07320  -0.06979  -0.00185   0.00310   0.02178
 Alpha virt. eigenvalues --    0.02355   0.03997   0.04372   0.04754   0.05322
 Alpha virt. eigenvalues --    0.07086   0.07350   0.07772   0.08651   0.09136

 Mulliken charges:
               1
     1  Mg   0.973338
     2  C   -0.080557
     3  C   -0.110062
     4  C   -0.086183
     5  C   -0.082979
     6  N   -0.404004
     7  C   -0.008420
     8  C   -0.052796
     9  C   -0.092051
    10  C    0.125951
    11  C    0.013964
    12  C    0.023165
    13  C   -0.127690
    14  H    0.043542
    15  N   -0.430269
    16  C    0.153029
    17  C   -0.190622
    18  C   -0.078415
    19  C    0.194581
    20  C    0.116446
    21  C    0.044447
    22  O   -0.256129
    23  C   -0.009335
    24  N   -0.325090
    25  C    0.023020
    26  C   -0.076491
    27  C   -0.052168
    28  C    0.038408
    29  C    0.010492
    30  C   -0.007604
    31  C   -0.058090
    32  N   -0.440669
    33  C    0.101362
    34  C   -0.206504
    35  C   -0.044066
    36  C    0.153016
    37  C    0.107350
    38  C    0.155459
    39  O   -0.229942
    40  C   -0.059870
    41  C    0.289116
    42  O   -0.247402
    43  O   -0.356459
    44  C    0.133455
    45  H    0.007867
    46  H   -0.019626
    47  H   -0.011162
    48  H    0.025065
    49  H    0.032713
    50  H    0.036853
    51  H    0.034881
    52  H    0.038473
    53  H    0.030663
    54  H    0.030053
    55  H    0.066347
    56  H    0.049686
    57  H    0.065680
    58  H    0.072178
    59  H    0.012158
    60  H    0.080733
    61  H    0.058399
    62  H    0.060715
    63  H    0.046791
    64  H    0.034073
    65  H    0.046925
    66  H    0.033639
    67  H    0.037753
    68  H    0.032878
    69  H    0.028806
    70  H    0.039159
    71  H    0.028685
    72  H    0.041073
    73  H    0.021245
    74  H    0.075323
    75  H    0.050235
    76  H    0.064313
    77  H    0.055343
    78  H    0.052199
    79  H    0.053610
    80  Mg   0.938958
    81  C   -0.014627
    82  C   -0.073883
    83  C   -0.062255
    84  C   -0.108214
    85  N   -0.378544
    86  C    0.014465
    87  C   -0.066684
    88  C   -0.052572
    89  C   -0.019161
    90  C    0.003372
    91  C    0.003766
    92  C   -0.135672
    93  H    0.038656
    94  N   -0.463565
    95  C    0.198384
    96  C   -0.182612
    97  C   -0.073583
    98  C    0.131212
    99  C    0.082992
   100  C    0.052631
   101  O   -0.248136
   102  C   -0.009856
   103  N   -0.296490
   104  C    0.020265
   105  C   -0.042679
   106  C   -0.112592
   107  C    0.095896
   108  C    0.041917
   109  C    0.013802
   110  C   -0.088559
   111  N   -0.408845
   112  C    0.114809
   113  C   -0.133325
   114  C    0.022648
   115  C    0.108341
   116  C    0.062400
   117  C    0.079729
   118  O   -0.226712
   119  C   -0.091598
   120  C    0.269317
   121  O   -0.244587
   122  O   -0.346872
   123  C    0.120614
   124  H   -0.007141
   125  H    0.014608
   126  H   -0.002481
   127  H    0.047190
   128  H    0.034069
   129  H    0.047980
   130  H    0.042241
   131  H    0.040975
   132  H    0.041866
   133  H    0.042500
   134  H    0.057817
   135  H    0.038068
   136  H    0.037976
   137  H    0.060568
   138  H    0.053062
   139  H    0.039031
   140  H    0.045826
   141  H    0.075436
   142  H    0.019710
   143  H    0.022948
   144  H    0.050102
   145  H    0.040511
   146  H    0.051536
   147  H    0.036009
   148  H    0.028670
   149  H    0.022225
   150  H    0.034930
   151  H    0.039518
   152  H    0.074287
   153  H    0.055777
   154  H    0.035937
   155  H    0.056763
   156  H    0.046944
   157  H    0.068348
   158  H    0.073645
 Sum of Mulliken charges =  -0.00000

 Dipole moment (field-independent basis, Debye):
    X=             -4.5242    Y=             -2.2953    Z=             -0.9704  Tot=              5.1651
 Quadrupole moment (field-independent basis, Debye-Ang):
   XX=           -548.4985   YY=           -555.4734   ZZ=           -459.3504
   XY=            -30.9433   XZ=            -47.5399   YZ=             -9.5174

 Normal termination of Gaussian 16 at Mon Sep 20 15:53:46 2021.
