 Gaussian 16, Revision A.03,
 Gaussian 16:  ES64L-G16RevA.03 25-Dec-2016

 --------------------------------
 #p wB97XD/Def2SVP td=(nstates=5)
 --------------------------------

 --------------------------------
 TDDFT excited states in gaussian
 --------------------------------
 Symbolic Z-matrix:
 Charge =  0 Multiplicity = 1

                         Standard orientation:
 ---------------------------------------------------------------------
 Center     Atomic      Atomic             Coordinates (Angstroms)
 Number     Number       Type             X           Y           Z
 ---------------------------------------------------------------------
      1         12           0       11.048484    0.721937   -0.076597
      2          6           0       10.878966   -2.751049    0.324538
      3          6           0        8.091191    0.842436    1.712418
      4          6           0       11.298325    4.050452   -0.100516
      5          6           0       14.381072    0.420556   -1.088236
      6          7           0        9.708784   -0.911794    1.116737
      7          6           0        9.803750   -2.250471    1.003604
      8          6           0        8.721244   -2.997667    1.744891
      9          6           0        7.730527   -1.780531    1.891835
     10          6           0        8.523888   -0.507179    1.617079
     11          6           0        6.597346   -1.889721    0.836954
     12          6           0        9.278118   -3.696305    2.991796
     13          6           0       10.332202   -2.983779    3.864548
     14          1           0       10.059903   -2.974289    5.364096
     15          7           0        9.877006    2.221357    0.674490
     16          6           0        8.653355    2.048280    1.265117
     17          6           0        7.913398    3.315566    1.205335
     18          6           0        8.873137    4.336096    0.822870
     19          6           0       10.069996    3.530817    0.431100
     20          6           0        6.482155    3.499384    1.840518
     21          6           0        8.657113    5.851451    0.833008
     22          8           0        7.570983    6.312057    1.049618
     23          6           0        9.799693    6.775217    0.523749
     24          7           0       12.757590    2.038300   -0.344358
     25          6           0       12.598719    3.434413   -0.421633
     26          6           0       13.931359    4.187065   -0.842200
     27          6           0       14.883106    2.952029   -1.212952
     28          6           0       13.937985    1.702435   -0.902804
     29          6           0       13.895759    5.336944   -1.968398
     30          6           0       16.302925    2.872592   -0.487151
     31          6           0       17.403944    2.230225   -1.467522
     32          7           0       12.410895   -0.828545   -0.404154
     33          6           0       13.697819   -0.795693   -0.901489
     34          6           0       14.169447   -2.161145   -1.097404
     35          6           0       13.106474   -3.015180   -0.705402
     36          6           0       12.070523   -2.143945   -0.209521
     37          6           0       15.452274   -2.580336   -1.766370
     38          6           0       12.615283   -4.411236   -0.465443
     39          8           0       13.193405   -5.470928   -0.559943
     40          6           0       11.159999   -4.238953    0.145596
     41          6           0       10.210280   -4.898332   -0.816337
     42          8           0       10.053033   -6.141638   -0.907253
     43          8           0        9.451173   -3.930345   -1.457837
     44          6           0        8.355321   -4.419681   -2.225738
     45          1           0        7.112689    0.878083    2.196038
     46          1           0       11.422733    5.107984   -0.343533
     47          1           0       15.346729    0.340260   -1.591991
     48          1           0        8.207376   -3.709529    1.099183
     49          1           0        7.235644   -1.638578    2.851629
     50          1           0        6.344569   -0.864357    0.565988
     51          1           0        5.776138   -2.494794    1.218544
     52          1           0        6.828732   -2.284081   -0.153010
     53          1           0        9.805216   -4.575430    2.622391
     54          1           0        8.435499   -3.999629    3.613274
     55          1           0       10.379569   -1.934810    3.573152
     56          1           0       11.281648   -3.503237    3.738104
     57          1           0        6.467524    3.597715    2.926316
     58          1           0        5.845455    2.663473    1.550554
     59          1           0        5.891204    4.330179    1.456676
     60          1           0        9.545263    7.817889    0.716795
     61          1           0       10.147772    6.697615   -0.506454
     62          1           0       10.517175    6.505664    1.299227
     63          1           0       14.201322    4.617560    0.121378
     64          1           0       15.077557    2.917069   -2.284509
     65          1           0       13.721253    6.281489   -1.454465
     66          1           0       13.117313    5.149018   -2.707345
     67          1           0       14.850869    5.332786   -2.494010
     68          1           0       16.280819    2.162678    0.339593
     69          1           0       16.601969    3.847266   -0.100763
     70          1           0       17.805868    1.306323   -1.051433
     71          1           0       18.224507    2.934679   -1.600434
     72          1           0       17.094216    1.872582   -2.448885
     73          1           0       16.284918   -2.148355   -1.212246
     74          1           0       15.475663   -2.194610   -2.785795
     75          1           0       15.592387   -3.661114   -1.755392
     76          1           0       11.173634   -4.873648    1.031362
     77          1           0        7.776249   -3.576429   -2.601474
     78          1           0        7.783820   -5.163121   -1.669784
     79          1           0        8.682572   -4.884526   -3.155713
     80         12           0      -11.458662    0.520843   -0.489098
     81          6           0       -9.305180   -2.210595    0.054233
     82          6           0      -14.076890   -1.632909    0.285525
     83          6           0      -13.553436    3.109520   -0.536344
     84          6           0       -8.686300    2.600218   -0.305783
     85          7           0      -11.584473   -1.655360    0.264335
     86          6           0      -10.615692   -2.639292    0.299433
     87          6           0      -11.135152   -4.060433    0.359056
     88          6           0      -12.670424   -3.874361    0.409540
     89          6           0      -12.827918   -2.320261    0.334062
     90          6           0      -13.457239   -4.626632   -0.739185
     91          6           0      -10.630022   -4.952191    1.579611
     92          6           0      -10.324667   -4.245907    2.910598
     93          1           0      -11.351401   -4.385009    4.073372
     94          7           0      -13.484192    0.699579   -0.184175
     95          6           0      -14.389590   -0.293372    0.060840
     96          6           0      -15.751249    0.259672    0.062978
     97          6           0      -15.619583    1.660881   -0.181947
     98          6           0      -14.144677    1.874150   -0.303313
     99          6           0      -17.004205   -0.582641    0.271259
    100          6           0      -16.904088    2.570050   -0.142163
    101          8           0      -17.971655    2.041189    0.134709
    102          6           0      -16.782342    4.136191   -0.364479
    103          7           0      -11.159223    2.522429   -0.303701
    104          6           0      -12.184792    3.440988   -0.515596
    105          6           0      -11.591349    4.959111   -0.590149
    106          6           0      -10.012907    4.668047   -0.345141
    107          6           0       -9.963767    3.174143   -0.325886
    108          6           0      -11.904680    5.660199   -1.944717
    109          6           0       -9.406309    5.291066    0.984568
    110          6           0       -8.131157    6.143462    0.892841
    111          7           0       -9.367638    0.286915   -0.310210
    112          6           0       -8.343894    1.196317   -0.235451
    113          6           0       -7.074918    0.460391   -0.053612
    114          6           0       -7.437721   -0.913213   -0.056805
    115          6           0       -8.856135   -0.932255   -0.168074
    116          6           0       -5.695745    1.033639    0.119876
    117          6           0       -6.873418   -2.264943    0.117047
    118          8           0       -5.710871   -2.690658    0.181185
    119          6           0       -8.089956   -3.169827   -0.009527
    120          6           0       -8.035545   -4.015850   -1.153856
    121          8           0       -8.317454   -3.597633   -2.306647
    122          8           0       -7.673334   -5.332448   -0.806405
    123          6           0       -7.730331   -6.360584   -1.840552
    124          1           0      -14.945863   -2.290635    0.349467
    125          1           0      -14.215864    3.958640   -0.714668
    126          1           0       -7.863617    3.317584   -0.317791
    127          1           0      -10.778651   -4.480399   -0.580732
    128          1           0      -12.959613   -4.121862    1.430278
    129          1           0      -14.031505   -5.446610   -0.308049
    130          1           0      -12.697584   -4.996841   -1.428163
    131          1           0      -14.155987   -3.960134   -1.245878
    132          1           0       -9.684527   -5.327628    1.186170
    133          1           0      -11.315053   -5.789266    1.716229
    134          1           0      -10.164480   -3.179097    2.751030
    135          1           0       -9.354119   -4.593784    3.261847
    136          1           0      -17.449550   -0.501803    1.262865
    137          1           0      -16.860416   -1.597532   -0.099657
    138          1           0      -17.789552   -0.283712   -0.422762
    139          1           0      -16.163569    4.280645   -1.250442
    140          1           0      -16.314480    4.554827    0.526162
    141          1           0      -17.735589    4.663873   -0.333319
    142          1           0      -12.147197    5.531380    0.151980
    143          1           0       -9.486450    5.013665   -1.235088
    144          1           0      -11.043350    5.510471   -2.595376
    145          1           0      -12.189872    6.705398   -1.824467
    146          1           0      -12.789356    5.275061   -2.451517
    147          1           0       -9.271854    4.462784    1.680989
    148          1           0      -10.223082    5.936023    1.308602
    149          1           0       -7.620804    6.221920    1.853174
    150          1           0       -8.523258    7.109364    0.575218
    151          1           0       -7.520702    5.628079    0.151041
    152          1           0       -5.873063    2.020554    0.546408
    153          1           0       -5.366464    1.156931   -0.911841
    154          1           0       -4.985614    0.390849    0.640934
    155          1           0       -8.026881   -3.741710    0.915992
    156          1           0       -7.042768   -6.265271   -2.680994
    157          1           0       -8.740489   -6.424202   -2.246134
    158          1           0       -7.656980   -7.317809   -1.324114
 ---------------------------------------------------------------------

 SCF Done:  E(RwB97XD) =  -4070.59974124     A.U. after   18 cycles

 Excitation energies and oscillator strengths:

 Excited State   1:      Singlet-A      1.6633 eV  745.42 nm  f=0.4454  <S**2>=0.000
     309 -> 316        0.18556
     312 -> 314        0.67869
     309 <- 316        0.11631
 This state for optimization and/or second-order correction.
 Total Energy, E(TD-HF/TD-DFT) =  -4070.53861721
 Copying the excited state density for this state as the 1-particle RhoCI density.

 Excited State   2:      Singlet-A      1.6944 eV  731.72 nm  f=0.2971  <S**2>=0.000
     310 -> 315        0.19792
     311 -> 313        0.67438
     310 <- 315        0.11782

 Excited State   3:      Singlet-A      2.1842 eV  567.64 nm  f=0.1005  <S**2>=0.000
     310 -> 313        0.63341
     311 -> 315       -0.30069

 Excited State   4:      Singlet-A      2.2611 eV  548.34 nm  f=0.0693  <S**2>=0.000
     309 -> 314        0.61514
     312 -> 316       -0.33654

 Excited State   5:      Singlet-A      3.6341 eV  341.17 nm  f=0.0000  <S**2>=0.000
     312 -> 313        0.70692

 The electronic state is 1-A.
 Alpha  occ. eigenvalues --  -46.96643 -46.95336 -19.31126 -19.31085 -19.25263
 Alpha  occ. eigenvalues --  -19.24871 -19.24689 -19.24473 -19.24326 -19.23999
 Alpha  occ. eigenvalues --  -14.47343 -14.46750 -14.46704 -14.46311 -14.45036
 Alpha  occ. eigenvalues --  -14.44615 -14.43950 -14.43948 -10.43953 -10.43735
 Alpha  occ. eigenvalues --  -10.40552 -10.39710 -10.39453 -10.39210 -10.36868
 Alpha  occ. eigenvalues --  -10.36026 -10.35906 -10.35860 -10.35567 -10.35476
 Alpha  occ. eigenvalues --  -10.35076 -10.35061 -10.34862 -10.34666 -10.34633
 Alpha  occ. eigenvalues --  -10.34472 -10.34155 -10.34092 -10.33954 -10.33882
 Alpha  occ. eigenvalues --  -10.33709 -10.33464 -10.33409 -10.33153 -10.33018
 Alpha  occ. eigenvalues --  -10.32944 -10.32613 -10.32567 -10.32486 -10.32408
 Alpha  occ. eigenvalues --  -10.32392 -10.32379 -10.32375 -10.32316 -10.32313
 Alpha  occ. eigenvalues --  -10.32186 -10.32074 -10.32048 -10.31939 -10.31938
 Alpha  occ. eigenvalues --  -10.31865 -10.31804 -10.31725 -10.31665 -10.31664
 Alpha  occ. eigenvalues --  -10.31559 -10.31408 -10.31303 -10.31065 -10.30806
 Alpha  occ. eigenvalues --  -10.30726 -10.30715 -10.30698 -10.30526 -10.30485
 Alpha  occ. eigenvalues --  -10.30177 -10.30166 -10.30062 -10.30051 -10.30050
 Alpha  occ. eigenvalues --  -10.29896 -10.29837 -10.29774 -10.29703 -10.29464
 Alpha  occ. eigenvalues --  -10.29284  -3.22488  -3.21402  -1.96032  -1.95622
 Alpha  occ. eigenvalues --   -1.95438  -1.94947  -1.94541  -1.94377  -1.18508
 Alpha  occ. eigenvalues --   -1.17204  -1.13674  -1.12787  -1.12688  -1.11362
 Alpha  occ. eigenvalues --   -1.09280  -1.09131  -1.06693  -1.06204  -1.05865
 Alpha  occ. eigenvalues --   -1.05649  -1.04859  -1.04656  -1.03953  -1.03814
 Alpha  occ. eigenvalues --   -0.95187  -0.94364  -0.91105  -0.90775  -0.90764
 Alpha  occ. eigenvalues --   -0.90197  -0.90001  -0.89513  -0.89167  -0.88776
 Alpha  occ. eigenvalues --   -0.88069  -0.87886  -0.87590  -0.87579  -0.86655
 Alpha  occ. eigenvalues --   -0.86514  -0.85831  -0.85157  -0.84734  -0.84517
 Alpha  occ. eigenvalues --   -0.83722  -0.83621  -0.83001  -0.82653  -0.82242
 Alpha  occ. eigenvalues --   -0.82098  -0.80146  -0.79402  -0.79210  -0.79124
 Alpha  occ. eigenvalues --   -0.78745  -0.78525  -0.78497  -0.78231  -0.77176
 Alpha  occ. eigenvalues --   -0.76911  -0.74699  -0.74376  -0.73939  -0.73778
 Alpha  occ. eigenvalues --   -0.71766  -0.71285  -0.71240  -0.70921  -0.70413
 Alpha  occ. eigenvalues --   -0.70124  -0.69117  -0.68873  -0.67743  -0.67738
 Alpha  occ. eigenvalues --   -0.67238  -0.66754  -0.66730  -0.66635  -0.66514
 Alpha  occ. eigenvalues --   -0.66237  -0.65586  -0.64490  -0.62293  -0.61988
 Alpha  occ. eigenvalues --   -0.61656  -0.61168  -0.61079  -0.60837  -0.60699
 Alpha  occ. eigenvalues --   -0.60059  -0.59770  -0.59604  -0.59251  -0.59238
 Alpha  occ. eigenvalues --   -0.58174  -0.58160  -0.57917  -0.57586  -0.57376
 Alpha  occ. eigenvalues --   -0.56928  -0.56896  -0.56421  -0.56201  -0.56106
 Alpha  occ. eigenvalues --   -0.55767  -0.55545  -0.55049  -0.55036  -0.54941
 Alpha  occ. eigenvalues --   -0.54666  -0.54540  -0.54350  -0.54106  -0.53743
 Alpha  occ. eigenvalues --   -0.53532  -0.53531  -0.53273  -0.53210  -0.52938
 Alpha  occ. eigenvalues --   -0.52936  -0.52703  -0.52548  -0.52394  -0.52283
 Alpha  occ. eigenvalues --   -0.51995  -0.51905  -0.51817  -0.51581  -0.51411
 Alpha  occ. eigenvalues --   -0.51373  -0.51309  -0.51231  -0.50952  -0.50784
 Alpha  occ. eigenvalues --   -0.50531  -0.50517  -0.50311  -0.50194  -0.50121
 Alpha  occ. eigenvalues --   -0.49393  -0.49323  -0.49237  -0.49164  -0.49086
 Alpha  occ. eigenvalues --   -0.48794  -0.48607  -0.48538  -0.48424  -0.48216
 Alpha  occ. eigenvalues --   -0.48166  -0.48133  -0.47900  -0.47730  -0.47540
 Alpha  occ. eigenvalues --   -0.47341  -0.47332  -0.47153  -0.47026  -0.46946
 Alpha  occ. eigenvalues --   -0.46775  -0.46724  -0.46617  -0.46512  -0.46167
 Alpha  occ. eigenvalues --   -0.46074  -0.45921  -0.45808  -0.45700  -0.45498
 Alpha  occ. eigenvalues --   -0.45309  -0.45206  -0.45144  -0.45074  -0.44930
 Alpha  occ. eigenvalues --   -0.44836  -0.44693  -0.44596  -0.44407  -0.44229
 Alpha  occ. eigenvalues --   -0.44149  -0.44099  -0.44066  -0.43826  -0.43596
 Alpha  occ. eigenvalues --   -0.43553  -0.43041  -0.43005  -0.42533  -0.42190
 Alpha  occ. eigenvalues --   -0.42147  -0.41801  -0.41733  -0.41642  -0.40931
 Alpha  occ. eigenvalues --   -0.40889  -0.40732  -0.39986  -0.39649  -0.39510
 Alpha  occ. eigenvalues --   -0.39252  -0.39206  -0.39119  -0.39034  -0.38694
 Alpha  occ. eigenvalues --   -0.38671  -0.38147  -0.36789  -0.36572  -0.36372
 Alpha  occ. eigenvalues --   -0.36299  -0.35524  -0.35291  -0.33585  -0.33462
 Alpha  occ. eigenvalues --   -0.33283  -0.33145  -0.33080  -0.32830  -0.32726
 Alpha  occ. eigenvalues --   -0.32492  -0.31821  -0.31766  -0.26119  -0.25862
 Alpha  occ. eigenvalues --   -0.23119  -0.22687
 Alpha virt. eigenvalues --   -0.06893  -0.06557  -0.00082   0.00066   0.02278
 Alpha virt. eigenvalues --    0.02287   0.04026   0.04056   0.04240   0.04875
 Alpha virt. eigenvalues --    0.05520   0.06767   0.07445   0.07761   0.07998

 Mulliken charges:
               1
     1  Mg   0.954774
     2  C    0.126633
     3  C   -0.086647
     4  C   -0.103016
     5  C   -0.087031
     6  N   -0.280273
     7  C   -0.106087
     8  C    0.024724
     9  C   -0.115484
    10  C    0.019680
    11  C    0.017947
    12  C    0.021066
    13  C   -0.133057
    14  H    0.032613
    15  N   -0.458793
    16  C    0.175326
    17  C   -0.148251
    18  C   -0.100129
    19  C    0.211828
    20  C    0.047929
    21  C    0.038146
    22  O   -0.200781
    23  C   -0.012837
    24  N   -0.368087
    25  C    0.007623
    26  C   -0.062965
    27  C   -0.084160
    28  C    0.069781
    29  C    0.005027
    30  C   -0.009821
    31  C   -0.094085
    32  N   -0.439646
    33  C    0.138973
    34  C   -0.213655
    35  C   -0.016366
    36  C    0.078717
    37  C    0.071715
    38  C    0.139949
    39  O   -0.173588
    40  C   -0.210873
    41  C    0.295908
    42  O   -0.266935
    43  O   -0.352107
    44  C    0.141194
    45  H    0.007664
    46  H   -0.025311
    47  H   -0.021047
    48  H    0.029866
    49  H    0.028553
    50  H    0.024661
    51  H    0.051187
    52  H    0.027500
    53  H    0.036902
    54  H    0.046523
    55  H    0.070566
    56  H    0.060290
    57  H    0.063201
    58  H    0.026394
    59  H    0.055898
    60  H    0.046706
    61  H    0.080110
    62  H    0.053723
    63  H    0.053576
    64  H    0.040176
    65  H    0.049294
    66  H    0.047503
    67  H    0.050331
    68  H    0.049734
    69  H    0.043816
    70  H    0.038413
    71  H    0.044279
    72  H    0.040061
    73  H    0.037287
    74  H    0.051847
    75  H    0.058800
    76  H    0.085077
    77  H    0.049779
    78  H    0.055310
    79  H    0.046455
    80  Mg   0.987154
    81  C   -0.109004
    82  C   -0.085596
    83  C   -0.110579
    84  C   -0.096005
    85  N   -0.341968
    86  C   -0.038158
    87  C   -0.062533
    88  C   -0.058581
    89  C    0.026676
    90  C    0.027351
    91  C   -0.015114
    92  C   -0.118737
    93  H    0.037044
    94  N   -0.448692
    95  C    0.153379
    96  C   -0.157645
    97  C   -0.113592
    98  C    0.207071
    99  C    0.095240
   100  C    0.069669
   101  O   -0.226419
   102  C   -0.026062
   103  N   -0.421802
   104  C    0.079309
   105  C   -0.103107
   106  C   -0.075674
   107  C    0.085676
   108  C    0.009816
   109  C   -0.024347
   110  C   -0.038093
   111  N   -0.406410
   112  C    0.119645
   113  C   -0.211685
   114  C   -0.096515
   115  C    0.263359
   116  C    0.092476
   117  C    0.145358
   118  O   -0.218469
   119  C   -0.059162
   120  C    0.315728
   121  O   -0.277650
   122  O   -0.382242
   123  C    0.152152
   124  H   -0.009023
   125  H   -0.034978
   126  H   -0.015867
   127  H    0.049470
   128  H    0.045726
   129  H    0.043806
   130  H    0.040424
   131  H    0.046418
   132  H    0.038215
   133  H    0.048435
   134  H    0.063067
   135  H    0.056338
   136  H    0.065511
   137  H    0.023097
   138  H    0.044226
   139  H    0.073609
   140  H    0.060948
   141  H    0.052866
   142  H    0.044512
   143  H    0.036133
   144  H    0.037579
   145  H    0.038613
   146  H    0.031792
   147  H    0.048478
   148  H    0.025190
   149  H    0.051716
   150  H    0.041715
   151  H    0.037630
   152  H    0.034932
   153  H    0.054709
   154  H    0.066228
   155  H    0.059749
   156  H    0.069217
   157  H    0.033927
   158  H    0.052329
 Sum of Mulliken charges =  -0.00000

 Dipole moment (field-independent basis, Debye):
    X=             -1.8587    Y=              6.5459    Z=             -2.7626  Tot=              7.3441
 Quadrupole moment (field-independent basis, Debye-Ang):
   XX=           -495.5053   YY=           -504.4272   ZZ=           -508.7451
   XY=             93.5931   XZ=            -10.3077   YZ=            -12.2778

 Normal termination of Gaussian 16 at Sun Sep 19 20:06:22 2021.
