 Gaussian 16, Revision A.03,
 Gaussian 16:  ES64L-G16RevA.03 25-Dec-2016

 --------------------------------
 #p wB97XD/Def2SVP td=(nstates=5)
 --------------------------------

 --------------------------------
 TDDFT excited states in gaussian
 --------------------------------
 Symbolic Z-matrix:
 Charge =  0 Multiplicity = 1

                         Standard orientation:
 ---------------------------------------------------------------------
 Center     Atomic      Atomic             Coordinates (Angstroms)
 Number     Number       Type             X           Y           Z
 ---------------------------------------------------------------------
      1         12           0       -0.781863    0.070045    0.075375
      2          6           0        2.635631    0.031111    0.109302
      3          6           0       -0.897352   -3.253391   -0.133779
      4          6           0       -4.020842    0.335246   -0.172062
      5          6           0       -0.517543    3.603664   -0.307020
      6          7           0        0.728035   -1.468016   -0.178889
      7          6           0        2.029740   -1.251742    0.135447
      8          6           0        2.747345   -2.531860    0.465621
      9          6           0        1.639511   -3.597351    0.093837
     10          6           0        0.420809   -2.741196   -0.174378
     11          6           0        2.026008   -4.556428   -1.057577
     12          6           0        3.360202   -2.592843    1.994698
     13          6           0        4.806427   -3.074064    2.187323
     14          1           0        5.399131   -3.994048    1.074116
     15          7           0       -2.203847   -1.221705    0.053367
     16          6           0       -2.119352   -2.574560   -0.037962
     17          6           0       -3.402570   -3.216210   -0.189182
     18          6           0       -4.312672   -2.221016    0.002772
     19          6           0       -3.518372   -0.963144   -0.154338
     20          6           0       -3.402533   -4.697045   -0.521893
     21          6           0       -5.846928   -2.322519    0.114017
     22          8           0       -6.582840   -1.369568    0.223738
     23          6           0       -6.369929   -3.726491    0.037127
     24          7           0       -2.048251    1.757712   -0.375746
     25          6           0       -3.375684    1.559532   -0.285144
     26          6           0       -4.134390    2.887169   -0.377307
     27          6           0       -3.016027    3.948322   -0.099837
     28          6           0       -1.763422    3.069834   -0.296025
     29          6           0       -4.970288    3.189960   -1.693104
     30          6           0       -2.992860    4.579736    1.343043
     31          6           0       -2.842612    3.753275    2.593095
     32          7           0        0.688650    1.607675    0.007780
     33          6           0        0.683129    2.984169   -0.239968
     34          6           0        2.043031    3.538257   -0.245444
     35          6           0        2.853698    2.402482   -0.100282
     36          6           0        1.961495    1.294268    0.048175
     37          6           0        2.464238    4.983269   -0.323214
     38          6           0        4.161131    1.931813   -0.034541
     39          8           0        5.249966    2.474423   -0.139960
     40          6           0        4.087229    0.428331    0.337798
     41          6           0        5.042677   -0.183547   -0.613947
     42          8           0        4.807495   -0.442436   -1.796694
     43          8           0        6.276858   -0.327761   -0.049406
     44          6           0        7.429422   -0.631770   -0.903387
     45          1           0       -0.901594   -4.338021   -0.005472
     46          1           0       -5.098563    0.504412   -0.201672
     47          1           0       -0.589090    4.691107   -0.386450
     48          1           0        3.554879   -2.713464   -0.243693
     49          1           0        1.394974   -4.174960    0.985015
     50          1           0        1.510120   -4.243018   -1.965092
     51          1           0        1.684810   -5.559182   -0.800296
     52          1           0        3.107190   -4.480055   -1.173584
     53          1           0        2.686625   -3.259238    2.533643
     54          1           0        3.354018   -1.601918    2.447611
     55          1           0        4.876443   -3.711459    3.068356
     56          1           0        5.453067   -2.222573    2.398930
     57          1           0       -2.921295   -4.960577   -1.463862
     58          1           0       -4.333397   -5.208878   -0.765330
     59          1           0       -2.953114   -5.109086    0.381647
     60          1           0       -5.908548   -4.351403    0.801427
     61          1           0       -6.173758   -3.978785   -1.004764
     62          1           0       -7.423595   -3.907145    0.246832
     63          1           0       -4.861722    2.778523    0.428023
     64          1           0       -3.026205    4.683714   -0.904628
     65          1           0       -4.884723    2.347142   -2.378565
     66          1           0       -4.522383    4.008810   -2.254849
     67          1           0       -6.020301    3.451408   -1.553299
     68          1           0       -3.950308    5.100975    1.324097
     69          1           0       -2.199890    5.318299    1.456220
     70          1           0       -2.920340    2.694770    2.341431
     71          1           0       -3.651229    3.967151    3.291855
     72          1           0       -1.885815    3.823613    3.110101
     73          1           0        2.901609    5.237368   -1.287722
     74          1           0        3.175133    5.202902    0.473517
     75          1           0        1.515134    5.516530   -0.263523
     76          1           0        4.311210    0.258531    1.391096
     77          1           0        8.368124   -0.291030   -0.464945
     78          1           0        7.259602   -0.337481   -1.937950
     79          1           0        7.562147   -1.701973   -1.060915
 ---------------------------------------------------------------------

 SCF Done:  E(RwB97XD) =  -2035.29807758     A.U. after   20 cycles

 Excitation energies and oscillator strengths:

 Excited State   1:      Singlet-A      1.7217 eV  720.13 nm  f=0.3740  <S**2>=0.000
     155 ->158        -0.19596
     156 ->157         0.67979
     155 <-158        -0.11420
 This state for optimization and/or second-order correction.
 Total Energy, E(TD-HF/TD-DFT) =  -2035.23480688
 Copying the excited state density for this state as the 1-particle RhoCI density.

 Excited State   2:      Singlet-A      2.2243 eV  557.42 nm  f=0.0566  <S**2>=0.000
     155 ->157         0.61464
     156 ->158         0.33872

 Excited State   3:      Singlet-A      3.4333 eV  361.13 nm  f=0.6428  <S**2>=0.000
     154 ->157        -0.11443
     155 ->157        -0.32256
     156 ->158         0.60124
     155 <-157         0.11170

 Excited State   4:      Singlet-A      3.6172 eV  342.76 nm  f=0.0243  <S**2>=0.000
     153 ->157         0.53341
     153 ->159         0.30398
     153 ->160        -0.26533

 Excited State   5:      Singlet-A      3.7727 eV  328.63 nm  f=0.0454  <S**2>=0.000
     151 ->157        -0.27631
     151 ->159         0.14234
     152 ->157        -0.20073
     154 ->157         0.53314
     155 ->158         0.10340
     156 ->159         0.16286

 The electronic state is 1-A.
 Alpha  occ. eigenvalues --  -46.94308 -19.29123 -19.24991 -19.23278 -19.22685
 Alpha  occ. eigenvalues --  -14.46286 -14.45637 -14.44650 -14.43328 -10.42096
 Alpha  occ. eigenvalues --  -10.39961 -10.37521 -10.34943 -10.34624 -10.34455
 Alpha  occ. eigenvalues --  -10.34387 -10.34296 -10.34240 -10.33120 -10.32996
 Alpha  occ. eigenvalues --  -10.32907 -10.32669 -10.32017 -10.31997 -10.31912
 Alpha  occ. eigenvalues --  -10.31893 -10.31749 -10.31725 -10.31649 -10.31606
 Alpha  occ. eigenvalues --  -10.31537 -10.31390 -10.31357 -10.30579 -10.30418
 Alpha  occ. eigenvalues --  -10.30189 -10.29909 -10.29908 -10.29740 -10.29622
 Alpha  occ. eigenvalues --  -10.29014 -10.29009 -10.28057  -3.20567  -1.94129
 Alpha  occ. eigenvalues --   -1.93712  -1.93577  -1.17002  -1.13783  -1.11212
 Alpha  occ. eigenvalues --   -1.08097  -1.07646  -1.06758  -1.06112  -1.05015
 Alpha  occ. eigenvalues --   -0.94312  -0.91610  -0.90355  -0.89895  -0.89855
 Alpha  occ. eigenvalues --   -0.89395  -0.88486  -0.86292  -0.85477  -0.84640
 Alpha  occ. eigenvalues --   -0.84500  -0.82994  -0.82486  -0.81013  -0.79379
 Alpha  occ. eigenvalues --   -0.78896  -0.77631  -0.77140  -0.74617  -0.73669
 Alpha  occ. eigenvalues --   -0.71562  -0.71013  -0.70126  -0.69318  -0.67347
 Alpha  occ. eigenvalues --   -0.66908  -0.66751  -0.65749  -0.63698  -0.63163
 Alpha  occ. eigenvalues --   -0.61293  -0.61269  -0.59878  -0.59794  -0.59532
 Alpha  occ. eigenvalues --   -0.58330  -0.57236  -0.57093  -0.56588  -0.56402
 Alpha  occ. eigenvalues --   -0.55597  -0.55120  -0.54595  -0.54564  -0.54339
 Alpha  occ. eigenvalues --   -0.54179  -0.53605  -0.53196  -0.52535  -0.52421
 Alpha  occ. eigenvalues --   -0.52136  -0.51495  -0.51259  -0.51011  -0.50720
 Alpha  occ. eigenvalues --   -0.50488  -0.50017  -0.49942  -0.49718  -0.49097
 Alpha  occ. eigenvalues --   -0.48747  -0.48580  -0.48433  -0.47621  -0.47402
 Alpha  occ. eigenvalues --   -0.47146  -0.46770  -0.46455  -0.46076  -0.45806
 Alpha  occ. eigenvalues --   -0.45767  -0.45510  -0.45073  -0.44843  -0.44800
 Alpha  occ. eigenvalues --   -0.44376  -0.44068  -0.43783  -0.43511  -0.43157
 Alpha  occ. eigenvalues --   -0.42984  -0.42694  -0.42451  -0.41495  -0.41115
 Alpha  occ. eigenvalues --   -0.40382  -0.40098  -0.39030  -0.38422  -0.38308
 Alpha  occ. eigenvalues --   -0.37142  -0.36343  -0.35440  -0.34950  -0.34641
 Alpha  occ. eigenvalues --   -0.33411  -0.32933  -0.32065  -0.31863  -0.25765
 Alpha  occ. eigenvalues --   -0.22433
 Alpha virt. eigenvalues --   -0.06169   0.00152   0.02296   0.04580   0.05871
 Alpha virt. eigenvalues --    0.07567   0.08486   0.08857   0.09781   0.10881
 Alpha virt. eigenvalues --    0.12075   0.12285   0.12789   0.13344   0.14114

 Mulliken charges:
               1
     1  Mg   0.993007
     2  C    0.010938
     3  C   -0.117737
     4  C   -0.080834
     5  C   -0.116939
     6  N   -0.330556
     7  C   -0.016998
     8  C   -0.037144
     9  C   -0.153978
    10  C    0.076238
    11  C    0.047328
    12  C    0.007308
    13  C   -0.126131
    14  H    0.026430
    15  N   -0.509898
    16  C    0.180146
    17  C   -0.131425
    18  C   -0.119632
    19  C    0.182740
    20  C    0.046421
    21  C    0.071577
    22  O   -0.201875
    23  C   -0.025025
    24  N   -0.321206
    25  C    0.020922
    26  C   -0.086012
    27  C   -0.050209
    28  C   -0.008411
    29  C    0.024210
    30  C   -0.010759
    31  C   -0.046773
    32  N   -0.398832
    33  C    0.159998
    34  C   -0.186983
    35  C    0.034866
    36  C    0.091403
    37  C    0.104697
    38  C    0.050681
    39  O   -0.214249
    40  C   -0.074655
    41  C    0.264526
    42  O   -0.268198
    43  O   -0.355821
    44  C    0.151794
    45  H   -0.008475
    46  H    0.016467
    47  H   -0.010518
    48  H    0.043140
    49  H    0.031870
    50  H    0.045737
    51  H    0.038576
    52  H    0.045937
    53  H    0.033219
    54  H    0.041138
    55  H    0.049113
    56  H    0.062569
    57  H    0.060489
    58  H    0.029650
    59  H    0.066517
    60  H    0.061459
    61  H    0.069362
    62  H    0.048020
    63  H    0.035048
    64  H    0.029216
    65  H    0.038299
    66  H    0.025931
    67  H    0.050237
    68  H    0.032280
    69  H    0.032296
    70  H    0.028539
    71  H    0.041160
    72  H    0.043826
    73  H    0.059462
    74  H    0.063952
    75  H    0.019701
    76  H    0.072664
    77  H    0.061564
    78  H    0.057182
    79  H    0.029423
 Sum of Mulliken charges =  -0.00000

 Dipole moment (field-independent basis, Debye):
    X=             -3.2312    Y=             -3.8762    Z=              2.3365  Tot=              5.5610
 Quadrupole moment (field-independent basis, Debye-Ang):
   XX=           -271.1808   YY=           -221.1832   ZZ=           -254.4372
   XY=             -9.9716   XZ=             10.6196   YZ=             -0.6299

 Normal termination of Gaussian 16 at Sat Sep 18 13:46:28 2021.
