 Gaussian 16, Revision A.03,
 Gaussian 16:  ES64L-G16RevA.03 25-Dec-2016

 --------------------------------
 #p wB97XD/Def2SVP td=(nstates=5)
 --------------------------------

 --------------------------------
 TDDFT excited states in gaussian
 --------------------------------
 Symbolic Z-matrix:
 Charge =  0 Multiplicity = 1

                         Standard orientation:
 ---------------------------------------------------------------------
 Center     Atomic      Atomic             Coordinates (Angstroms)
 Number     Number       Type             X           Y           Z
 ---------------------------------------------------------------------
      1         12           0      -28.511743    0.509827   -0.672606
      2          6           0      -27.897444   -2.527473    1.285671
      3          6           0      -26.998062    2.258279    1.959431
      4          6           0      -29.334396    3.281566   -2.178688
      5          6           0      -29.788327   -1.422015   -3.202477
      6          7           0      -27.759001   -0.036129    1.443739
      7          6           0      -27.473895   -1.352679    2.000798
      8          6           0      -26.831380   -1.309541    3.403841
      9          6           0      -26.771328    0.312787    3.615845
     10          6           0      -27.211997    0.931785    2.274869
     11          6           0      -27.587710    0.806263    4.794536
     12          6           0      -25.479735   -2.085749    3.412964
     13          6           0      -24.622043   -1.867735    4.623055
     14          1           0      -23.945544   -3.046689    5.286445
     15          7           0      -28.238695    2.539670   -0.186329
     16          6           0      -27.586388    3.070097    0.932478
     17          6           0      -27.564535    4.528973    0.843660
     18          6           0      -28.252983    4.867616   -0.392582
     19          6           0      -28.660145    3.552175   -1.011402
     20          6           0      -26.837398    5.483472    1.860367
     21          6           0      -28.598349    6.180086   -0.998498
     22          8           0      -29.161178    6.329676   -2.074879
     23          6           0      -28.155989    7.428452   -0.354859
     24          7           0      -29.320894    0.872236   -2.426731
     25          6           0      -29.687972    2.098023   -2.804882
     26          6           0      -30.380616    2.114364   -4.187740
     27          6           0      -30.108944    0.702529   -4.664139
     28          6           0      -29.768295   -0.051016   -3.320355
     29          6           0      -31.867028    2.443765   -4.112865
     30          6           0      -29.083856    0.377515   -5.719594
     31          6           0      -27.660306    0.713676   -5.329688
     32          7           0      -28.893845   -1.523617   -0.911052
     33          6           0      -29.339685   -2.169887   -2.078106
     34          6           0      -29.383386   -3.590971   -1.836302
     35          6           0      -28.755292   -3.706486   -0.569529
     36          6           0      -28.484490   -2.434673   -0.029713
     37          6           0      -29.780238   -4.690320   -2.777836
     38          6           0      -28.268556   -4.754526    0.380108
     39          8           0      -28.200275   -5.996786    0.263199
     40          6           0      -27.742317   -3.996459    1.596798
     41          6           0      -28.454613   -4.478356    2.862391
     42          8           0      -29.673763   -4.398056    3.195712
     43          8           0      -27.487526   -4.920375    3.716043
     44          6           0      -27.958827   -5.358878    5.049253
     45          1           0      -26.353374    2.771622    2.674526
     46          1           0      -29.675709    4.195559   -2.669076
     47          1           0      -30.204337   -2.096745   -3.953717
     48          1           0      -27.510330   -1.874529    4.042455
     49          1           0      -25.727641    0.618632    3.688774
     50          1           0      -26.921840    1.330486    5.480632
     51          1           0      -27.982409   -0.082293    5.285984
     52          1           0      -28.541691    1.287911    4.581068
     53          1           0      -25.011349   -1.864048    2.453397
     54          1           0      -25.694666   -3.152841    3.354919
     55          1           0      -25.103349   -1.434095    5.499338
     56          1           0      -23.762845   -1.257567    4.346023
     57          1           0      -26.069946    5.982535    1.268006
     58          1           0      -26.355182    4.955556    2.682949
     59          1           0      -27.598256    6.175208    2.222110
     60          1           0      -28.293805    7.440069    0.726528
     61          1           0      -28.789479    8.187678   -0.812168
     62          1           0      -27.074957    7.419094   -0.490714
     63          1           0      -29.888242    2.885646   -4.780126
     64          1           0      -30.992015    0.243491   -5.109519
     65          1           0      -32.115842    3.103305   -4.943448
     66          1           0      -32.112339    2.953017   -3.181495
     67          1           0      -32.461048    1.551717   -4.314817
     68          1           0      -29.402340    0.848122   -6.650160
     69          1           0      -29.003744   -0.699362   -5.867053
     70          1           0      -27.129717    1.231937   -6.127583
     71          1           0      -27.053734   -0.172938   -5.143705
     72          1           0      -27.574095    1.358814   -4.455261
     73          1           0      -28.989204   -5.438666   -2.819596
     74          1           0      -30.027185   -4.472202   -3.816818
     75          1           0      -30.674532   -5.153837   -2.360790
     76          1           0      -26.695724   -4.268105    1.737389
     77          1           0      -27.781616   -4.569886    5.779840
     78          1           0      -27.363961   -6.267415    5.143147
     79          1           0      -28.993727   -5.703075    5.033182
     80         12           0       29.088788   -0.307838    0.053990
     81          6           0       26.100329    1.271701    1.037663
     82          6           0       27.123768   -3.018433   -0.886850
     83          6           0       31.770389   -1.728723   -1.317749
     84          6           0       30.644600    2.790711    0.201751
     85          7           0       26.816780   -0.690453   -0.050571
     86          6           0       25.771479    0.016175    0.511490
     87          6           0       24.484352   -0.761057    0.691070
     88          6           0       24.821863   -2.147821    0.093404
     89          6           0       26.318189   -1.981416   -0.329735
     90          6           0       24.596933   -3.359035    1.086844
     91          6           0       23.181782   -0.148663    0.006653
     92          6           0       23.359171    0.650259   -1.294831
     93          1           0       22.959585   -0.028234   -2.638541
     94          7           0       29.391688   -2.087287   -0.930647
     95          6           0       28.487903   -3.084247   -1.165112
     96          6           0       29.164198   -4.242192   -1.766581
     97          6           0       30.540507   -3.883274   -1.899487
     98          6           0       30.607114   -2.486359   -1.370568
     99          6           0       28.454405   -5.542765   -2.123616
    100          6           0       31.527927   -4.881959   -2.610649
    101          8           0       31.066260   -5.922529   -3.058006
    102          6           0       33.051959   -4.490715   -2.813876
    103          7           0       30.862026    0.454266   -0.582568
    104          6           0       31.912256   -0.367586   -0.985082
    105          6           0       33.286334    0.495902   -1.154584
    106          6           0       32.746427    1.980564   -0.779748
    107          6           0       31.337976    1.710235   -0.358175
    108          6           0       34.433133   -0.013870   -0.232879
    109          6           0       32.810998    3.043859   -1.958509
    110          6           0       33.488479    4.398984   -1.702266
    111          7           0       28.564194    1.652164    0.639051
    112          6           0       29.268632    2.828750    0.647161
    113          6           0       28.370555    3.910167    1.104267
    114          6           0       27.130519    3.273149    1.378026
    115          6           0       27.316886    1.908074    1.022384
    116          6           0       28.685880    5.374593    1.234098
    117          6           0       25.742463    3.558646    1.787451
    118          8           0       25.186338    4.575129    2.228301
    119          6           0       25.082315    2.188112    1.762093
    120          6           0       24.669357    1.747196    3.051768
    121          8           0       25.480355    1.260631    3.881734
    122          8           0       23.279628    1.897640    3.228879
    123          6           0       22.672581    1.342814    4.434464
    124          1           0       26.589786   -3.958063   -1.041007
    125          1           0       32.701744   -2.215713   -1.612759
    126          1           0       31.222333    3.713810    0.277107
    127          1           0       24.365399   -0.771423    1.773849
    128          1           0       24.281909   -2.196092   -0.851537
    129          1           0       23.753388   -3.957673    0.743202
    130          1           0       24.392877   -2.912518    2.060396
    131          1           0       25.472110   -4.008326    1.127986
    132          1           0       22.851775    0.551109    0.775499
    133          1           0       22.434150   -0.934645   -0.102458
    134          1           0       24.390941    0.987048   -1.400794
    135          1           0       22.801993    1.581088   -1.197518
    136          1           0       28.249463   -5.674747   -3.186032
    137          1           0       27.613486   -5.726788   -1.454850
    138          1           0       29.059120   -6.403166   -1.837566
    139          1           0       33.411602   -4.118904   -1.854141
    140          1           0       33.089218   -3.720471   -3.583764
    141          1           0       33.646779   -5.263064   -3.301488
    142          1           0       33.637425    0.298504   -2.166998
    143          1           0       33.306272    2.307993    0.096595
    144          1           0       34.410319    0.585891    0.676754
    145          1           0       35.403153   -0.023860   -0.730067
    146          1           0       34.347350   -1.064065    0.045620
    147          1           0       31.787291    3.180226   -2.308594
    148          1           0       33.401059    2.504101   -2.699167
    149          1           0       33.179414    5.154723   -2.424896
    150          1           0       34.543949    4.153062   -1.816721
    151          1           0       33.184021    4.659955   -0.688490
    152          1           0       29.485926    5.536191    0.512167
    153          1           0       29.108718    5.430767    2.237153
    154          1           0       27.826699    6.043558    1.176986
    155          1           0       24.229728    2.374736    1.109497
    156          1           0       22.962926    1.780912    5.389419
    157          1           0       22.868071    0.271513    4.489790
    158          1           0       21.595967    1.345357    4.263394
 ---------------------------------------------------------------------

 SCF Done:  E(RwB97XD) =  -4070.61291083     A.U. after   19 cycles

 Excitation energies and oscillator strengths:

 Excited State   1:      Singlet-A      1.6109 eV  769.65 nm  f=0.3957  <S**2>=0.000
     309 -> 316        0.17049
     311 -> 313        0.68653
     309 <- 316        0.11383
 This state for optimization and/or second-order correction.
 Total Energy, E(TD-HF/TD-DFT) =  -4070.55371038
 Copying the excited state density for this state as the 1-particle RhoCI density.

 Excited State   2:      Singlet-A      1.6637 eV  745.21 nm  f=0.3765  <S**2>=0.000
     310 -> 315        0.18689
     312 -> 314        0.68288
     310 <- 315        0.11707

 Excited State   3:      Singlet-A      2.1162 eV  585.88 nm  f=0.1336  <S**2>=0.000
     309 -> 313        0.64978
     311 -> 316       -0.25752

 Excited State   4:      Singlet-A      2.2612 eV  548.30 nm  f=0.0697  <S**2>=0.000
     310 -> 314        0.61505
     312 -> 315       -0.33672

 Excited State   5:      Singlet-A      3.2646 eV  379.79 nm  f=0.0056  <S**2>=0.000
     304 -> 313       -0.31855
     308 -> 313        0.60957

 The electronic state is 1-A.
 Alpha  occ. eigenvalues --  -46.95304 -46.94110 -19.31045 -19.30984 -19.25222
 Alpha  occ. eigenvalues --  -19.24664 -19.24608 -19.24278 -19.23856 -19.23493
 Alpha  occ. eigenvalues --  -14.47311 -14.47147 -14.46779 -14.46679 -14.44617
 Alpha  occ. eigenvalues --  -14.44580 -14.43915 -14.43430 -10.43912 -10.43824
 Alpha  occ. eigenvalues --  -10.40526 -10.39406 -10.38741 -10.38646 -10.36016
 Alpha  occ. eigenvalues --  -10.35993 -10.35867 -10.35645 -10.35578 -10.35519
 Alpha  occ. eigenvalues --  -10.35441 -10.35158 -10.35026 -10.34805 -10.34748
 Alpha  occ. eigenvalues --  -10.34638 -10.34602 -10.34599 -10.34124 -10.33918
 Alpha  occ. eigenvalues --  -10.33383 -10.33216 -10.33034 -10.32995 -10.32990
 Alpha  occ. eigenvalues --  -10.32915 -10.32882 -10.32625 -10.32604 -10.32596
 Alpha  occ. eigenvalues --  -10.32580 -10.32538 -10.32451 -10.32378 -10.32367
 Alpha  occ. eigenvalues --  -10.32283 -10.32149 -10.31905 -10.31825 -10.31633
 Alpha  occ. eigenvalues --  -10.31619 -10.31566 -10.31422 -10.31379 -10.31272
 Alpha  occ. eigenvalues --  -10.31042 -10.31011 -10.30995 -10.30792 -10.30775
 Alpha  occ. eigenvalues --  -10.30700 -10.30684 -10.30505 -10.30460 -10.30146
 Alpha  occ. eigenvalues --  -10.29878 -10.29800 -10.29795 -10.29738 -10.29720
 Alpha  occ. eigenvalues --  -10.29559 -10.29489 -10.29437 -10.29247 -10.28700
 Alpha  occ. eigenvalues --  -10.28365  -3.21370  -3.20266  -1.94915  -1.94509
 Alpha  occ. eigenvalues --   -1.94344  -1.93865  -1.93404  -1.93244  -1.18182
 Alpha  occ. eigenvalues --   -1.17163  -1.12663  -1.12654  -1.11313  -1.09995
 Alpha  occ. eigenvalues --   -1.09239  -1.07952  -1.07057  -1.06171  -1.05615
 Alpha  occ. eigenvalues --   -1.04809  -1.04626  -1.04359  -1.03922  -1.02617
 Alpha  occ. eigenvalues --   -0.95150  -0.94253  -0.91555  -0.91077  -0.90825
 Alpha  occ. eigenvalues --   -0.90734  -0.90562  -0.89973  -0.89267  -0.88999
 Alpha  occ. eigenvalues --   -0.88744  -0.88032  -0.87798  -0.87556  -0.86680
 Alpha  occ. eigenvalues --   -0.86479  -0.85932  -0.85803  -0.84864  -0.84706
 Alpha  occ. eigenvalues --   -0.84283  -0.83592  -0.83371  -0.82972  -0.82065
 Alpha  occ. eigenvalues --   -0.82046  -0.80531  -0.80114  -0.79190  -0.79176
 Alpha  occ. eigenvalues --   -0.78716  -0.78712  -0.78465  -0.77892  -0.77452
 Alpha  occ. eigenvalues --   -0.76879  -0.74739  -0.74340  -0.73923  -0.73747
 Alpha  occ. eigenvalues --   -0.72215  -0.71410  -0.71254  -0.70890  -0.70387
 Alpha  occ. eigenvalues --   -0.69630  -0.69170  -0.68844  -0.67710  -0.67207
 Alpha  occ. eigenvalues --   -0.67045  -0.66664  -0.66602  -0.66279  -0.66205
 Alpha  occ. eigenvalues --   -0.65809  -0.64454  -0.63918  -0.62259  -0.62252
 Alpha  occ. eigenvalues --   -0.61619  -0.61152  -0.61083  -0.61047  -0.60664
 Alpha  occ. eigenvalues --   -0.60296  -0.59739  -0.59675  -0.59393  -0.59219
 Alpha  occ. eigenvalues --   -0.58305  -0.58129  -0.57873  -0.57551  -0.57464
 Alpha  occ. eigenvalues --   -0.57223  -0.56900  -0.56719  -0.56384  -0.56236
 Alpha  occ. eigenvalues --   -0.56169  -0.55733  -0.55436  -0.55044  -0.55006
 Alpha  occ. eigenvalues --   -0.54707  -0.54516  -0.54402  -0.54319  -0.54095
 Alpha  occ. eigenvalues --   -0.54074  -0.53503  -0.53173  -0.53083  -0.52902
 Alpha  occ. eigenvalues --   -0.52803  -0.52707  -0.52673  -0.52299  -0.52254
 Alpha  occ. eigenvalues --   -0.52104  -0.51962  -0.51700  -0.51529  -0.51337
 Alpha  occ. eigenvalues --   -0.51272  -0.51202  -0.50922  -0.50752  -0.50727
 Alpha  occ. eigenvalues --   -0.50545  -0.50496  -0.50425  -0.50282  -0.50091
 Alpha  occ. eigenvalues --   -0.50036  -0.49667  -0.49544  -0.49288  -0.49209
 Alpha  occ. eigenvalues --   -0.48928  -0.48700  -0.48568  -0.48439  -0.48395
 Alpha  occ. eigenvalues --   -0.48185  -0.48099  -0.48093  -0.47935  -0.47698
 Alpha  occ. eigenvalues --   -0.47590  -0.47386  -0.47312  -0.46914  -0.46829
 Alpha  occ. eigenvalues --   -0.46742  -0.46588  -0.46483  -0.46477  -0.46272
 Alpha  occ. eigenvalues --   -0.46138  -0.46111  -0.45888  -0.45858  -0.45386
 Alpha  occ. eigenvalues --   -0.45174  -0.45160  -0.45033  -0.44899  -0.44664
 Alpha  occ. eigenvalues --   -0.44602  -0.44467  -0.44372  -0.44194  -0.44128
 Alpha  occ. eigenvalues --   -0.44066  -0.43849  -0.43727  -0.43565  -0.43232
 Alpha  occ. eigenvalues --   -0.42975  -0.42828  -0.42505  -0.42401  -0.42163
 Alpha  occ. eigenvalues --   -0.41881  -0.41779  -0.41615  -0.41157  -0.41001
 Alpha  occ. eigenvalues --   -0.40860  -0.40799  -0.39617  -0.39478  -0.39314
 Alpha  occ. eigenvalues --   -0.39173  -0.39144  -0.39003  -0.38794  -0.38659
 Alpha  occ. eigenvalues --   -0.38480  -0.38112  -0.36758  -0.36331  -0.36305
 Alpha  occ. eigenvalues --   -0.36064  -0.35491  -0.35302  -0.33729  -0.33554
 Alpha  occ. eigenvalues --   -0.33261  -0.33253  -0.33035  -0.32591  -0.32461
 Alpha  occ. eigenvalues --   -0.32295  -0.31782  -0.31296  -0.26184  -0.26086
 Alpha  occ. eigenvalues --   -0.23286  -0.22654
 Alpha virt. eigenvalues --   -0.07655  -0.06523   0.00096   0.00253   0.02325
 Alpha virt. eigenvalues --    0.02369   0.04088   0.04296   0.04906   0.05561
 Alpha virt. eigenvalues --    0.06252   0.06682   0.07475   0.07691   0.07788

 Mulliken charges:
               1
     1  Mg   0.974958
     2  C   -0.025764
     3  C   -0.091711
     4  C   -0.091353
     5  C   -0.077688
     6  N   -0.366155
     7  C   -0.005819
     8  C   -0.064757
     9  C   -0.111839
    10  C    0.088971
    11  C    0.051908
    12  C   -0.005979
    13  C   -0.128090
    14  H    0.029124
    15  N   -0.467434
    16  C    0.163116
    17  C   -0.170441
    18  C   -0.057342
    19  C    0.152270
    20  C    0.067259
    21  C    0.021973
    22  O   -0.243507
    23  C    0.002044
    24  N   -0.422505
    25  C    0.103855
    26  C   -0.088147
    27  C   -0.066118
    28  C    0.109792
    29  C    0.042978
    30  C    0.010238
    31  C   -0.067774
    32  N   -0.449651
    33  C    0.078931
    34  C   -0.151493
    35  C   -0.101618
    36  C    0.167258
    37  C    0.064806
    38  C    0.158543
    39  O   -0.236417
    40  C   -0.063539
    41  C    0.279017
    42  O   -0.286775
    43  O   -0.366300
    44  C    0.125362
    45  H   -0.007282
    46  H    0.021596
    47  H    0.001288
    48  H    0.052006
    49  H    0.035099
    50  H    0.045590
    51  H    0.021893
    52  H    0.048112
    53  H    0.034821
    54  H    0.058200
    55  H    0.052516
    56  H    0.055223
    57  H    0.061420
    58  H    0.044207
    59  H    0.067026
    60  H    0.027147
    61  H    0.066564
    62  H    0.059708
    63  H    0.041429
    64  H    0.013868
    65  H    0.035654
    66  H    0.048284
    67  H    0.036546
    68  H    0.035165
    69  H    0.029063
    70  H    0.029061
    71  H    0.034944
    72  H    0.040794
    73  H    0.061480
    74  H    0.026457
    75  H    0.055492
    76  H    0.079594
    77  H    0.065866
    78  H    0.060826
    79  H    0.076157
    80  Mg   0.986961
    81  C   -0.108762
    82  C   -0.085571
    83  C   -0.110557
    84  C   -0.096009
    85  N   -0.341871
    86  C   -0.038579
    87  C   -0.062215
    88  C   -0.058554
    89  C    0.026506
    90  C    0.027368
    91  C   -0.015272
    92  C   -0.118647
    93  H    0.036871
    94  N   -0.448457
    95  C    0.153493
    96  C   -0.157758
    97  C   -0.113634
    98  C    0.206756
    99  C    0.095428
   100  C    0.069700
   101  O   -0.226570
   102  C   -0.026122
   103  N   -0.421965
   104  C    0.079376
   105  C   -0.103143
   106  C   -0.075595
   107  C    0.085679
   108  C    0.009842
   109  C   -0.024320
   110  C   -0.038126
   111  N   -0.406532
   112  C    0.119677
   113  C   -0.211641
   114  C   -0.096367
   115  C    0.263435
   116  C    0.092525
   117  C    0.145481
   118  O   -0.217896
   119  C   -0.059185
   120  C    0.315709
   121  O   -0.277622
   122  O   -0.382210
   123  C    0.152229
   124  H   -0.009109
   125  H   -0.035063
   126  H   -0.015870
   127  H    0.049456
   128  H    0.045656
   129  H    0.043695
   130  H    0.040413
   131  H    0.046397
   132  H    0.038364
   133  H    0.048317
   134  H    0.063096
   135  H    0.056391
   136  H    0.065392
   137  H    0.023021
   138  H    0.044098
   139  H    0.073645
   140  H    0.060923
   141  H    0.052796
   142  H    0.044442
   143  H    0.036130
   144  H    0.037589
   145  H    0.038527
   146  H    0.031789
   147  H    0.048512
   148  H    0.025126
   149  H    0.051620
   150  H    0.041632
   151  H    0.037701
   152  H    0.034747
   153  H    0.054934
   154  H    0.066660
   155  H    0.059760
   156  H    0.069369
   157  H    0.033795
   158  H    0.052194
 Sum of Mulliken charges =  -0.00000

 Dipole moment (field-independent basis, Debye):
    X=              4.9356    Y=              2.8123    Z=              1.6229  Tot=              5.9078
 Quadrupole moment (field-independent basis, Debye-Ang):
   XX=           -522.0972   YY=           -561.3704   ZZ=           -484.8446
   XY=           -135.0031   XZ=            -49.5127   YZ=             -8.0163

 Normal termination of Gaussian 16 at Sun Sep 19 02:35:10 2021.
