 Gaussian 16, Revision A.03,
 Gaussian 16:  ES64L-G16RevA.03 25-Dec-2016

 --------------------------------
 #p wB97XD/Def2SVP td=(nstates=5)
 --------------------------------

 --------------------------------
 TDDFT excited states in gaussian
 --------------------------------
 Symbolic Z-matrix:
 Charge =  0 Multiplicity = 1

                         Standard orientation:
 ---------------------------------------------------------------------
 Center     Atomic      Atomic             Coordinates (Angstroms)
 Number     Number       Type             X           Y           Z
 ---------------------------------------------------------------------
      1         12           0      -11.535608    0.087141   -0.594741
      2          6           0       -8.283307   -1.150207    0.264279
      3          6           0      -12.747260   -3.186469   -0.016427
      4          6           0      -14.652318    1.330167   -0.630710
      5          6           0      -10.256721    3.289708   -0.448490
      6          7           0      -10.629584   -1.969459    0.044990
      7          6           0       -9.306603   -2.129635    0.348703
      8          6           0       -9.096777   -3.478619    1.018079
      9          6           0      -10.478786   -4.152509    0.629094
     10          6           0      -11.397002   -3.077970    0.186080
     11          6           0      -10.444888   -5.287819   -0.448480
     12          6           0       -8.734441   -3.280115    2.524879
     13          6           0       -7.552151   -4.114816    3.168498
     14          1           0       -7.845751   -5.084518    4.327310
     15          7           0      -13.380319   -0.759973   -0.552733
     16          6           0      -13.701544   -2.123655   -0.322154
     17          6           0      -15.136316   -2.327653   -0.399398
     18          6           0      -15.680415   -0.990221   -0.572009
     19          6           0      -14.542737   -0.090158   -0.598686
     20          6           0      -15.746441   -3.645375   -0.159562
     21          6           0      -17.187631   -0.716255   -0.715525
     22          8           0      -17.953934   -1.713170   -0.571276
     23          6           0      -17.824252    0.656879   -1.018021
     24          7           0      -12.440947    2.059443   -0.282119
     25          6           0      -13.711336    2.324756   -0.518859
     26          6           0      -13.919969    3.799257   -0.391752
     27          6           0      -12.483491    4.387167   -0.395926
     28          6           0      -11.636240    3.157256   -0.282500
     29          6           0      -14.873213    4.556707   -1.411988
     30          6           0      -12.173903    5.461109    0.770151
     31          6           0      -11.859262    6.921933    0.364636
     32          7           0       -9.686019    0.920189   -0.386462
     33          6           0       -9.312324    2.210305   -0.347233
     34          6           0       -7.913241    2.342072   -0.165333
     35          6           0       -7.470979    1.032033    0.032810
     36          6           0       -8.601173    0.181768   -0.067061
     37          6           0       -7.043461    3.534435   -0.167015
     38          6           0       -6.277293    0.303787    0.334204
     39          8           0       -5.168080    0.734276    0.557530
     40          6           0       -6.807280   -1.251223    0.553196
     41          6           0       -6.136568   -2.145277   -0.398155
     42          8           0       -5.943808   -1.906039   -1.596957
     43          8           0       -5.804766   -3.286925    0.299746
     44          6           0       -5.114096   -4.331570   -0.454569
     45          1           0      -13.181500   -4.174493    0.143831
     46          1           0      -15.635963    1.795108   -0.541151
     47          1           0       -9.772307    4.253318   -0.620604
     48          1           0       -8.341793   -3.997484    0.426859
     49          1           0      -10.790384   -4.438605    1.634348
     50          1           0      -11.116822   -4.989711   -1.254574
     51          1           0      -10.802881   -6.253295   -0.091674
     52          1           0       -9.484753   -5.440565   -0.942286
     53          1           0       -9.682393   -3.577758    2.972541
     54          1           0       -8.567184   -2.251439    2.843386
     55          1           0       -6.824960   -3.365200    3.480002
     56          1           0       -7.006125   -4.602367    2.361448
     57          1           0      -15.353805   -3.994008    0.795919
     58          1           0      -15.394173   -4.359114   -0.903977
     59          1           0      -16.830440   -3.728806   -0.241853
     60          1           0      -17.729389    1.274517   -0.124769
     61          1           0      -18.767798    0.409330   -1.503265
     62          1           0      -17.177851    1.050661   -1.803093
     63          1           0      -14.405614    3.961097    0.569770
     64          1           0      -12.379005    4.706367   -1.432967
     65          1           0      -15.256725    5.403642   -0.842471
     66          1           0      -15.648993    3.864292   -1.738460
     67          1           0      -14.237620    4.905237   -2.226206
     68          1           0      -11.337562    5.016568    1.309358
     69          1           0      -12.990328    5.403706    1.489932
     70          1           0      -10.962096    7.309620    0.845380
     71          1           0      -12.716142    7.545027    0.622151
     72          1           0      -11.769298    7.068037   -0.711937
     73          1           0       -5.997983    3.271517   -0.324958
     74          1           0       -7.250407    3.863281    0.851549
     75          1           0       -7.543678    4.313838   -0.741694
     76          1           0       -6.745710   -1.546658    1.599975
     77          1           0       -4.247494   -3.939150   -0.987133
     78          1           0       -5.809104   -4.804753   -1.149792
     79          1           0       -4.749102   -5.082724    0.245934
     80         12           0       10.435551    0.924190   -0.499962
     81          6           0       11.869439   -2.317133   -0.690361
     82          6           0        7.487512   -0.605936    0.565356
     83          6           0        9.597619    3.846607    0.762375
     84          6           0       13.767789    2.195525   -1.326923
     85          7           0        9.848568   -1.275743    0.133726
     86          6           0       10.508915   -2.379193   -0.296918
     87          6           0        9.607873   -3.592426   -0.151845
     88          6           0        8.197664   -3.031276   -0.335264
     89          6           0        8.500329   -1.541973    0.206376
     90          6           0        7.620073   -2.955017   -1.749800
     91          6           0        9.921377   -4.328419    1.223243
     92          6           0       10.013692   -5.795472    1.067801
     93          1           0        9.364287   -6.670758    2.157350
     94          7           0        8.759742    1.583126    0.595416
     95          6           0        7.607129    0.802351    0.859740
     96          6           0        6.667020    1.675309    1.516482
     97          6           0        7.168674    3.003829    1.530876
     98          6           0        8.565728    2.888396    0.979709
     99          6           0        5.331143    1.140153    2.022423
    100          6           0        6.498645    4.184928    2.113647
    101          8           0        5.396997    4.043418    2.629859
    102          6           0        7.053898    5.565920    2.236539
    103          7           0       11.645268    2.786992   -0.234589
    104          6           0       10.912099    3.855670    0.135756
    105          6           0       11.722859    5.154172   -0.026737
    106          6           0       13.041961    4.669950   -0.854793
    107          6           0       12.819814    3.135309   -0.862008
    108          6           0       10.901514    6.376312   -0.639386
    109          6           0       14.412340    5.128756   -0.265178
    110          6           0       15.205936    4.105642    0.617034
    111          7           0       12.351741    0.179669   -0.916799
    112          6           0       13.564386    0.823999   -1.293883
    113          6           0       14.550769   -0.240389   -1.771274
    114          6           0       13.899731   -1.429709   -1.485092
    115          6           0       12.581765   -1.117158   -0.993752
    116          6           0       15.969008   -0.154779   -2.367506
    117          6           0       14.005506   -2.851682   -1.571139
    118          8           0       14.894110   -3.558409   -2.049691
    119          6           0       12.776861   -3.383754   -0.924168
    120          6           0       13.308121   -3.958656    0.408816
    121          8           0       13.598435   -3.332991    1.426279
    122          8           0       13.476719   -5.359019    0.223788
    123          6           0       14.067670   -6.101528    1.261958
    124          1           0        6.508687   -1.021955    0.813448
    125          1           0        9.158757    4.803591    1.051521
    126          1           0       14.741963    2.479326   -1.728816
    127          1           0        9.717469   -4.310661   -0.964252
    128          1           0        7.354326   -3.471909    0.195216
    129          1           0        8.122227   -3.605090   -2.465703
    130          1           0        7.456387   -1.923280   -2.061933
    131          1           0        6.629285   -3.390528   -1.615194
    132          1           0        9.101677   -4.134183    1.915040
    133          1           0       10.756782   -3.902232    1.778830
    134          1           0       11.091938   -5.940835    1.012352
    135          1           0        9.549170   -6.067625    0.120158
    136          1           0        4.490643    1.433606    1.393801
    137          1           0        5.209848    1.434754    3.063798
    138          1           0        5.336143    0.050069    2.021491
    139          1           0        7.135220    5.989505    1.235206
    140          1           0        8.020152    5.647975    2.735760
    141          1           0        6.322366    6.256280    2.654738
    142          1           0       12.038438    5.371186    0.993539
    143          1           0       12.929010    4.977161   -1.893940
    144          1           0        9.832489    6.258361   -0.462800
    145          1           0       11.091336    6.679709   -1.669642
    146          1           0       11.368547    7.235532   -0.155470
    147          1           0       14.330975    6.055559    0.302146
    148          1           0       14.999230    5.301883   -1.166900
    149          1           0       15.663710    4.855178    1.263013
    150          1           0       15.987358    3.513487    0.140263
    151          1           0       14.476074    3.507571    1.163050
    152          1           0       16.009782   -0.627121   -3.348380
    153          1           0       16.434242   -0.866524   -1.686207
    154          1           0       16.321589    0.867163   -2.229859
    155          1           0       12.374003   -4.199065   -1.525171
    156          1           0       14.179926   -7.166123    1.052946
    157          1           0       13.428120   -6.000273    2.137876
    158          1           0       15.048487   -5.647781    1.406928
 ---------------------------------------------------------------------

 SCF Done:  E(RwB97XD) =  -4070.54597995     A.U. after   20 cycles

 Excitation energies and oscillator strengths:

 Excited State   1:      Singlet-A      1.6213 eV  764.74 nm  f=0.5514  <S**2>=0.000
     310 -> 315        0.18870
     311 -> 313       -0.25752
     312 -> 314        0.62840
     310 <- 315        0.11377
 This state for optimization and/or second-order correction.
 Total Energy, E(TD-HF/TD-DFT) =  -4070.48640005
 Copying the excited state density for this state as the 1-particle RhoCI density.

 Excited State   2:      Singlet-A      1.6402 eV  755.89 nm  f=0.2101  <S**2>=0.000
     309 -> 316       -0.17755
     311 -> 313        0.63287
     312 -> 314        0.25457
     309 <- 316       -0.11243

 Excited State   3:      Singlet-A      2.1338 eV  581.04 nm  f=0.0515  <S**2>=0.000
     310 -> 314        0.61252
     312 -> 315       -0.34254

 Excited State   4:      Singlet-A      2.1991 eV  563.79 nm  f=0.1287  <S**2>=0.000
     309 -> 313        0.63854
     311 -> 316        0.29242

 Excited State   5:      Singlet-A      3.5411 eV  350.13 nm  f=0.0000  <S**2>=0.000
     312 -> 313        0.70678

 The electronic state is 1-A.
 Alpha  occ. eigenvalues --  -46.97567 -46.95226 -19.31504 -19.29894 -19.26281
 Alpha  occ. eigenvalues --  -19.25520 -19.24776 -19.23913 -19.23161 -19.22452
 Alpha  occ. eigenvalues --  -14.46905 -14.46524 -14.46427 -14.45946 -14.44747
 Alpha  occ. eigenvalues --  -14.44528 -14.44398 -14.44253 -10.44438 -10.43945
 Alpha  occ. eigenvalues --  -10.39462 -10.39227 -10.38505 -10.37942 -10.36213
 Alpha  occ. eigenvalues --  -10.35768 -10.35375 -10.35364 -10.35267 -10.35193
 Alpha  occ. eigenvalues --  -10.34951 -10.34777 -10.34764 -10.34725 -10.34645
 Alpha  occ. eigenvalues --  -10.34368 -10.34365 -10.34299 -10.34030 -10.33751
 Alpha  occ. eigenvalues --  -10.33481 -10.33398 -10.33074 -10.32933 -10.32764
 Alpha  occ. eigenvalues --  -10.32757 -10.32696 -10.32494 -10.32374 -10.32363
 Alpha  occ. eigenvalues --  -10.32227 -10.32160 -10.32114 -10.31868 -10.31829
 Alpha  occ. eigenvalues --  -10.31691 -10.31650 -10.31603 -10.31598 -10.31557
 Alpha  occ. eigenvalues --  -10.31533 -10.31520 -10.31520 -10.31411 -10.31372
 Alpha  occ. eigenvalues --  -10.31209 -10.31163 -10.31080 -10.31075 -10.30996
 Alpha  occ. eigenvalues --  -10.30971 -10.30647 -10.30591 -10.30540 -10.30454
 Alpha  occ. eigenvalues --  -10.30266 -10.30133 -10.30101 -10.30077 -10.29866
 Alpha  occ. eigenvalues --  -10.29517 -10.29445 -10.29028 -10.28960 -10.28952
 Alpha  occ. eigenvalues --  -10.28589  -3.23272  -3.21223  -1.96787  -1.96433
 Alpha  occ. eigenvalues --   -1.96184  -1.94801  -1.94335  -1.94207  -1.18727
 Alpha  occ. eigenvalues --   -1.17929  -1.13049  -1.11771  -1.11425  -1.10797
 Alpha  occ. eigenvalues --   -1.10369  -1.09434  -1.07445  -1.06731  -1.06120
 Alpha  occ. eigenvalues --   -1.05730  -1.05356  -1.04778  -1.04368  -1.03204
 Alpha  occ. eigenvalues --   -0.96322  -0.95138  -0.91218  -0.90953  -0.90538
 Alpha  occ. eigenvalues --   -0.90179  -0.89981  -0.89862  -0.89600  -0.89390
 Alpha  occ. eigenvalues --   -0.89120  -0.88697  -0.87947  -0.87404  -0.86604
 Alpha  occ. eigenvalues --   -0.86569  -0.85740  -0.85491  -0.84584  -0.84527
 Alpha  occ. eigenvalues --   -0.83899  -0.83468  -0.83315  -0.82721  -0.82420
 Alpha  occ. eigenvalues --   -0.82151  -0.80160  -0.79900  -0.79574  -0.79113
 Alpha  occ. eigenvalues --   -0.78800  -0.78700  -0.78207  -0.77883  -0.77264
 Alpha  occ. eigenvalues --   -0.77060  -0.75172  -0.74655  -0.74174  -0.73737
 Alpha  occ. eigenvalues --   -0.71761  -0.71702  -0.71357  -0.70626  -0.70409
 Alpha  occ. eigenvalues --   -0.69175  -0.68735  -0.68724  -0.68046  -0.67604
 Alpha  occ. eigenvalues --   -0.67226  -0.67092  -0.66831  -0.66756  -0.66609
 Alpha  occ. eigenvalues --   -0.66466  -0.64946  -0.64146  -0.62118  -0.61903
 Alpha  occ. eigenvalues --   -0.61837  -0.61677  -0.61484  -0.61182  -0.60877
 Alpha  occ. eigenvalues --   -0.60788  -0.60380  -0.60170  -0.59570  -0.58915
 Alpha  occ. eigenvalues --   -0.58162  -0.58022  -0.57887  -0.57847  -0.57589
 Alpha  occ. eigenvalues --   -0.57533  -0.56832  -0.56775  -0.56452  -0.56438
 Alpha  occ. eigenvalues --   -0.55643  -0.55557  -0.55269  -0.55225  -0.54894
 Alpha  occ. eigenvalues --   -0.54871  -0.54555  -0.54490  -0.54035  -0.54015
 Alpha  occ. eigenvalues --   -0.53785  -0.53615  -0.53520  -0.53327  -0.53241
 Alpha  occ. eigenvalues --   -0.53167  -0.53150  -0.52504  -0.52386  -0.52222
 Alpha  occ. eigenvalues --   -0.52007  -0.51969  -0.51884  -0.51822  -0.51501
 Alpha  occ. eigenvalues --   -0.51329  -0.51320  -0.51043  -0.50801  -0.50704
 Alpha  occ. eigenvalues --   -0.50381  -0.50320  -0.50097  -0.49836  -0.49632
 Alpha  occ. eigenvalues --   -0.49617  -0.49580  -0.49519  -0.49364  -0.49316
 Alpha  occ. eigenvalues --   -0.49029  -0.48960  -0.48682  -0.48554  -0.48365
 Alpha  occ. eigenvalues --   -0.48060  -0.47924  -0.47869  -0.47790  -0.47743
 Alpha  occ. eigenvalues --   -0.47709  -0.47520  -0.47351  -0.47275  -0.47131
 Alpha  occ. eigenvalues --   -0.46981  -0.46940  -0.46455  -0.46406  -0.46282
 Alpha  occ. eigenvalues --   -0.45939  -0.45720  -0.45662  -0.45550  -0.45510
 Alpha  occ. eigenvalues --   -0.45356  -0.45186  -0.45103  -0.45003  -0.44904
 Alpha  occ. eigenvalues --   -0.44893  -0.44748  -0.44254  -0.44219  -0.43865
 Alpha  occ. eigenvalues --   -0.43468  -0.43406  -0.43193  -0.43120  -0.43058
 Alpha  occ. eigenvalues --   -0.42896  -0.42788  -0.42760  -0.42250  -0.42219
 Alpha  occ. eigenvalues --   -0.42114  -0.41863  -0.40986  -0.40841  -0.40635
 Alpha  occ. eigenvalues --   -0.40423  -0.40191  -0.40098  -0.39802  -0.39764
 Alpha  occ. eigenvalues --   -0.39569  -0.39536  -0.38528  -0.38521  -0.38242
 Alpha  occ. eigenvalues --   -0.37730  -0.37645  -0.37140  -0.37111  -0.36136
 Alpha  occ. eigenvalues --   -0.36079  -0.35520  -0.35268  -0.33532  -0.33446
 Alpha  occ. eigenvalues --   -0.33114  -0.32894  -0.32620  -0.32297  -0.32216
 Alpha  occ. eigenvalues --   -0.32022  -0.31528  -0.31524  -0.26061  -0.25872
 Alpha  occ. eigenvalues --   -0.23090  -0.22739
 Alpha virt. eigenvalues --   -0.07267  -0.06786  -0.00638   0.00201   0.01945
 Alpha virt. eigenvalues --    0.02411   0.03024   0.04418   0.04526   0.05492
 Alpha virt. eigenvalues --    0.06412   0.06923   0.07600   0.07654   0.08475

 Mulliken charges:
               1
     1  Mg   0.980576
     2  C   -0.124035
     3  C   -0.080715
     4  C   -0.101754
     5  C   -0.096352
     6  N   -0.314525
     7  C   -0.024958
     8  C   -0.047654
     9  C   -0.085439
    10  C    0.060979
    11  C    0.030286
    12  C   -0.009470
    13  C   -0.101225
    14  H    0.050374
    15  N   -0.481331
    16  C    0.127561
    17  C   -0.142865
    18  C   -0.097837
    19  C    0.229987
    20  C    0.077120
    21  C    0.025819
    22  O   -0.277804
    23  C    0.020061
    24  N   -0.347138
    25  C    0.019095
    26  C   -0.090590
    27  C   -0.108965
    28  C    0.094325
    29  C    0.033638
    30  C    0.010029
    31  C   -0.047592
    32  N   -0.436801
    33  C    0.106369
    34  C   -0.206159
    35  C   -0.066768
    36  C    0.193052
    37  C    0.118176
    38  C    0.144218
    39  O   -0.187738
    40  C   -0.050787
    41  C    0.292235
    42  O   -0.254661
    43  O   -0.371012
    44  C    0.136797
    45  H   -0.000199
    46  H   -0.036564
    47  H    0.003065
    48  H    0.018374
    49  H    0.029578
    50  H    0.037107
    51  H    0.045271
    52  H    0.036854
    53  H    0.031117
    54  H    0.053870
    55  H    0.048357
    56  H    0.042178
    57  H    0.047730
    58  H    0.033175
    59  H    0.069317
    60  H    0.083998
    61  H    0.065012
    62  H    0.043321
    63  H    0.038425
    64  H    0.032595
    65  H    0.040665
    66  H    0.041067
    67  H    0.031751
    68  H    0.033784
    69  H    0.025583
    70  H    0.046858
    71  H    0.035532
    72  H    0.033164
    73  H    0.081309
    74  H    0.047149
    75  H    0.029775
    76  H    0.059793
    77  H    0.065240
    78  H    0.052668
    79  H    0.056559
    80  Mg   0.936528
    81  C    0.010819
    82  C   -0.075055
    83  C   -0.029997
    84  C   -0.064518
    85  N   -0.298226
    86  C   -0.021788
    87  C   -0.051935
    88  C   -0.134160
    89  C    0.043914
    90  C    0.038253
    91  C    0.033825
    92  C   -0.116913
    93  H    0.034479
    94  N   -0.490463
    95  C    0.145953
    96  C   -0.165364
    97  C   -0.024824
    98  C    0.111911
    99  C    0.096161
   100  C   -0.006912
   101  O   -0.245615
   102  C    0.014049
   103  N   -0.325879
   104  C    0.063020
   105  C   -0.098319
   106  C   -0.020354
   107  C    0.007529
   108  C    0.005982
   109  C   -0.047082
   110  C   -0.047885
   111  N   -0.422677
   112  C    0.106429
   113  C   -0.210935
   114  C   -0.023576
   115  C    0.161980
   116  C    0.090924
   117  C    0.075595
   118  O   -0.216640
   119  C   -0.054826
   120  C    0.276361
   121  O   -0.229490
   122  O   -0.374864
   123  C    0.144898
   124  H    0.005031
   125  H   -0.047409
   126  H   -0.001107
   127  H    0.012519
   128  H    0.029530
   129  H    0.041941
   130  H    0.047383
   131  H    0.028508
   132  H    0.032647
   133  H    0.056385
   134  H    0.045258
   135  H    0.046187
   136  H    0.059961
   137  H    0.061460
   138  H    0.009447
   139  H    0.040877
   140  H    0.071303
   141  H    0.047012
   142  H    0.050657
   143  H    0.037736
   144  H    0.052583
   145  H    0.033810
   146  H    0.031356
   147  H    0.040071
   148  H    0.030864
   149  H    0.035399
   150  H    0.046327
   151  H    0.060506
   152  H    0.072753
   153  H    0.067822
   154  H    0.038836
   155  H    0.060854
   156  H    0.057855
   157  H    0.041752
   158  H    0.053570
 Sum of Mulliken charges =  -0.00000

 Dipole moment (field-independent basis, Debye):
    X=             -0.4221    Y=              3.2955    Z=             -2.8786  Tot=              4.3961
 Quadrupole moment (field-independent basis, Debye-Ang):
   XX=           -548.8557   YY=           -445.3481   ZZ=           -522.0065
   XY=             12.5927   XZ=            -23.3779   YZ=            -17.6022

 Normal termination of Gaussian 16 at Sun Sep 19 03:08:44 2021.
