 Gaussian 16, Revision A.03,
 Gaussian 16:  ES64L-G16RevA.03 25-Dec-2016

 --------------------------------
 #p wB97XD/Def2SVP td=(nstates=5)
 --------------------------------

 --------------------------------
 TDDFT excited states in gaussian
 --------------------------------
 Symbolic Z-matrix:
 Charge =  0 Multiplicity = 1

                         Standard orientation:
 ---------------------------------------------------------------------
 Center     Atomic      Atomic             Coordinates (Angstroms)
 Number     Number       Type             X           Y           Z
 ---------------------------------------------------------------------
      1         12           0      -28.184107    0.096610   -0.048683
      2          6           0      -25.112925   -1.599057    0.088536
      3          6           0      -28.975215   -1.280676    2.954575
      4          6           0      -30.792708    2.068466   -0.106825
      5          6           0      -26.689889    1.992061   -2.720945
      6          7           0      -27.180804   -1.313450    1.284543
      7          6           0      -25.935496   -1.862543    1.163974
      8          6           0      -25.561862   -2.504392    2.508509
      9          6           0      -26.932292   -2.841078    3.085792
     10          6           0      -27.721825   -1.672209    2.465856
     11          6           0      -27.466867   -4.210854    2.607692
     12          6           0      -24.757550   -1.504318    3.418898
     13          6           0      -23.220719   -1.839013    3.749540
     14          1           0      -22.128263   -0.852693    3.302570
     15          7           0      -29.649936    0.403101    1.268968
     16          6           0      -29.823437   -0.280186    2.450632
     17          6           0      -31.088507    0.095170    3.000309
     18          6           0      -31.747609    0.992001    2.095843
     19          6           0      -30.741416    1.212926    1.017026
     20          6           0      -31.633286   -0.457449    4.361828
     21          6           0      -33.209591    1.539662    2.278230
     22          8           0      -33.890520    1.139513    3.171714
     23          6           0      -33.797657    2.312966    1.191267
     24          7           0      -28.535104    2.000637   -1.046972
     25          6           0      -29.848264    2.323752   -1.119044
     26          6           0      -30.212979    3.068170   -2.392524
     27          6           0      -28.859776    3.360161   -3.022765
     28          6           0      -27.936223    2.387816   -2.209723
     29          6           0      -31.145220    2.233066   -3.346146
     30          6           0      -28.301896    4.860735   -3.036951
     31          6           0      -28.238563    5.676100   -4.300574
     32          7           0      -26.419127    0.080188   -1.240522
     33          6           0      -25.948954    0.895479   -2.278067
     34          6           0      -24.612798    0.520891   -2.687934
     35          6           0      -24.268325   -0.469601   -1.801344
     36          6           0      -25.361719   -0.716046   -0.907166
     37          6           0      -23.834207    1.164356   -3.758757
     38          6           0      -23.198139   -1.380435   -1.424804
     39          8           0      -22.107305   -1.584088   -1.971927
     40          6           0      -23.732435   -2.210445   -0.276577
     41          6           0      -23.755011   -3.662770   -0.740565
     42          8           0      -24.399306   -3.998069   -1.731848
     43          8           0      -22.875680   -4.458987    0.009610
     44          6           0      -22.821182   -5.837501   -0.397877
     45          1           0      -29.262029   -1.858283    3.835447
     46          1           0      -31.801043    2.456939   -0.257913
     47          1           0      -26.289777    2.497194   -3.602771
     48          1           0      -24.864239   -3.312181    2.285963
     49          1           0      -26.857021   -2.811039    4.172061
     50          1           0      -27.739129   -4.625251    3.577759
     51          1           0      -26.606642   -4.695678    2.145254
     52          1           0      -28.304945   -4.196821    1.910790
     53          1           0      -25.255722   -1.479984    4.388013
     54          1           0      -24.875888   -0.506606    2.996952
     55          1           0      -23.001542   -2.750950    3.193658
     56          1           0      -23.021315   -2.074285    4.794318
     57          1           0      -32.007477    0.259505    5.091967
     58          1           0      -30.799455   -0.996993    4.812139
     59          1           0      -32.439001   -1.179884    4.230169
     60          1           0      -33.242141    3.213140    0.927332
     61          1           0      -34.809953    2.595417    1.480245
     62          1           0      -34.024752    1.661895    0.348205
     63          1           0      -30.792638    3.971298   -2.198686
     64          1           0      -28.834039    2.992904   -4.048722
     65          1           0      -32.198990    2.497317   -3.259254
     66          1           0      -30.929390    1.171217   -3.227947
     67          1           0      -30.854807    2.478308   -4.368731
     68          1           0      -27.393061    5.074950   -2.475638
     69          1           0      -29.108852    5.272282   -2.430107
     70          1           0      -28.916123    6.529336   -4.301844
     71          1           0      -28.508832    5.050780   -5.151817
     72          1           0      -27.198033    5.993808   -4.363290
     73          1           0      -24.202962    2.184474   -3.869296
     74          1           0      -24.085511    0.618605   -4.668652
     75          1           0      -22.763468    1.083116   -3.577306
     76          1           0      -22.965422   -2.076597    0.485030
     77          1           0      -23.669956   -6.440556   -0.074269
     78          1           0      -21.926549   -6.331703   -0.020114
     79          1           0      -22.754018   -5.985426   -1.475362
     80         12           0       27.145796    0.687284    0.273490
     81          6           0       28.136070   -2.557112   -0.204856
     82          6           0       24.634479    0.255958   -1.895984
     83          6           0       26.447659    3.961671    0.666104
     84          6           0       30.180868    1.228357    2.200884
     85          7           0       26.637248   -0.945621   -1.136079
     86          6           0       27.088567   -2.204597   -1.082689
     87          6           0       26.260289   -3.150290   -2.095266
     88          6           0       25.155245   -2.134213   -2.570080
     89          6           0       25.492527   -0.806825   -1.861508
     90          6           0       25.005653   -2.052603   -4.101717
     91          6           0       25.683693   -4.431210   -1.428112
     92          6           0       24.578598   -5.231690   -2.191598
     93          1           0       25.007476   -6.565378   -2.913144
     94          7           0       25.748468    1.958463   -0.555088
     95          6           0       24.752245    1.589267   -1.333036
     96          6           0       23.917544    2.750517   -1.601285
     97          6           0       24.465894    3.901956   -0.960371
     98          6           0       25.604332    3.297306   -0.234342
     99          6           0       22.739587    2.787772   -2.560806
    100          6           0       24.052441    5.368651   -1.023153
    101          8           0       24.810022    6.256907   -0.643547
    102          6           0       22.706864    5.710370   -1.560537
    103          7           0       28.206459    2.368564    1.259714
    104          6           0       27.677153    3.585191    1.309430
    105          6           0       28.459391    4.517836    2.248993
    106          6           0       29.470787    3.541351    2.843688
    107          6           0       29.288644    2.320252    2.021815
    108          6           0       29.075842    5.791685    1.652036
    109          6           0       29.425466    3.446879    4.347807
    110          6           0       30.717145    3.910326    5.111226
    111          7           0       28.759804   -0.388664    0.919136
    112          6           0       29.881243   -0.085759    1.762113
    113          6           0       30.658825   -1.272414    2.043665
    114          6           0       29.953236   -2.242249    1.278443
    115          6           0       28.855222   -1.659277    0.633394
    116          6           0       31.778460   -1.518468    2.992442
    117          6           0       29.916508   -3.673741    1.115968
    118          8           0       30.495661   -4.622125    1.666427
    119          6           0       28.864375   -3.976290    0.078501
    120          6           0       29.574341   -4.402885   -1.225283
    121          8           0       30.581217   -3.893490   -1.740787
    122          8           0       28.886289   -5.461306   -1.739943
    123          6           0       29.405963   -6.084249   -2.998445
    124          1           0       23.713952    0.213499   -2.481905
    125          1           0       26.417079    5.052979    0.690037
    126          1           0       30.994508    1.434032    2.898751
    127          1           0       26.974097   -3.363894   -2.890022
    128          1           0       24.207528   -2.458896   -2.140585
    129          1           0       23.937157   -2.034637   -4.313638
    130          1           0       25.407323   -2.935830   -4.598497
    131          1           0       25.490870   -1.158433   -4.493217
    132          1           0       25.133769   -4.072201   -0.558187
    133          1           0       26.488162   -5.136187   -1.218805
    134          1           0       24.260339   -4.608034   -3.027615
    135          1           0       23.792514   -5.499200   -1.486316
    136          1           0       22.562954    1.811315   -3.011787
    137          1           0       22.939704    3.504605   -3.356804
    138          1           0       21.822446    3.104138   -2.065573
    139          1           0       22.015459    5.052567   -1.033147
    140          1           0       22.449599    5.626047   -2.615943
    141          1           0       22.428227    6.746824   -1.373287
    142          1           0       27.774110    4.847108    3.029318
    143          1           0       30.463349    3.930496    2.617473
    144          1           0       28.918040    6.545378    2.423097
    145          1           0       28.629537    6.017128    0.683596
    146          1           0       30.123728    5.694214    1.368424
    147          1           0       29.361184    2.375324    4.534160
    148          1           0       28.598903    3.997625    4.795851
    149          1           0       31.482233    4.216189    4.397154
    150          1           0       31.093247    3.046821    5.660727
    151          1           0       30.560225    4.665376    5.881668
    152          1           0       31.917568   -0.653789    3.640813
    153          1           0       32.673821   -1.549611    2.372659
    154          1           0       31.486791   -2.416871    3.538327
    155          1           0       28.288318   -4.792540    0.514796
    156          1           0       29.675953   -5.381305   -3.786908
    157          1           0       28.756132   -6.848201   -3.424012
    158          1           0       30.350632   -6.550402   -2.718961
 ---------------------------------------------------------------------

 SCF Done:  E(RwB97XD) =  -4070.61438516     A.U. after   19 cycles

 Excitation energies and oscillator strengths:

 Excited State   1:      Singlet-A      1.6636 eV  745.29 nm  f=0.4287  <S**2>=0.000
     310 -> 316        0.18094
     311 -> 313        0.67881
     310 <- 316        0.11205
 This state for optimization and/or second-order correction.
 Total Energy, E(TD-HF/TD-DFT) =  -4070.55324975
 Copying the excited state density for this state as the 1-particle RhoCI density.

 Excited State   2:      Singlet-A      1.6667 eV  743.87 nm  f=0.3334  <S**2>=0.000
     309 -> 315        0.19673
     312 -> 314        0.67811
     309 <- 315        0.12016

 Excited State   3:      Singlet-A      2.2222 eV  557.93 nm  f=0.1092  <S**2>=0.000
     310 -> 313        0.63693
     311 -> 316       -0.28922

 Excited State   4:      Singlet-A      2.2261 eV  556.95 nm  f=0.0513  <S**2>=0.000
     309 -> 314        0.60360
     312 -> 315       -0.35681

 Excited State   5:      Singlet-A      3.4377 eV  360.66 nm  f=0.5262  <S**2>=0.000
     303 -> 314       -0.14609
     305 -> 314        0.27294
     309 -> 314        0.28739
     312 -> 315        0.55205
     309 <- 314       -0.10588

 The electronic state is 1-A.
 Alpha  occ. eigenvalues --  -46.95526 -46.95054 -19.31313 -19.30825 -19.25580
 Alpha  occ. eigenvalues --  -19.24569 -19.24383 -19.24089 -19.23879 -19.22730
 Alpha  occ. eigenvalues --  -14.46752 -14.46701 -14.46655 -14.46259 -14.44676
 Alpha  occ. eigenvalues --  -14.44012 -14.44000 -14.43871 -10.44177 -10.43400
 Alpha  occ. eigenvalues --  -10.40070 -10.39000 -10.38637 -10.37342 -10.35913
 Alpha  occ. eigenvalues --  -10.35714 -10.35282 -10.35195 -10.35163 -10.34992
 Alpha  occ. eigenvalues --  -10.34895 -10.34717 -10.34594 -10.34478 -10.34426
 Alpha  occ. eigenvalues --  -10.34340 -10.34018 -10.33970 -10.33859 -10.33568
 Alpha  occ. eigenvalues --  -10.33332 -10.33308 -10.32781 -10.32726 -10.32650
 Alpha  occ. eigenvalues --  -10.32515 -10.32424 -10.32220 -10.32176 -10.32168
 Alpha  occ. eigenvalues --  -10.32147 -10.32117 -10.31970 -10.31967 -10.31966
 Alpha  occ. eigenvalues --  -10.31943 -10.31796 -10.31680 -10.31655 -10.31568
 Alpha  occ. eigenvalues --  -10.31240 -10.31048 -10.31042 -10.30963 -10.30961
 Alpha  occ. eigenvalues --  -10.30958 -10.30929 -10.30753 -10.30714 -10.30703
 Alpha  occ. eigenvalues --  -10.30600 -10.30399 -10.30386 -10.30235 -10.30179
 Alpha  occ. eigenvalues --  -10.30148 -10.30110 -10.30109 -10.30029 -10.29881
 Alpha  occ. eigenvalues --  -10.29533 -10.29521 -10.29500 -10.29447 -10.29226
 Alpha  occ. eigenvalues --  -10.28422  -3.21493  -3.21099  -1.95073  -1.94665
 Alpha  occ. eigenvalues --   -1.94608  -1.94477  -1.94238  -1.94067  -1.18195
 Alpha  occ. eigenvalues --   -1.17713  -1.14125  -1.12607  -1.11380  -1.10490
 Alpha  occ. eigenvalues --   -1.10177  -1.08712  -1.07724  -1.06805  -1.06400
 Alpha  occ. eigenvalues --   -1.06302  -1.05897  -1.04975  -1.04935  -1.04134
 Alpha  occ. eigenvalues --   -0.95081  -0.93230  -0.91769  -0.91035  -0.90869
 Alpha  occ. eigenvalues --   -0.90576  -0.90479  -0.90092  -0.89597  -0.89490
 Alpha  occ. eigenvalues --   -0.89075  -0.89074  -0.88940  -0.86958  -0.86526
 Alpha  occ. eigenvalues --   -0.86167  -0.86098  -0.85212  -0.84489  -0.84467
 Alpha  occ. eigenvalues --   -0.84276  -0.84051  -0.83033  -0.83023  -0.82851
 Alpha  occ. eigenvalues --   -0.81994  -0.80485  -0.79972  -0.79465  -0.79200
 Alpha  occ. eigenvalues --   -0.78658  -0.78364  -0.78244  -0.78003  -0.77276
 Alpha  occ. eigenvalues --   -0.77067  -0.74902  -0.74621  -0.74135  -0.73653
 Alpha  occ. eigenvalues --   -0.71354  -0.71053  -0.70976  -0.70622  -0.70129
 Alpha  occ. eigenvalues --   -0.69688  -0.69568  -0.68779  -0.67815  -0.67764
 Alpha  occ. eigenvalues --   -0.67586  -0.66888  -0.66883  -0.66498  -0.66404
 Alpha  occ. eigenvalues --   -0.65894  -0.64752  -0.64610  -0.62722  -0.62233
 Alpha  occ. eigenvalues --   -0.62075  -0.61612  -0.61129  -0.60904  -0.60859
 Alpha  occ. eigenvalues --   -0.60607  -0.60510  -0.59971  -0.59732  -0.59357
 Alpha  occ. eigenvalues --   -0.58300  -0.58241  -0.58088  -0.57632  -0.57275
 Alpha  occ. eigenvalues --   -0.57070  -0.56916  -0.56455  -0.56051  -0.55944
 Alpha  occ. eigenvalues --   -0.55673  -0.55503  -0.55336  -0.55127  -0.54964
 Alpha  occ. eigenvalues --   -0.54740  -0.54728  -0.54641  -0.54472  -0.54151
 Alpha  occ. eigenvalues --   -0.54105  -0.53753  -0.53614  -0.53115  -0.53037
 Alpha  occ. eigenvalues --   -0.52979  -0.52838  -0.52636  -0.52441  -0.52408
 Alpha  occ. eigenvalues --   -0.52115  -0.51851  -0.51760  -0.51724  -0.51605
 Alpha  occ. eigenvalues --   -0.51590  -0.51278  -0.51265  -0.51067  -0.50984
 Alpha  occ. eigenvalues --   -0.50872  -0.50636  -0.50469  -0.50285  -0.50115
 Alpha  occ. eigenvalues --   -0.50042  -0.49747  -0.49608  -0.49463  -0.49227
 Alpha  occ. eigenvalues --   -0.49055  -0.48723  -0.48543  -0.48334  -0.48312
 Alpha  occ. eigenvalues --   -0.48234  -0.48064  -0.48063  -0.47920  -0.47868
 Alpha  occ. eigenvalues --   -0.47397  -0.47308  -0.46900  -0.46665  -0.46425
 Alpha  occ. eigenvalues --   -0.46411  -0.46317  -0.46267  -0.46120  -0.46052
 Alpha  occ. eigenvalues --   -0.45924  -0.45820  -0.45763  -0.45554  -0.45524
 Alpha  occ. eigenvalues --   -0.45287  -0.45057  -0.44830  -0.44704  -0.44563
 Alpha  occ. eigenvalues --   -0.44404  -0.44165  -0.44113  -0.43964  -0.43911
 Alpha  occ. eigenvalues --   -0.43884  -0.43747  -0.43674  -0.43550  -0.43441
 Alpha  occ. eigenvalues --   -0.43091  -0.43025  -0.42785  -0.42711  -0.42629
 Alpha  occ. eigenvalues --   -0.42338  -0.42313  -0.41978  -0.41178  -0.40978
 Alpha  occ. eigenvalues --   -0.40919  -0.40171  -0.39965  -0.39773  -0.39495
 Alpha  occ. eigenvalues --   -0.39195  -0.39169  -0.38673  -0.38645  -0.38612
 Alpha  occ. eigenvalues --   -0.38196  -0.37875  -0.36857  -0.36741  -0.36259
 Alpha  occ. eigenvalues --   -0.35983  -0.35763  -0.35560  -0.33915  -0.33576
 Alpha  occ. eigenvalues --   -0.33321  -0.33219  -0.32973  -0.32780  -0.32349
 Alpha  occ. eigenvalues --   -0.31944  -0.31842  -0.31806  -0.26345  -0.25828
 Alpha  occ. eigenvalues --   -0.22910  -0.22826
 Alpha virt. eigenvalues --   -0.06893  -0.06680  -0.00356   0.00162   0.02566
 Alpha virt. eigenvalues --    0.02635   0.04580   0.04622   0.05080   0.05168
 Alpha virt. eigenvalues --    0.06339   0.07453   0.07489   0.07838   0.08474

 Mulliken charges:
               1
     1  Mg   0.956882
     2  C   -0.054902
     3  C   -0.098067
     4  C   -0.053032
     5  C   -0.094328
     6  N   -0.332005
     7  C   -0.023731
     8  C   -0.114795
     9  C   -0.115819
    10  C    0.039117
    11  C    0.060844
    12  C    0.025437
    13  C   -0.134573
    14  H    0.044798
    15  N   -0.518499
    16  C    0.210531
    17  C   -0.172885
    18  C   -0.106195
    19  C    0.151603
    20  C    0.083383
    21  C    0.062118
    22  O   -0.196852
    23  C   -0.021604
    24  N   -0.326645
    25  C    0.062358
    26  C   -0.102031
    27  C   -0.070064
    28  C    0.069716
    29  C    0.021085
    30  C   -0.022408
    31  C   -0.034764
    32  N   -0.428996
    33  C    0.127862
    34  C   -0.206725
    35  C   -0.016819
    36  C    0.192746
    37  C    0.097470
    38  C    0.099146
    39  O   -0.220901
    40  C   -0.022019
    41  C    0.288774
    42  O   -0.244365
    43  O   -0.362534
    44  C    0.139841
    45  H    0.001619
    46  H   -0.029225
    47  H   -0.001572
    48  H    0.017283
    49  H    0.023682
    50  H    0.042924
    51  H    0.038768
    52  H    0.055140
    53  H    0.032703
    54  H    0.055656
    55  H    0.047938
    56  H    0.058761
    57  H    0.056047
    58  H    0.011825
    59  H    0.051561
    60  H    0.070948
    61  H    0.042049
    62  H    0.069590
    63  H    0.033449
    64  H    0.024322
    65  H    0.046140
    66  H    0.041576
    67  H    0.029658
    68  H    0.043961
    69  H    0.016348
    70  H    0.044049
    71  H    0.026341
    72  H    0.041553
    73  H    0.036657
    74  H    0.058300
    75  H    0.066011
    76  H    0.061004
    77  H    0.042334
    78  H    0.050421
    79  H    0.054023
    80  Mg   0.970340
    81  C   -0.074810
    82  C   -0.078676
    83  C   -0.049399
    84  C   -0.066324
    85  N   -0.355532
    86  C   -0.026100
    87  C   -0.008948
    88  C   -0.153541
    89  C    0.119899
    90  C    0.024353
    91  C   -0.009585
    92  C   -0.131331
    93  H    0.015021
    94  N   -0.438307
    95  C    0.116613
    96  C   -0.187107
    97  C   -0.059089
    98  C    0.130866
    99  C    0.069848
   100  C    0.087758
   101  O   -0.227315
   102  C   -0.033420
   103  N   -0.274184
   104  C   -0.007325
   105  C   -0.114799
   106  C   -0.055373
   107  C    0.009705
   108  C    0.036092
   109  C    0.000423
   110  C   -0.068104
   111  N   -0.456837
   112  C    0.123254
   113  C   -0.170453
   114  C   -0.076973
   115  C    0.206168
   116  C    0.109173
   117  C    0.102766
   118  O   -0.239421
   119  C   -0.055728
   120  C    0.293647
   121  O   -0.266034
   122  O   -0.365204
   123  C    0.138547
   124  H   -0.019833
   125  H    0.029530
   126  H    0.004078
   127  H    0.040457
   128  H    0.037120
   129  H    0.034020
   130  H    0.041471
   131  H    0.049652
   132  H    0.031932
   133  H    0.073445
   134  H    0.048334
   135  H    0.065655
   136  H    0.031719
   137  H    0.051428
   138  H    0.041188
   139  H    0.048798
   140  H    0.063220
   141  H    0.052472
   142  H    0.038872
   143  H    0.021328
   144  H    0.046519
   145  H    0.044290
   146  H    0.029769
   147  H    0.030509
   148  H    0.036925
   149  H    0.033085
   150  H    0.033429
   151  H    0.041964
   152  H    0.019309
   153  H    0.065406
   154  H    0.081072
   155  H    0.069650
   156  H    0.058569
   157  H    0.063587
   158  H    0.056475
 Sum of Mulliken charges =  -0.00000

 Dipole moment (field-independent basis, Debye):
    X=             -6.8151    Y=              2.3641    Z=             -1.5290  Tot=              7.3737
 Quadrupole moment (field-independent basis, Debye-Ang):
   XX=           -684.0183   YY=           -500.1326   ZZ=           -485.4508
   XY=             41.8968   XZ=             50.4820   YZ=             -6.5211

 Normal termination of Gaussian 16 at Mon Sep 20 16:51:19 2021.
