 Gaussian 16, Revision A.03,
 Gaussian 16:  ES64L-G16RevA.03 25-Dec-2016

 --------------------------------
 #p wB97XD/Def2SVP td=(nstates=5)
 --------------------------------

 --------------------------------
 TDDFT excited states in gaussian
 --------------------------------
 Symbolic Z-matrix:
 Charge =  0 Multiplicity = 1

                         Standard orientation:
 ---------------------------------------------------------------------
 Center     Atomic      Atomic             Coordinates (Angstroms)
 Number     Number       Type             X           Y           Z
 ---------------------------------------------------------------------
      1         12           0      -31.210312    0.066794    0.023184
      2          6           0      -27.837248   -0.472339   -0.383813
      3          6           0      -31.427353   -2.400601    2.387981
      4          6           0      -34.600394    0.768278    0.558601
      5          6           0      -30.955469    3.069036   -1.664359
      6          7           0      -29.681083   -1.108923    1.013353
      7          6           0      -28.367450   -1.335545    0.593712
      8          6           0      -27.664407   -2.362495    1.484991
      9          6           0      -28.903903   -3.001189    2.161555
     10          6           0      -30.109958   -2.070086    1.921549
     11          6           0      -29.117038   -4.478455    1.764887
     12          6           0      -26.681655   -1.702853    2.472630
     13          6           0      -25.302703   -2.418485    2.682637
     14          1           0      -24.692446   -2.279318    4.022467
     15          7           0      -32.756415   -0.736939    1.234084
     16          6           0      -32.672113   -1.799538    2.066909
     17          6           0      -33.951636   -2.260405    2.516166
     18          6           0      -34.912156   -1.445571    1.894668
     19          6           0      -34.094577   -0.404230    1.144933
     20          6           0      -34.169532   -3.514472    3.365203
     21          6           0      -36.474869   -1.555695    2.021364
     22          8           0      -36.951402   -2.403900    2.818338
     23          6           0      -37.493644   -0.714581    1.138044
     24          7           0      -32.518357    1.842206   -0.229235
     25          6           0      -33.862890    1.799414   -0.064581
     26          6           0      -34.567469    2.984283   -0.673842
     27          6           0      -33.419681    3.764397   -1.350440
     28          6           0      -32.226386    2.835377   -1.113046
     29          6           0      -35.768299    2.620952   -1.608957
     30          6           0      -33.280942    5.271367   -0.822746
     31          6           0      -33.787612    6.340023   -1.798242
     32          7           0      -29.742617    1.092419   -0.905608
     33          6           0      -29.748597    2.318725   -1.606108
     34          6           0      -28.469258    2.480619   -2.309404
     35          6           0      -27.744333    1.368206   -1.905222
     36          6           0      -28.523838    0.659499   -0.976248
     37          6           0      -28.002205    3.564744   -3.213382
     38          6           0      -26.440058    0.703611   -2.038145
     39          8           0      -25.506947    0.866111   -2.841604
     40          6           0      -26.461102   -0.555429   -1.081657
     41          6           0      -26.286830   -1.850055   -1.864268
     42          8           0      -26.847596   -2.177726   -2.914772
     43          8           0      -25.321931   -2.514613   -1.167260
     44          6           0      -24.804822   -3.730226   -1.773084
     45          1           0      -31.510722   -3.188915    3.138902
     46          1           0      -35.656353    1.046073    0.577207
     47          1           0      -30.808848    3.998544   -2.218101
     48          1           0      -27.093929   -3.054491    0.864588
     49          1           0      -28.646059   -2.982471    3.220409
     50          1           0      -28.279960   -5.055204    1.371550
     51          1           0      -29.834183   -4.457980    0.944425
     52          1           0      -29.507276   -5.074319    2.589637
     53          1           0      -27.130017   -1.501401    3.445127
     54          1           0      -26.563480   -0.682193    2.107981
     55          1           0      -24.594013   -2.042783    1.944644
     56          1           0      -25.449762   -3.492052    2.556611
     57          1           0      -34.846970   -4.143157    2.787776
     58          1           0      -34.419564   -3.227663    4.386709
     59          1           0      -33.203828   -4.019695    3.351527
     60          1           0      -37.614801    0.240868    1.647126
     61          1           0      -38.433581   -1.265777    1.154082
     62          1           0      -37.131719   -0.779695    0.111592
     63          1           0      -34.986614    3.578133    0.138516
     64          1           0      -33.418640    3.777391   -2.440112
     65          1           0      -35.740019    3.190335   -2.537584
     66          1           0      -36.735125    2.802373   -1.139808
     67          1           0      -35.768374    1.545985   -1.784578
     68          1           0      -32.243886    5.557843   -0.648450
     69          1           0      -33.753958    5.369300    0.154314
     70          1           0      -34.296985    7.129547   -1.245428
     71          1           0      -34.485987    5.891521   -2.504466
     72          1           0      -33.001531    6.803332   -2.394215
     73          1           0      -28.845883    4.234105   -3.381619
     74          1           0      -27.458913    3.137746   -4.056590
     75          1           0      -27.312127    4.167659   -2.622165
     76          1           0      -25.713399   -0.489280   -0.290851
     77          1           0      -25.576542   -4.383069   -2.182914
     78          1           0      -24.165728   -4.359899   -1.154105
     79          1           0      -24.139002   -3.474036   -2.597587
     80         12           0       30.422075    0.723526    0.437891
     81          6           0       30.982157   -2.513947   -0.985650
     82          6           0       28.736002    1.632791   -2.412425
     83          6           0       30.247229    3.927652    1.491845
     84          6           0       32.946159   -0.046824    2.778173
     85          7           0       29.925161   -0.342396   -1.449875
     86          6           0       30.175901   -1.674349   -1.815396
     87          6           0       29.512541   -1.955535   -3.139245
     88          6           0       29.297381   -0.497358   -3.727034
     89          6           0       29.381001    0.364844   -2.433258
     90          6           0       30.469267   -0.203634   -4.730164
     91          6           0       28.249027   -2.881451   -3.041521
     92          6           0       28.268814   -3.876124   -4.090102
     93          1           0       27.233248   -5.093956   -3.892071
     94          7           0       29.425893    2.441350   -0.344621
     95          6           0       28.766639    2.592424   -1.499548
     96          6           0       28.177075    3.895322   -1.540574
     97          6           0       28.606502    4.599658   -0.435415
     98          6           0       29.462061    3.620335    0.381214
     99          6           0       27.392318    4.413912   -2.787298
    100          6           0       28.237594    6.029997    0.008931
    101          8           0       28.749636    6.485122    1.000211
    102          6           0       27.182759    6.820794   -0.728403
    103          7           0       31.674501    1.842509    1.766188
    104          6           0       31.271144    3.128287    2.109235
    105          6           0       31.970594    3.591441    3.345634
    106          6           0       32.828949    2.305727    3.781693
    107          6           0       32.424826    1.269142    2.759944
    108          6           0       32.741529    4.852421    3.145991
    109          6           0       32.658490    1.772703    5.308738
    110          6           0       33.851260    1.765305    6.180855
    111          7           0       31.695840   -0.930303    0.898109
    112          6           0       32.655050   -1.052306    1.878040
    113          6           0       33.208418   -2.474423    1.813206
    114          6           0       32.500624   -3.119970    0.779508
    115          6           0       31.629260   -2.121106    0.219543
    116          6           0       34.332413   -3.012143    2.709322
    117          6           0       32.472782   -4.337057    0.026252
    118          8           0       33.111320   -5.402242    0.182639
    119          6           0       31.619318   -3.954707   -1.251905
    120          6           0       30.643884   -5.150475   -1.468638
    121          8           0       29.454902   -5.075095   -1.108243
    122          8           0       31.273530   -6.140724   -2.147401
    123          6           0       30.385250   -7.353486   -2.163733
    124          1           0       28.016677    1.860719   -3.202241
    125          1           0       30.191793    4.953589    1.863563
    126          1           0       33.660564   -0.411274    3.519115
    127          1           0       30.280336   -2.414980   -3.761330
    128          1           0       28.350216   -0.411698   -4.258431
    129          1           0       31.422949   -0.006432   -4.241197
    130          1           0       30.175448    0.619473   -5.380134
    131          1           0       30.596436   -1.068329   -5.381909
    132          1           0       27.395122   -2.258613   -3.309081
    133          1           0       28.115162   -3.286114   -2.038031
    134          1           0       29.209043   -4.427811   -4.091040
    135          1           0       28.063071   -3.363121   -5.029892
    136          1           0       26.435756    4.716694   -2.361464
    137          1           0       27.193927    3.661865   -3.550804
    138          1           0       27.951005    5.216523   -3.268554
    139          1           0       27.114829    7.832992   -0.329572
    140          1           0       26.342704    6.179106   -0.462790
    141          1           0       27.436039    6.816006   -1.788518
    142          1           0       31.144077    3.745004    4.039708
    143          1           0       33.876903    2.577452    3.657444
    144          1           0       32.185067    5.600261    3.709536
    145          1           0       32.711928    5.211837    2.117491
    146          1           0       33.788444    4.816790    3.448190
    147          1           0       32.399890    0.725495    5.152189
    148          1           0       31.796849    2.280195    5.740417
    149          1           0       34.114526    0.751100    6.480030
    150          1           0       33.380026    2.249846    7.035310
    151          1           0       34.660466    2.396034    5.810274
    152          1           0       35.252550   -2.863676    2.145271
    153          1           0       34.213131   -4.070806    2.939575
    154          1           0       34.308179   -2.483663    3.662359
    155          1           0       32.371861   -3.885375   -2.036193
    156          1           0       30.321971   -7.888780   -1.216480
    157          1           0       30.629755   -8.087800   -2.930575
    158          1           0       29.403798   -6.989511   -2.468329
 ---------------------------------------------------------------------

 SCF Done:  E(RwB97XD) =  -4070.59491476     A.U. after   19 cycles

 Excitation energies and oscillator strengths:

 Excited State   1:      Singlet-A      1.6650 eV  744.64 nm  f=0.3596  <S**2>=0.000
     310 -> 316       -0.17865
     311 -> 313        0.68374
     310 <- 316       -0.11334
 This state for optimization and/or second-order correction.
 Total Energy, E(TD-HF/TD-DFT) =  -4070.53372643
 Copying the excited state density for this state as the 1-particle RhoCI density.

 Excited State   2:      Singlet-A      1.6768 eV  739.39 nm  f=0.3555  <S**2>=0.000
     309 -> 315       -0.19186
     312 -> 314        0.68010
     309 <- 315       -0.11546

 Excited State   3:      Singlet-A      2.1966 eV  564.45 nm  f=0.0912  <S**2>=0.000
     310 -> 313        0.62319
     311 -> 316        0.31720

 Excited State   4:      Singlet-A      2.2164 eV  559.40 nm  f=0.0062  <S**2>=0.000
     309 -> 314        0.55056
     312 -> 315        0.43363

 Excited State   5:      Singlet-A      3.8723 eV  320.18 nm  f=0.0000  <S**2>=0.000
     312 -> 313        0.70710

 The electronic state is 1-A.
 Alpha  occ. eigenvalues --  -46.95754 -46.95535 -19.31584 -19.31351 -19.25217
 Alpha  occ. eigenvalues --  -19.24801 -19.24688 -19.24525 -19.23762 -19.23480
 Alpha  occ. eigenvalues --  -14.47038 -14.46867 -14.46770 -14.46470 -14.44881
 Alpha  occ. eigenvalues --  -14.43966 -14.43710 -14.43677 -10.43815 -10.43554
 Alpha  occ. eigenvalues --  -10.40772 -10.39655 -10.38883 -10.38762 -10.36334
 Alpha  occ. eigenvalues --  -10.35790 -10.35752 -10.35432 -10.35387 -10.35340
 Alpha  occ. eigenvalues --  -10.35264 -10.35249 -10.35121 -10.34928 -10.34533
 Alpha  occ. eigenvalues --  -10.34440 -10.34426 -10.33648 -10.33108 -10.33040
 Alpha  occ. eigenvalues --  -10.32994 -10.32959 -10.32775 -10.32761 -10.32719
 Alpha  occ. eigenvalues --  -10.32587 -10.32564 -10.32409 -10.32213 -10.32210
 Alpha  occ. eigenvalues --  -10.32164 -10.32145 -10.32073 -10.32034 -10.32030
 Alpha  occ. eigenvalues --  -10.32006 -10.31987 -10.31955 -10.31796 -10.31779
 Alpha  occ. eigenvalues --  -10.31721 -10.31420 -10.31415 -10.31401 -10.31382
 Alpha  occ. eigenvalues --  -10.31027 -10.31009 -10.30844 -10.30825 -10.30641
 Alpha  occ. eigenvalues --  -10.30520 -10.30489 -10.30369 -10.30339 -10.30271
 Alpha  occ. eigenvalues --  -10.30107 -10.29946 -10.29802 -10.29775 -10.29766
 Alpha  occ. eigenvalues --  -10.29568 -10.29205 -10.28997 -10.28908 -10.28799
 Alpha  occ. eigenvalues --  -10.28576  -3.21557  -3.21513  -1.95136  -1.95067
 Alpha  occ. eigenvalues --   -1.94662  -1.94621  -1.94522  -1.94511  -1.19025
 Alpha  occ. eigenvalues --   -1.18196  -1.13974  -1.10916  -1.10551  -1.10033
 Alpha  occ. eigenvalues --   -1.09957  -1.09287  -1.06682  -1.06116  -1.06036
 Alpha  occ. eigenvalues --   -1.05600  -1.05052  -1.04670  -1.04180  -1.03410
 Alpha  occ. eigenvalues --   -0.93367  -0.93150  -0.90841  -0.90824  -0.90726
 Alpha  occ. eigenvalues --   -0.90583  -0.90574  -0.90027  -0.89481  -0.89196
 Alpha  occ. eigenvalues --   -0.89144  -0.88968  -0.88399  -0.87362  -0.86267
 Alpha  occ. eigenvalues --   -0.86245  -0.85779  -0.85650  -0.84539  -0.84450
 Alpha  occ. eigenvalues --   -0.84415  -0.83581  -0.83095  -0.82614  -0.82362
 Alpha  occ. eigenvalues --   -0.82146  -0.80194  -0.79875  -0.79450  -0.79443
 Alpha  occ. eigenvalues --   -0.78701  -0.78427  -0.77817  -0.77368  -0.77252
 Alpha  occ. eigenvalues --   -0.76861  -0.74703  -0.74136  -0.73726  -0.73397
 Alpha  occ. eigenvalues --   -0.71131  -0.70924  -0.70786  -0.69841  -0.69766
 Alpha  occ. eigenvalues --   -0.69396  -0.69292  -0.68300  -0.68056  -0.67083
 Alpha  occ. eigenvalues --   -0.66998  -0.66983  -0.66875  -0.66579  -0.66413
 Alpha  occ. eigenvalues --   -0.66269  -0.64673  -0.64021  -0.61940  -0.61920
 Alpha  occ. eigenvalues --   -0.61618  -0.61054  -0.60952  -0.60610  -0.60417
 Alpha  occ. eigenvalues --   -0.60197  -0.59705  -0.59367  -0.59227  -0.59014
 Alpha  occ. eigenvalues --   -0.58002  -0.57979  -0.57739  -0.57432  -0.57246
 Alpha  occ. eigenvalues --   -0.57020  -0.56970  -0.56237  -0.55942  -0.55889
 Alpha  occ. eigenvalues --   -0.55724  -0.55460  -0.55333  -0.55118  -0.54855
 Alpha  occ. eigenvalues --   -0.54775  -0.54600  -0.54547  -0.54532  -0.54376
 Alpha  occ. eigenvalues --   -0.53921  -0.53835  -0.53538  -0.53298  -0.53232
 Alpha  occ. eigenvalues --   -0.53178  -0.53049  -0.52792  -0.52468  -0.52287
 Alpha  occ. eigenvalues --   -0.52154  -0.52061  -0.51872  -0.51453  -0.51387
 Alpha  occ. eigenvalues --   -0.51251  -0.51032  -0.51028  -0.50857  -0.50539
 Alpha  occ. eigenvalues --   -0.50438  -0.50253  -0.50139  -0.50095  -0.49936
 Alpha  occ. eigenvalues --   -0.49761  -0.49759  -0.49697  -0.49406  -0.49339
 Alpha  occ. eigenvalues --   -0.49127  -0.48828  -0.48521  -0.48512  -0.48446
 Alpha  occ. eigenvalues --   -0.48299  -0.48128  -0.47986  -0.47981  -0.47740
 Alpha  occ. eigenvalues --   -0.47461  -0.47272  -0.47159  -0.46743  -0.46506
 Alpha  occ. eigenvalues --   -0.46433  -0.46360  -0.46271  -0.46081  -0.46002
 Alpha  occ. eigenvalues --   -0.45722  -0.45712  -0.45665  -0.45465  -0.45374
 Alpha  occ. eigenvalues --   -0.45214  -0.45180  -0.44977  -0.44940  -0.44756
 Alpha  occ. eigenvalues --   -0.44519  -0.44381  -0.44257  -0.44107  -0.43939
 Alpha  occ. eigenvalues --   -0.43902  -0.43815  -0.43499  -0.43376  -0.43086
 Alpha  occ. eigenvalues --   -0.43009  -0.42726  -0.42673  -0.42513  -0.42098
 Alpha  occ. eigenvalues --   -0.41689  -0.41619  -0.41281  -0.40745  -0.40693
 Alpha  occ. eigenvalues --   -0.40431  -0.40299  -0.40080  -0.39759  -0.39427
 Alpha  occ. eigenvalues --   -0.39208  -0.39153  -0.38962  -0.38925  -0.38396
 Alpha  occ. eigenvalues --   -0.38060  -0.36858  -0.36786  -0.36760  -0.36026
 Alpha  occ. eigenvalues --   -0.35809  -0.35288  -0.35179  -0.33924  -0.33755
 Alpha  occ. eigenvalues --   -0.33369  -0.33316  -0.32703  -0.32620  -0.32415
 Alpha  occ. eigenvalues --   -0.32222  -0.31951  -0.31449  -0.26190  -0.26144
 Alpha  occ. eigenvalues --   -0.22912  -0.22001
 Alpha virt. eigenvalues --   -0.06926  -0.05879  -0.00593  -0.00132   0.02093
 Alpha virt. eigenvalues --    0.02231   0.04053   0.04481   0.04805   0.05081
 Alpha virt. eigenvalues --    0.07145   0.07282   0.07404   0.07786   0.08452

 Mulliken charges:
               1
     1  Mg   0.973354
     2  C   -0.080670
     3  C   -0.110078
     4  C   -0.086193
     5  C   -0.082981
     6  N   -0.404091
     7  C   -0.008271
     8  C   -0.052818
     9  C   -0.092020
    10  C    0.125871
    11  C    0.013987
    12  C    0.023135
    13  C   -0.127729
    14  H    0.043619
    15  N   -0.430330
    16  C    0.153024
    17  C   -0.190540
    18  C   -0.078508
    19  C    0.194627
    20  C    0.116275
    21  C    0.044345
    22  O   -0.256227
    23  C   -0.009094
    24  N   -0.325144
    25  C    0.022961
    26  C   -0.076379
    27  C   -0.052229
    28  C    0.038487
    29  C    0.010479
    30  C   -0.007610
    31  C   -0.058071
    32  N   -0.440677
    33  C    0.101338
    34  C   -0.206427
    35  C   -0.044058
    36  C    0.153207
    37  C    0.107363
    38  C    0.155573
    39  O   -0.229718
    40  C   -0.059975
    41  C    0.289189
    42  O   -0.247452
    43  O   -0.356438
    44  C    0.133489
    45  H    0.007816
    46  H   -0.019754
    47  H   -0.011095
    48  H    0.025045
    49  H    0.032692
    50  H    0.036835
    51  H    0.034838
    52  H    0.038413
    53  H    0.030653
    54  H    0.030150
    55  H    0.066445
    56  H    0.049617
    57  H    0.065629
    58  H    0.072152
    59  H    0.012159
    60  H    0.080661
    61  H    0.058283
    62  H    0.060634
    63  H    0.046735
    64  H    0.034044
    65  H    0.046870
    66  H    0.033560
    67  H    0.037735
    68  H    0.032983
    69  H    0.028781
    70  H    0.039096
    71  H    0.028609
    72  H    0.041135
    73  H    0.021202
    74  H    0.075385
    75  H    0.050506
    76  H    0.064477
    77  H    0.055253
    78  H    0.052198
    79  H    0.053661
    80  Mg   0.942953
    81  C    0.041595
    82  C   -0.129128
    83  C   -0.076120
    84  C   -0.077265
    85  N   -0.336096
    86  C   -0.017724
    87  C   -0.079415
    88  C   -0.155350
    89  C    0.135781
    90  C    0.022056
    91  C    0.093485
    92  C   -0.136546
    93  H    0.009067
    94  N   -0.446319
    95  C    0.165785
    96  C   -0.153322
    97  C   -0.107880
    98  C    0.164972
    99  C    0.056913
   100  C    0.032458
   101  O   -0.217402
   102  C    0.006267
   103  N   -0.392335
   104  C    0.060420
   105  C   -0.103452
   106  C   -0.058513
   107  C    0.088730
   108  C    0.029695
   109  C   -0.034577
   110  C   -0.028610
   111  N   -0.416715
   112  C    0.095827
   113  C   -0.195808
   114  C   -0.011666
   115  C    0.105231
   116  C    0.075058
   117  C    0.122585
   118  O   -0.234913
   119  C   -0.139163
   120  C    0.281276
   121  O   -0.275133
   122  O   -0.340445
   123  C    0.131667
   124  H   -0.010029
   125  H    0.029205
   126  H   -0.008278
   127  H    0.017201
   128  H    0.025392
   129  H    0.050735
   130  H    0.035130
   131  H    0.035642
   132  H    0.016175
   133  H    0.073594
   134  H    0.051838
   135  H    0.043267
   136  H    0.051644
   137  H    0.037580
   138  H    0.072599
   139  H    0.062089
   140  H    0.066243
   141  H    0.055537
   142  H    0.043047
   143  H    0.031496
   144  H    0.039715
   145  H    0.045862
   146  H    0.038562
   147  H    0.026821
   148  H    0.028191
   149  H    0.044933
   150  H    0.030308
   151  H    0.041846
   152  H    0.063103
   153  H    0.057597
   154  H    0.033403
   155  H    0.090019
   156  H    0.070063
   157  H    0.052434
   158  H    0.059115
 Sum of Mulliken charges =  -0.00000

 Dipole moment (field-independent basis, Debye):
    X=             -4.3884    Y=              4.2353    Z=             -0.7540  Tot=              6.1452
 Quadrupole moment (field-independent basis, Debye-Ang):
   XX=           -494.2325   YY=           -496.3287   ZZ=           -501.3748
   XY=             70.0053   XZ=            -47.4660   YZ=             -5.5983

 Normal termination of Gaussian 16 at Mon Sep 20 17:14:54 2021.
