 Gaussian 16, Revision A.03,
 Gaussian 16:  ES64L-G16RevA.03 25-Dec-2016

 --------------------------------
 #p wB97XD/Def2SVP td=(nstates=5)
 --------------------------------

 --------------------------------
 TDDFT excited states in gaussian
 --------------------------------
 Symbolic Z-matrix:
 Charge =  0 Multiplicity = 1

                         Standard orientation:
 ---------------------------------------------------------------------
 Center     Atomic      Atomic             Coordinates (Angstroms)
 Number     Number       Type             X           Y           Z
 ---------------------------------------------------------------------
      1         12           0       -0.792685    0.027477    0.197632
      2          6           0        2.739067    0.258241    0.193622
      3          6           0       -0.478202   -3.321995   -0.069584
      4          6           0       -4.060922   -0.113782    0.067336
      5          6           0       -0.860885    3.583537   -0.268871
      6          7           0        0.956791   -1.418346   -0.032218
      7          6           0        2.265363   -1.069064    0.256600
      8          6           0        3.017046   -2.340307    0.458409
      9          6           0        2.135355   -3.418882   -0.171761
     10          6           0        0.752389   -2.726172   -0.084245
     11          6           0        2.537171   -3.667390   -1.673924
     12          6           0        3.421376   -2.715688    1.984250
     13          6           0        4.835393   -3.286983    2.309876
     14          1           0        5.329071   -4.475766    1.435498
     15          7           0       -2.079721   -1.554986    0.006845
     16          6           0       -1.751482   -2.811118   -0.067100
     17          6           0       -2.984887   -3.602090   -0.219962
     18          6           0       -4.083420   -2.725268    0.031343
     19          6           0       -3.436739   -1.382383    0.020732
     20          6           0       -3.136751   -5.133261   -0.542235
     21          6           0       -5.572910   -2.995460    0.241775
     22          8           0       -6.440450   -2.106233    0.335621
     23          6           0       -6.049640   -4.364869    0.123847
     24          7           0       -2.258486    1.579941   -0.246117
     25          6           0       -3.603737    1.243297   -0.120616
     26          6           0       -4.461398    2.567058   -0.102602
     27          6           0       -3.389383    3.684759   -0.069394
     28          6           0       -2.070424    2.914047   -0.160217
     29          6           0       -5.498722    2.622389   -1.224418
     30          6           0       -3.495588    4.700064    1.096237
     31          6           0       -3.204694    6.186856    0.785453
     32          7           0        0.599459    1.625570   -0.017687
     33          6           0        0.438229    2.988125   -0.248220
     34          6           0        1.726833    3.625070   -0.149425
     35          6           0        2.655227    2.589201   -0.035385
     36          6           0        1.942126    1.362241    0.057778
     37          6           0        1.992071    5.003445   -0.147228
     38          6           0        4.078542    2.256440    0.124109
     39          8           0        5.086366    2.940818    0.203472
     40          6           0        4.176509    0.706377    0.306016
     41          6           0        5.106087    0.183391   -0.774545
     42          8           0        4.945777   -0.119339   -1.935260
     43          8           0        6.267145    0.004921   -0.079379
     44          6           0        7.328889   -0.815881   -0.709037
     45          1           0       -0.393740   -4.411069   -0.067226
     46          1           0       -5.136374   -0.207515    0.231476
     47          1           0       -0.870385    4.671752   -0.183834
     48          1           0        3.990473   -2.402801   -0.028680
     49          1           0        2.047089   -4.308002    0.452083
     50          1           0        2.391540   -4.694760   -2.005986
     51          1           0        3.602737   -3.533607   -1.862006
     52          1           0        1.867191   -3.030569   -2.250566
     53          1           0        2.642242   -3.341004    2.418928
     54          1           0        3.328453   -1.829556    2.613231
     55          1           0        4.687698   -3.705592    3.306054
     56          1           0        5.453655   -2.391992    2.239865
     57          1           0       -3.521979   -5.746023    0.272448
     58          1           0       -2.148345   -5.495352   -0.826546
     59          1           0       -3.872413   -5.375891   -1.309113
     60          1           0       -5.499378   -5.027991    0.791887
     61          1           0       -5.955588   -4.720751   -0.902196
     62          1           0       -7.055672   -4.384019    0.541790
     63          1           0       -4.927319    2.606466    0.882127
     64          1           0       -3.358151    4.213590   -1.021806
     65          1           0       -5.046891    3.080971   -2.104610
     66          1           0       -6.358893    3.257736   -1.015788
     67          1           0       -5.684587    1.611071   -1.584561
     68          1           0       -2.930542    4.417372    1.984307
     69          1           0       -4.494851    4.687103    1.533516
     70          1           0       -2.168278    6.323434    1.094487
     71          1           0       -3.838791    6.742261    1.477248
     72          1           0       -3.359719    6.387038   -0.274379
     73          1           0        2.978263    5.369815   -0.431463
     74          1           0        1.710673    5.373250    0.839257
     75          1           0        1.327476    5.423577   -0.901281
     76          1           0        4.554814    0.470665    1.300545
     77          1           0        7.693187   -1.454979    0.094777
     78          1           0        8.185846   -0.272811   -1.106726
     79          1           0        6.899381   -1.446012   -1.487414
 ---------------------------------------------------------------------

 SCF Done:  E(RwB97XD) =  -2035.29834132     A.U. after   20 cycles

 Excitation energies and oscillator strengths:

 Excited State   1:      Singlet-A      1.6742 eV  740.54 nm  f=0.3810  <S**2>=0.000
     155 ->158         0.19706
     156 ->157         0.67924
     155 <-158         0.11761
 This state for optimization and/or second-order correction.
 Total Energy, E(TD-HF/TD-DFT) =  -2035.23681408
 Copying the excited state density for this state as the 1-particle RhoCI density.

 Excited State   2:      Singlet-A      2.2066 eV  561.87 nm  f=0.0673  <S**2>=0.000
     155 ->157         0.62033
     156 ->158        -0.32390

 Excited State   3:      Singlet-A      3.4058 eV  364.04 nm  f=0.1379  <S**2>=0.000
     154 ->157         0.57112
     155 ->157         0.13906
     156 ->158         0.36092

 Excited State   4:      Singlet-A      3.5262 eV  351.61 nm  f=0.5078  <S**2>=0.000
     152 ->157         0.23794
     154 ->157        -0.35681
     155 ->157         0.26440
     156 ->158         0.47164

 Excited State   5:      Singlet-A      3.5761 eV  346.71 nm  f=0.0103  <S**2>=0.000
     153 ->157         0.54737
     153 ->159         0.28322
     153 ->160        -0.29163

 The electronic state is 1-A.
 Alpha  occ. eigenvalues --  -46.95707 -19.29605 -19.24973 -19.24304 -19.23728
 Alpha  occ. eigenvalues --  -14.46365 -14.46004 -14.44431 -14.43556 -10.43087
 Alpha  occ. eigenvalues --  -10.39495 -10.38832 -10.35776 -10.35200 -10.34832
 Alpha  occ. eigenvalues --  -10.34821 -10.34327 -10.34044 -10.33992 -10.33835
 Alpha  occ. eigenvalues --  -10.33651 -10.33562 -10.32200 -10.31963 -10.31929
 Alpha  occ. eigenvalues --  -10.31832 -10.31640 -10.31618 -10.31583 -10.31581
 Alpha  occ. eigenvalues --  -10.31349 -10.31299 -10.31253 -10.30767 -10.30569
 Alpha  occ. eigenvalues --  -10.30304 -10.30228 -10.29922 -10.29632 -10.29561
 Alpha  occ. eigenvalues --  -10.29470 -10.29092 -10.28838  -3.21553  -1.95136
 Alpha  occ. eigenvalues --   -1.94673  -1.94510  -1.18288  -1.11826  -1.11582
 Alpha  occ. eigenvalues --   -1.09966  -1.07187  -1.05946  -1.05049  -1.04091
 Alpha  occ. eigenvalues --   -0.94745  -0.90764  -0.90366  -0.89877  -0.89488
 Alpha  occ. eigenvalues --   -0.89073  -0.88806  -0.86137  -0.85482  -0.84612
 Alpha  occ. eigenvalues --   -0.84406  -0.83445  -0.82566  -0.80346  -0.79371
 Alpha  occ. eigenvalues --   -0.78951  -0.77785  -0.77047  -0.74494  -0.73789
 Alpha  occ. eigenvalues --   -0.70860  -0.70667  -0.69694  -0.69325  -0.67428
 Alpha  occ. eigenvalues --   -0.67284  -0.66967  -0.66325  -0.63937  -0.62486
 Alpha  occ. eigenvalues --   -0.61558  -0.61230  -0.60289  -0.59894  -0.59496
 Alpha  occ. eigenvalues --   -0.58159  -0.57857  -0.57134  -0.56403  -0.55639
 Alpha  occ. eigenvalues --   -0.55508  -0.55183  -0.55135  -0.54876  -0.54332
 Alpha  occ. eigenvalues --   -0.54034  -0.53604  -0.53503  -0.53151  -0.52718
 Alpha  occ. eigenvalues --   -0.52346  -0.51896  -0.51593  -0.51328  -0.50931
 Alpha  occ. eigenvalues --   -0.50731  -0.50100  -0.49570  -0.49311  -0.49028
 Alpha  occ. eigenvalues --   -0.48854  -0.48573  -0.48190  -0.47857  -0.47464
 Alpha  occ. eigenvalues --   -0.46967  -0.46815  -0.46605  -0.46302  -0.46000
 Alpha  occ. eigenvalues --   -0.45766  -0.45616  -0.44945  -0.44890  -0.44686
 Alpha  occ. eigenvalues --   -0.44227  -0.44088  -0.43920  -0.43500  -0.43201
 Alpha  occ. eigenvalues --   -0.42798  -0.42437  -0.42124  -0.41762  -0.41482
 Alpha  occ. eigenvalues --   -0.40669  -0.39690  -0.39327  -0.38574  -0.38471
 Alpha  occ. eigenvalues --   -0.37836  -0.36648  -0.35914  -0.35312  -0.33684
 Alpha  occ. eigenvalues --   -0.33363  -0.32730  -0.32434  -0.31421  -0.25890
 Alpha  occ. eigenvalues --   -0.22774
 Alpha virt. eigenvalues --   -0.06621  -0.00144   0.01927   0.04286   0.05021
 Alpha virt. eigenvalues --    0.07854   0.08044   0.08306   0.09726   0.10487
 Alpha virt. eigenvalues --    0.11336   0.12235   0.12748   0.12936   0.13975

 Mulliken charges:
               1
     1  Mg   0.942219
     2  C   -0.052001
     3  C   -0.101163
     4  C   -0.067670
     5  C   -0.090814
     6  N   -0.320442
     7  C    0.052417
     8  C   -0.094573
     9  C   -0.080739
    10  C   -0.005932
    11  C    0.041933
    12  C   -0.020869
    13  C   -0.113923
    14  H    0.029612
    15  N   -0.427986
    16  C    0.194944
    17  C   -0.167293
    18  C   -0.071080
    19  C    0.113791
    20  C    0.058798
    21  C    0.066967
    22  O   -0.250761
    23  C   -0.004206
    24  N   -0.356296
    25  C    0.033240
    26  C   -0.062093
    27  C   -0.056384
    28  C    0.068459
    29  C    0.048394
    30  C   -0.039059
    31  C   -0.040958
    32  N   -0.439531
    33  C    0.135338
    34  C   -0.196828
    35  C   -0.015726
    36  C    0.167455
    37  C    0.061255
    38  C    0.109518
    39  O   -0.199677
    40  C   -0.077073
    41  C    0.279466
    42  O   -0.226450
    43  O   -0.373856
    44  C    0.131612
    45  H   -0.012458
    46  H    0.026183
    47  H   -0.012811
    48  H    0.024516
    49  H    0.020084
    50  H    0.029359
    51  H    0.045929
    52  H    0.057434
    53  H    0.021573
    54  H    0.024527
    55  H    0.065205
    56  H    0.071821
    57  H    0.043686
    58  H    0.040996
    59  H    0.041482
    60  H    0.037675
    61  H    0.075214
    62  H    0.054607
    63  H    0.039206
    64  H    0.033356
    65  H    0.015965
    66  H    0.046696
    67  H    0.047938
    68  H    0.025306
    69  H    0.022971
    70  H    0.043268
    71  H    0.039861
    72  H    0.045447
    73  H    0.060006
    74  H    0.054166
    75  H    0.037937
    76  H    0.081376
    77  H    0.047544
    78  H    0.063815
    79  H    0.058086
 Sum of Mulliken charges =  -0.00000

 Dipole moment (field-independent basis, Debye):
    X=             -1.7451    Y=             -3.2696    Z=              2.5299  Tot=              4.4874
 Quadrupole moment (field-independent basis, Debye-Ang):
   XX=           -271.7584   YY=           -222.7764   ZZ=           -256.3578
   XY=            -23.1106   XZ=              6.0319   YZ=              1.7170

 Normal termination of Gaussian 16 at Sun Sep 19 13:38:17 2021.
