 Gaussian 16, Revision A.03,
 Gaussian 16:  ES64L-G16RevA.03 25-Dec-2016

 --------------------------------
 #p wB97XD/Def2SVP td=(nstates=5)
 --------------------------------

 --------------------------------
 TDDFT excited states in gaussian
 --------------------------------
 Symbolic Z-matrix:
 Charge =  0 Multiplicity = 1

                         Standard orientation:
 ---------------------------------------------------------------------
 Center     Atomic      Atomic             Coordinates (Angstroms)
 Number     Number       Type             X           Y           Z
 ---------------------------------------------------------------------
      1         12           0      -21.657956    0.108494   -0.400866
      2          6           0      -18.316757   -0.359428    0.367883
      3          6           0      -22.240197   -3.246634    0.205658
      4          6           0      -24.965770    0.781568   -0.413874
      5          6           0      -20.910182    3.547079   -0.634556
      6          7           0      -20.454381   -1.553198    0.498284
      7          6           0      -19.119316   -1.510603    0.522893
      8          6           0      -18.551272   -2.862385    1.055526
      9          6           0      -19.768969   -3.851402    0.733806
     10          6           0      -20.918262   -2.833231    0.375892
     11          6           0      -19.414137   -4.918768   -0.329365
     12          6           0      -18.318415   -2.785683    2.547273
     13          6           0      -17.045968   -3.451831    3.047006
     14          1           0      -16.972284   -4.235115    4.411618
     15          7           0      -23.370797   -1.162537   -0.303864
     16          6           0      -23.434061   -2.466562    0.015942
     17          6           0      -24.804528   -2.858756   -0.048585
     18          6           0      -25.615932   -1.738956   -0.404330
     19          6           0      -24.666026   -0.619794   -0.428816
     20          6           0      -25.211159   -4.283233    0.039919
     21          6           0      -27.101378   -1.772332   -0.473288
     22          8           0      -27.698857   -2.824759   -0.320522
     23          6           0      -27.913860   -0.525620   -0.802175
     24          7           0      -22.803998    1.993310   -0.602240
     25          6           0      -24.161385    1.938938   -0.498299
     26          6           0      -24.734717    3.311217   -0.354266
     27          6           0      -23.401919    4.197008   -0.420486
     28          6           0      -22.259733    3.234682   -0.632901
     29          6           0      -25.824763    3.667247   -1.382440
     30          6           0      -23.155634    5.179607    0.808653
     31          6           0      -22.862084    6.679362    0.569527
     32          7           0      -20.010709    1.346498   -0.214687
     33          6           0      -19.849211    2.682740   -0.406067
     34          6           0      -18.494044    2.987163   -0.541642
     35          6           0      -17.797042    1.817997   -0.270237
     36          6           0      -18.756029    0.872510   -0.006089
     37          6           0      -17.931688    4.415694   -0.800176
     38          6           0      -16.546733    1.225170   -0.166588
     39          8           0      -15.447752    1.766928   -0.210107
     40          6           0      -16.752042   -0.290917    0.316554
     41          6           0      -16.312963   -1.222774   -0.658515
     42          8           0      -16.829348   -1.587641   -1.717437
     43          8           0      -15.103080   -1.725474   -0.189754
     44          6           0      -14.363483   -2.716400   -0.952586
     45          1           0      -22.404595   -4.325376    0.241456
     46          1           0      -25.993659    1.150560   -0.439714
     47          1           0      -20.784223    4.616961   -0.813880
     48          1           0      -17.617897   -3.061700    0.529772
     49          1           0      -20.187008   -4.341476    1.612510
     50          1           0      -18.426451   -4.750244   -0.758071
     51          1           0      -20.166996   -4.910493   -1.118195
     52          1           0      -19.483499   -5.894262    0.151438
     53          1           0      -19.119931   -3.127954    3.202205
     54          1           0      -18.353347   -1.719342    2.770353
     55          1           0      -16.266052   -2.691529    3.008490
     56          1           0      -16.843480   -4.149390    2.234305
     57          1           0      -25.324838   -4.563584   -1.007092
     58          1           0      -26.136757   -4.401348    0.603644
     59          1           0      -24.464343   -4.914047    0.522162
     60          1           0      -27.971449    0.040493    0.127626
     61          1           0      -28.931548   -0.876432   -0.971723
     62          1           0      -27.459686    0.026501   -1.624867
     63          1           0      -25.139733    3.239392    0.654625
     64          1           0      -23.441629    4.920002   -1.235247
     65          1           0      -26.767774    3.644151   -0.835274
     66          1           0      -25.837319    2.993215   -2.239582
     67          1           0      -25.679642    4.692919   -1.720738
     68          1           0      -22.304870    4.805134    1.377744
     69          1           0      -24.012503    5.241195    1.479897
     70          1           0      -21.775018    6.639492    0.501481
     71          1           0      -23.136815    7.263797    1.446671
     72          1           0      -23.118549    7.143359   -0.382764
     73          1           0      -18.021968    4.992305    0.119520
     74          1           0      -18.470175    5.018637   -1.531592
     75          1           0      -16.878496    4.374720   -1.079417
     76          1           0      -16.239955   -0.365894    1.275973
     77          1           0      -13.306569   -2.552071   -0.745021
     78          1           0      -14.606660   -2.761989   -2.014469
     79          1           0      -14.567467   -3.690097   -0.506935
     80         12           0       20.872648    0.823865   -0.319675
     81          6           0       21.676398   -2.668723   -0.146395
     82          6           0       18.061810   -0.008920    1.721289
     83          6           0       20.448507    4.042757    0.545021
     84          6           0       23.980862    1.401392   -1.624198
     85          7           0       20.046011   -1.100652    0.665912
     86          6           0       20.513690   -2.379260    0.576915
     87          6           0       19.608951   -3.388614    1.366336
     88          6           0       18.283519   -2.510896    1.575223
     89          6           0       18.855741   -1.115488    1.382867
     90          6           0       17.185092   -2.775222    0.571108
     91          6           0       20.289108   -3.982122    2.588941
     92          6           0       20.128059   -5.505711    2.829280
     93          1           0       19.074182   -6.062523    3.895658
     94          7           0       19.357139    1.936768    0.909400
     95          6           0       18.244862    1.376779    1.571819
     96          6           0       17.451296    2.463252    2.159129
     97          6           0       18.138384    3.679191    1.767778
     98          6           0       19.377002    3.273377    1.139077
     99          6           0       16.240746    2.331374    3.004468
    100          6           0       17.618006    5.077351    1.988752
    101          8           0       16.481635    5.207386    2.384962
    102          6           0       18.416177    6.335628    1.736336
    103          7           0       22.099950    2.381177   -0.423625
    104          6           0       21.608708    3.652190   -0.139033
    105          6           0       22.717847    4.654381   -0.467241
    106          6           0       23.729948    3.829414   -1.343608
    107          6           0       23.211679    2.443533   -1.155977
    108          6           0       22.307000    6.048911   -1.067480
    109          6           0       25.254290    3.998162   -1.060464
    110          6           0       26.139808    4.386233   -2.199423
    111          7           0       22.459984   -0.329294   -0.912328
    112          6           0       23.656177    0.029636   -1.508724
    113          6           0       24.368584   -1.161199   -2.010765
    114          6           0       23.614518   -2.244272   -1.412865
    115          6           0       22.514639   -1.664123   -0.773531
    116          6           0       25.618701   -1.268662   -2.843717
    117          6           0       23.565621   -3.731913   -1.300876
    118          8           0       24.343206   -4.566910   -1.666109
    119          6           0       22.377510   -4.009003   -0.385457
    120          6           0       21.467032   -4.966427   -1.094750
    121          8           0       20.903695   -4.599193   -2.103426
    122          8           0       21.259599   -6.224873   -0.454183
    123          6           0       20.200673   -7.103559   -1.037168
    124          1           0       17.162934   -0.227649    2.301766
    125          1           0       20.452059    5.119530    0.722328
    126          1           0       24.872015    1.628989   -2.212337
    127          1           0       19.252682   -4.197214    0.728752
    128          1           0       17.929254   -2.563530    2.604633
    129          1           0       17.416962   -2.228634   -0.342702
    130          1           0       16.246631   -2.477373    1.038534
    131          1           0       17.029026   -3.795112    0.218046
    132          1           0       19.831679   -3.496810    3.450556
    133          1           0       21.317663   -3.621768    2.604704
    134          1           0       21.130463   -5.811637    3.129736
    135          1           0       19.891646   -6.063633    1.923143
    136          1           0       15.390103    2.485488    2.341262
    137          1           0       16.198616    3.169239    3.700458
    138          1           0       16.073936    1.426500    3.590060
    139          1           0       17.938296    7.262550    2.052820
    140          1           0       18.549328    6.381787    0.655415
    141          1           0       19.435507    6.406329    2.114088
    142          1           0       23.072364    4.916194    0.530112
    143          1           0       23.489208    4.005309   -2.391613
    144          1           0       21.308288    6.001062   -1.502343
    145          1           0       23.055923    6.392638   -1.780737
    146          1           0       22.320663    6.811245   -0.288839
    147          1           0       25.635349    3.070441   -0.633708
    148          1           0       25.347508    4.696482   -0.228849
    149          1           0       26.731846    3.522156   -2.500293
    150          1           0       26.830013    5.165291   -1.875999
    151          1           0       25.662434    4.753038   -3.107829
    152          1           0       25.674809   -2.236038   -3.342432
    153          1           0       26.456226   -1.122962   -2.160922
    154          1           0       25.645235   -0.409948   -3.514791
    155          1           0       22.776234   -4.340305    0.573493
    156          1           0       20.598510   -7.603159   -1.920638
    157          1           0       19.351677   -6.513397   -1.381500
    158          1           0       19.844703   -7.822285   -0.299301
 ---------------------------------------------------------------------

 SCF Done:  E(RwB97XD) =  -4070.58655075     A.U. after   17 cycles

 Excitation energies and oscillator strengths:

 Excited State   1:      Singlet-A      1.6113 eV  769.44 nm  f=0.4122  <S**2>=0.000
     310 -> 316        0.17511
     312 -> 314        0.68588
     310 <- 316        0.11585
 This state for optimization and/or second-order correction.
 Total Energy, E(TD-HF/TD-DFT) =  -4070.52733483
 Copying the excited state density for this state as the 1-particle RhoCI density.

 Excited State   2:      Singlet-A      1.6376 eV  757.12 nm  f=0.3896  <S**2>=0.000
     309 -> 315       -0.19091
     311 -> 313        0.68221
     309 <- 315       -0.11962

 Excited State   3:      Singlet-A      2.1723 eV  570.76 nm  f=0.0953  <S**2>=0.000
     309 -> 313        0.63454
     311 -> 315        0.29663

 Excited State   4:      Singlet-A      2.1826 eV  568.05 nm  f=0.1263  <S**2>=0.000
     310 -> 314        0.63920
     312 -> 316       -0.28430

 Excited State   5:      Singlet-A      3.1513 eV  393.44 nm  f=0.0019  <S**2>=0.000
     306 -> 314       -0.12186
     308 -> 314        0.66861
     312 -> 316        0.10233

 The electronic state is 1-A.
 Alpha  occ. eigenvalues --  -46.96035 -46.95660 -19.30506 -19.29886 -19.25672
 Alpha  occ. eigenvalues --  -19.25139 -19.24785 -19.24326 -19.23373 -19.22962
 Alpha  occ. eigenvalues --  -14.47396 -14.46931 -14.46618 -14.46257 -14.44425
 Alpha  occ. eigenvalues --  -14.43937 -14.43820 -14.43739 -10.44108 -10.43457
 Alpha  occ. eigenvalues --  -10.39436 -10.39258 -10.38581 -10.38440 -10.36031
 Alpha  occ. eigenvalues --  -10.35573 -10.35446 -10.35414 -10.35393 -10.35326
 Alpha  occ. eigenvalues --  -10.35317 -10.35157 -10.34894 -10.34696 -10.34474
 Alpha  occ. eigenvalues --  -10.34296 -10.34278 -10.33811 -10.33498 -10.33438
 Alpha  occ. eigenvalues --  -10.33221 -10.33109 -10.32895 -10.32844 -10.32809
 Alpha  occ. eigenvalues --  -10.32780 -10.32765 -10.32690 -10.32495 -10.32481
 Alpha  occ. eigenvalues --  -10.32397 -10.32353 -10.32249 -10.32234 -10.32084
 Alpha  occ. eigenvalues --  -10.32056 -10.31922 -10.31915 -10.31895 -10.31822
 Alpha  occ. eigenvalues --  -10.31622 -10.31439 -10.31288 -10.31080 -10.31036
 Alpha  occ. eigenvalues --  -10.30847 -10.30743 -10.30735 -10.30711 -10.30595
 Alpha  occ. eigenvalues --  -10.30486 -10.30446 -10.30385 -10.30355 -10.30284
 Alpha  occ. eigenvalues --  -10.29991 -10.29913 -10.29897 -10.29732 -10.29729
 Alpha  occ. eigenvalues --  -10.29705 -10.29619 -10.29533 -10.29267 -10.28873
 Alpha  occ. eigenvalues --  -10.28833  -3.21825  -3.21693  -1.95422  -1.95224
 Alpha  occ. eigenvalues --   -1.94936  -1.94814  -1.94783  -1.94665  -1.17913
 Alpha  occ. eigenvalues --   -1.17523  -1.13987  -1.12391  -1.12289  -1.12199
 Alpha  occ. eigenvalues --   -1.10093  -1.09718  -1.07568  -1.06572  -1.06094
 Alpha  occ. eigenvalues --   -1.05877  -1.05585  -1.04795  -1.04673  -1.03530
 Alpha  occ. eigenvalues --   -0.95908  -0.94748  -0.91414  -0.91258  -0.91012
 Alpha  occ. eigenvalues --   -0.90755  -0.90339  -0.90270  -0.89840  -0.89525
 Alpha  occ. eigenvalues --   -0.88855  -0.88179  -0.88166  -0.87580  -0.87377
 Alpha  occ. eigenvalues --   -0.86539  -0.86394  -0.85845  -0.84955  -0.84399
 Alpha  occ. eigenvalues --   -0.84169  -0.83730  -0.83460  -0.82753  -0.82488
 Alpha  occ. eigenvalues --   -0.82168  -0.80140  -0.80078  -0.79561  -0.79428
 Alpha  occ. eigenvalues --   -0.78737  -0.78511  -0.78431  -0.78250  -0.77158
 Alpha  occ. eigenvalues --   -0.77133  -0.75508  -0.74638  -0.74391  -0.73745
 Alpha  occ. eigenvalues --   -0.71844  -0.71436  -0.71207  -0.70890  -0.70101
 Alpha  occ. eigenvalues --   -0.69910  -0.69362  -0.68678  -0.68102  -0.67852
 Alpha  occ. eigenvalues --   -0.67848  -0.67497  -0.67056  -0.66872  -0.66545
 Alpha  occ. eigenvalues --   -0.66313  -0.64715  -0.64338  -0.62492  -0.61930
 Alpha  occ. eigenvalues --   -0.61795  -0.61497  -0.61184  -0.61104  -0.61070
 Alpha  occ. eigenvalues --   -0.61036  -0.60320  -0.60175  -0.60012  -0.59624
 Alpha  occ. eigenvalues --   -0.58488  -0.58343  -0.58111  -0.57594  -0.57470
 Alpha  occ. eigenvalues --   -0.57414  -0.56796  -0.56322  -0.56226  -0.55824
 Alpha  occ. eigenvalues --   -0.55520  -0.55340  -0.55303  -0.55049  -0.54835
 Alpha  occ. eigenvalues --   -0.54596  -0.54262  -0.54160  -0.54056  -0.54011
 Alpha  occ. eigenvalues --   -0.53815  -0.53760  -0.53663  -0.53451  -0.53230
 Alpha  occ. eigenvalues --   -0.53224  -0.53019  -0.52830  -0.52333  -0.52304
 Alpha  occ. eigenvalues --   -0.52089  -0.51934  -0.51859  -0.51801  -0.51667
 Alpha  occ. eigenvalues --   -0.51527  -0.51427  -0.51232  -0.51006  -0.50983
 Alpha  occ. eigenvalues --   -0.50929  -0.50636  -0.50519  -0.50338  -0.50208
 Alpha  occ. eigenvalues --   -0.50085  -0.49594  -0.49442  -0.49001  -0.48925
 Alpha  occ. eigenvalues --   -0.48842  -0.48713  -0.48654  -0.48539  -0.48362
 Alpha  occ. eigenvalues --   -0.48332  -0.48122  -0.48085  -0.47975  -0.47902
 Alpha  occ. eigenvalues --   -0.47893  -0.47763  -0.47742  -0.47428  -0.47265
 Alpha  occ. eigenvalues --   -0.47191  -0.47096  -0.46895  -0.46669  -0.46588
 Alpha  occ. eigenvalues --   -0.46495  -0.45842  -0.45710  -0.45563  -0.45557
 Alpha  occ. eigenvalues --   -0.45393  -0.45382  -0.45235  -0.45089  -0.44835
 Alpha  occ. eigenvalues --   -0.44806  -0.44543  -0.44477  -0.44385  -0.44149
 Alpha  occ. eigenvalues --   -0.44013  -0.43862  -0.43825  -0.43808  -0.43542
 Alpha  occ. eigenvalues --   -0.43334  -0.43011  -0.42925  -0.42720  -0.42461
 Alpha  occ. eigenvalues --   -0.42208  -0.42145  -0.41636  -0.41175  -0.40408
 Alpha  occ. eigenvalues --   -0.40303  -0.40151  -0.39912  -0.39643  -0.39414
 Alpha  occ. eigenvalues --   -0.39344  -0.39248  -0.39149  -0.38602  -0.38286
 Alpha  occ. eigenvalues --   -0.37756  -0.37592  -0.36988  -0.36838  -0.36503
 Alpha  occ. eigenvalues --   -0.36381  -0.35770  -0.35448  -0.34041  -0.33624
 Alpha  occ. eigenvalues --   -0.33311  -0.33276  -0.32681  -0.32629  -0.32389
 Alpha  occ. eigenvalues --   -0.31852  -0.31652  -0.30904  -0.26488  -0.26216
 Alpha  occ. eigenvalues --   -0.23355  -0.22910
 Alpha virt. eigenvalues --   -0.07557  -0.07332  -0.00382   0.00444   0.01888
 Alpha virt. eigenvalues --    0.02729   0.04245   0.04440   0.04832   0.05671
 Alpha virt. eigenvalues --    0.06219   0.06522   0.06927   0.07179   0.07988

 Mulliken charges:
               1
     1  Mg   0.939040
     2  C   -0.063602
     3  C   -0.088018
     4  C   -0.039684
     5  C   -0.124286
     6  N   -0.332206
     7  C    0.012993
     8  C   -0.124712
     9  C   -0.102968
    10  C    0.083832
    11  C    0.035822
    12  C    0.029658
    13  C   -0.116597
    14  H    0.044718
    15  N   -0.455957
    16  C    0.158204
    17  C   -0.182122
    18  C   -0.057325
    19  C    0.198420
    20  C    0.076133
    21  C    0.004717
    22  O   -0.236027
    23  C    0.002925
    24  N   -0.353893
    25  C   -0.009599
    26  C   -0.086547
    27  C   -0.051303
    28  C    0.062313
    29  C    0.022934
    30  C   -0.053251
    31  C   -0.067790
    32  N   -0.433971
    33  C    0.194462
    34  C   -0.187382
    35  C    0.053571
    36  C    0.162218
    37  C    0.075193
    38  C    0.056266
    39  O   -0.206986
    40  C   -0.077351
    41  C    0.295386
    42  O   -0.257332
    43  O   -0.388871
    44  C    0.139773
    45  H   -0.000141
    46  H   -0.030118
    47  H   -0.003594
    48  H    0.037108
    49  H    0.045712
    50  H    0.048951
    51  H    0.034010
    52  H    0.036025
    53  H    0.037196
    54  H    0.027176
    55  H    0.055820
    56  H    0.044467
    57  H    0.060696
    58  H    0.065581
    59  H    0.024425
    60  H    0.059347
    61  H    0.051988
    62  H    0.063622
    63  H    0.053045
    64  H    0.024108
    65  H    0.042376
    66  H    0.053154
    67  H    0.040440
    68  H    0.043630
    69  H    0.030911
    70  H    0.022331
    71  H    0.047998
    72  H    0.040151
    73  H    0.047496
    74  H    0.037842
    75  H    0.062271
    76  H    0.083028
    77  H    0.056875
    78  H    0.068855
    79  H    0.036417
    80  Mg   0.981439
    81  C   -0.076526
    82  C   -0.054055
    83  C   -0.080069
    84  C   -0.124448
    85  N   -0.312975
    86  C   -0.015777
    87  C   -0.066102
    88  C   -0.119828
    89  C    0.048991
    90  C    0.041523
    91  C    0.037395
    92  C   -0.107625
    93  H    0.023531
    94  N   -0.419615
    95  C    0.112334
    96  C   -0.143778
    97  C   -0.073711
    98  C    0.168687
    99  C    0.081154
   100  C    0.035487
   101  O   -0.234898
   102  C   -0.012020
   103  N   -0.451696
   104  C    0.092283
   105  C   -0.128681
   106  C   -0.033699
   107  C    0.089126
   108  C    0.013816
   109  C    0.000982
   110  C   -0.047245
   111  N   -0.442222
   112  C    0.135385
   113  C   -0.189477
   114  C   -0.106308
   115  C    0.178177
   116  C    0.090756
   117  C    0.132699
   118  O   -0.174092
   119  C   -0.015149
   120  C    0.278362
   121  O   -0.234441
   122  O   -0.404987
   123  C    0.133364
   124  H   -0.006096
   125  H   -0.037511
   126  H   -0.011858
   127  H    0.025647
   128  H    0.028731
   129  H    0.043282
   130  H    0.042652
   131  H    0.036714
   132  H    0.037363
   133  H    0.040599
   134  H    0.055473
   135  H    0.048128
   136  H    0.055571
   137  H    0.053873
   138  H    0.036860
   139  H    0.051254
   140  H    0.050092
   141  H    0.057914
   142  H    0.051502
   143  H    0.033583
   144  H    0.044852
   145  H    0.038333
   146  H    0.031055
   147  H    0.038637
   148  H    0.025374
   149  H    0.036238
   150  H    0.036895
   151  H    0.035851
   152  H    0.071574
   153  H    0.053855
   154  H    0.034426
   155  H    0.072690
   156  H    0.063782
   157  H    0.051509
   158  H    0.065088
 Sum of Mulliken charges =  -0.00000

 Dipole moment (field-independent basis, Debye):
    X=             -0.5140    Y=              3.4941    Z=              0.0731  Tot=              3.5324
 Quadrupole moment (field-independent basis, Debye-Ang):
   XX=           -451.4637   YY=           -477.4024   ZZ=           -518.0134
   XY=             -3.0121   XZ=            -14.2435   YZ=            -22.7282

 Normal termination of Gaussian 16 at Sun Sep 19 03:33:14 2021.
