 Gaussian 16, Revision A.03,
 Gaussian 16:  ES64L-G16RevA.03 25-Dec-2016

 --------------------------------
 #p wB97XD/Def2SVP td=(nstates=5)
 --------------------------------

 --------------------------------
 TDDFT excited states in gaussian
 --------------------------------
 Symbolic Z-matrix:
 Charge =  0 Multiplicity = 1

                         Standard orientation:
 ---------------------------------------------------------------------
 Center     Atomic      Atomic             Coordinates (Angstroms)
 Number     Number       Type             X           Y           Z
 ---------------------------------------------------------------------
      1         12           0      -15.658072    0.323281    0.280586
      2          6           0      -14.746113   -2.668562   -1.063736
      3          6           0      -12.294724    0.920433    0.881038
      4          6           0      -16.524633    3.418672    1.250235
      5          6           0      -18.921304   -0.090541   -0.970749
      6          7           0      -13.713793   -0.663547   -0.300726
      7          6           0      -13.649650   -1.909982   -0.810297
      8          6           0      -12.255871   -2.340257   -1.088901
      9          6           0      -11.461784   -1.298054   -0.081062
     10          6           0      -12.552163   -0.245718    0.210805
     11          6           0      -10.872014   -2.003641    1.175645
     12          6           0      -11.926560   -2.097194   -2.553222
     13          6           0      -12.116408   -0.632069   -3.164042
     14          1           0      -11.096780   -0.067766   -4.145530
     15          7           0      -14.578954    1.941263    0.965518
     16          6           0      -13.196758    1.953389    1.281218
     17          6           0      -12.939068    3.168387    1.979447
     18          6           0      -14.092765    3.937514    2.067616
     19          6           0      -15.162692    3.125129    1.464403
     20          6           0      -11.527334    3.423052    2.467241
     21          6           0      -14.222610    5.345501    2.597652
     22          8           0      -13.160113    5.868467    3.016965
     23          6           0      -15.365911    6.186216    2.474776
     24          7           0      -17.428647    1.563480   -0.051407
     25          6           0      -17.543408    2.795655    0.522074
     26          6           0      -18.934830    3.414812    0.247679
     27          6           0      -19.687802    2.248620   -0.476901
     28          6           0      -18.600306    1.192541   -0.579117
     29          6           0      -19.627470    3.921310    1.494781
     30          6           0      -20.276759    2.730618   -1.908105
     31          6           0      -21.688399    2.214154   -2.208971
     32          7           0      -16.736867   -1.099734   -0.824285
     33          6           0      -18.062059   -1.247536   -1.082472
     34          6           0      -18.254063   -2.603731   -1.519216
     35          6           0      -16.985784   -3.281122   -1.509154
     36          6           0      -16.099853   -2.297801   -1.100918
     37          6           0      -19.495950   -3.138042   -2.146509
     38          6           0      -16.234040   -4.456210   -1.812621
     39          8           0      -16.726568   -5.519399   -2.210620
     40          6           0      -14.788054   -4.114475   -1.504057
     41          6           0      -14.287868   -5.061389   -0.477918
     42          8           0      -14.331785   -6.255226   -0.701067
     43          8           0      -13.731090   -4.471448    0.615492
     44          6           0      -13.212623   -5.396363    1.625264
     45          1           0      -11.295521    0.990751    1.315632
     46          1           0      -16.832418    4.321713    1.781177
     47          1           0      -19.948014   -0.364623   -1.223415
     48          1           0      -11.990488   -3.380546   -0.900291
     49          1           0      -10.544986   -0.932019   -0.545062
     50          1           0       -9.794097   -1.851317    1.216385
     51          1           0      -11.051616   -3.071704    1.049983
     52          1           0      -11.323265   -1.701918    2.121756
     53          1           0      -12.462443   -2.852361   -3.128614
     54          1           0      -10.913485   -2.492557   -2.626186
     55          1           0      -12.175320    0.179126   -2.438255
     56          1           0      -13.035493   -0.753213   -3.736633
     57          1           0      -11.003056    3.860174    1.617235
     58          1           0      -11.057563    2.468365    2.700543
     59          1           0      -11.424979    4.067463    3.340888
     60          1           0      -15.090428    7.240073    2.423873
     61          1           0      -16.146194    5.972345    3.206336
     62          1           0      -15.737845    5.997687    1.468603
     63          1           0      -18.709727    4.223984   -0.447944
     64          1           0      -20.440241    1.832820    0.192933
     65          1           0      -19.012202    3.877135    2.393049
     66          1           0      -20.631394    3.589946    1.758801
     67          1           0      -19.642919    4.999235    1.331094
     68          1           0      -19.663408    2.435977   -2.759690
     69          1           0      -20.272296    3.815884   -2.007913
     70          1           0      -22.379380    3.051979   -2.119767
     71          1           0      -21.969631    1.515611   -1.420619
     72          1           0      -21.777503    1.771397   -3.201125
     73          1           0      -20.371087   -3.257926   -1.509004
     74          1           0      -19.206029   -4.097473   -2.576580
     75          1           0      -19.859054   -2.496148   -2.949220
     76          1           0      -14.237058   -4.267008   -2.432545
     77          1           0      -12.472903   -6.035092    1.141772
     78          1           0      -13.991216   -5.967032    2.131707
     79          1           0      -12.812655   -4.848531    2.478371
     80         12           0       15.557052    0.750068   -0.233684
     81          6           0       15.249885   -2.530806    0.964767
     82          6           0       12.835623    1.603105    1.695139
     83          6           0       15.847495    3.823697   -1.399928
     84          6           0       18.216800   -0.340856   -2.253169
     85          7           0       14.297411   -0.362278    1.209722
     86          6           0       14.307341   -1.713030    1.558126
     87          6           0       13.429898   -2.036014    2.830697
     88          6           0       12.619502   -0.755322    2.883532
     89          6           0       13.290421    0.255787    1.864576
     90          6           0       11.126883   -1.009420    2.374830
     91          6           0       14.484228   -2.083193    4.024089
     92          6           0       14.297837   -3.231223    5.111005
     93          1           0       12.830735   -3.527721    5.289236
     94          7           0       14.422581    2.383813   -0.010525
     95          6           0       13.371436    2.560292    0.785122
     96          6           0       12.864674    3.906445    0.743413
     97          6           0       13.815970    4.630821   -0.001903
     98          6           0       14.746344    3.586520   -0.574783
     99          6           0       11.646726    4.405384    1.430704
    100          6           0       14.004509    6.124653   -0.168000
    101          8           0       15.030865    6.622978   -0.644095
    102          6           0       12.853949    7.080351    0.159790
    103          7           0       16.848036    1.596956   -1.689118
    104          6           0       16.759610    2.952541   -1.901306
    105          6           0       17.925203    3.378602   -2.791381
    106          6           0       18.791468    2.040516   -2.987394
    107          6           0       17.969309    1.029167   -2.232696
    108          6           0       17.379159    4.089843   -4.079635
    109          6           0       20.253292    2.099716   -2.572697
    110          6           0       21.241496    1.624057   -3.683272
    111          7           0       16.518049   -1.059932   -0.594600
    112          6           0       17.599002   -1.365348   -1.479979
    113          6           0       17.905556   -2.750114   -1.425825
    114          6           0       16.996447   -3.230323   -0.468147
    115          6           0       16.163025   -2.171889   -0.050814
    116          6           0       18.952735   -3.546843   -2.135105
    117          6           0       16.566119   -4.386936    0.250205
    118          8           0       16.905969   -5.546377    0.219527
    119          6           0       15.492589   -3.932458    1.279165
    120          6           0       14.329397   -4.853134    1.199812
    121          8           0       13.505704   -4.944189    0.293903
    122          8           0       14.304816   -5.543885    2.343776
    123          6           0       13.197379   -6.456742    2.535173
    124          1           0       12.079821    2.037790    2.352412
    125          1           0       15.882734    4.856540   -1.755481
    126          1           0       19.076391   -0.710513   -2.816234
    127          1           0       13.012586   -3.024006    2.638683
    128          1           0       12.649711   -0.331906    3.886921
    129          1           0       10.965085   -2.040008    2.058284
    130          1           0       10.935605   -0.345077    1.532338
    131          1           0       10.507999   -0.735878    3.229452
    132          1           0       14.509228   -1.166975    4.613279
    133          1           0       15.466247   -2.154381    3.555736
    134          1           0       14.552368   -2.862558    6.104754
    135          1           0       15.015530   -4.039260    4.966907
    136          1           0       11.989205    5.083655    2.213401
    137          1           0       11.100186    3.595113    1.911244
    138          1           0       10.964129    4.938157    0.769318
    139          1           0       13.181030    7.955242   -0.401597
    140          1           0       12.722643    7.266803    1.226322
    141          1           0       11.877724    6.853074   -0.268078
    142          1           0       18.595275    4.125813   -2.366295
    143          1           0       18.756670    1.762797   -4.040926
    144          1           0       17.992361    4.982527   -4.203432
    145          1           0       16.313610    4.316681   -4.042880
    146          1           0       17.679835    3.557120   -4.982571
    147          1           0       20.483717    1.547362   -1.662244
    148          1           0       20.462908    3.168345   -2.507944
    149          1           0       20.711411    1.439442   -4.617773
    150          1           0       21.637795    0.631284   -3.471048
    151          1           0       22.025091    2.361359   -3.859029
    152          1           0       19.850310   -3.241718   -1.596473
    153          1           0       18.885894   -3.277855   -3.189048
    154          1           0       18.837787   -4.618771   -1.980569
    155          1           0       15.967730   -4.141728    2.238503
    156          1           0       13.129348   -7.141753    1.689588
    157          1           0       12.199712   -6.018039    2.573134
    158          1           0       13.417377   -7.010046    3.448344
 ---------------------------------------------------------------------

 SCF Done:  E(RwB97XD) =  -4070.63417453     A.U. after   19 cycles

 Excitation energies and oscillator strengths:

 Excited State   1:      Singlet-A      1.6806 eV  737.72 nm  f=0.3103  <S**2>=0.000
     310 -> 316       -0.16244
     311 -> 313       -0.13434
     312 -> 314        0.67224
     310 <- 316       -0.10320
 This state for optimization and/or second-order correction.
 Total Energy, E(TD-HF/TD-DFT) =  -4070.57241240
 Copying the excited state density for this state as the 1-particle RhoCI density.

 Excited State   2:      Singlet-A      1.6885 eV  734.27 nm  f=0.4620  <S**2>=0.000
     309 -> 315       -0.17849
     311 -> 313        0.66977
     312 -> 314        0.13462
     309 <- 315       -0.11057

 Excited State   3:      Singlet-A      2.1632 eV  573.15 nm  f=0.1264  <S**2>=0.000
     309 -> 313        0.64778
     311 -> 315        0.25632

 Excited State   4:      Singlet-A      2.2342 eV  554.93 nm  f=0.1199  <S**2>=0.000
     310 -> 314        0.63517
     312 -> 316        0.28434

 Excited State   5:      Singlet-A      3.2084 eV  386.44 nm  f=0.0008  <S**2>=0.000
     305 -> 313       -0.33380
     308 -> 313        0.60089

 The electronic state is 1-A.
 Alpha  occ. eigenvalues --  -46.95498 -46.94117 -19.31617 -19.30448 -19.25016
 Alpha  occ. eigenvalues --  -19.24443 -19.23727 -19.23337 -19.23276 -19.22380
 Alpha  occ. eigenvalues --  -14.46854 -14.46700 -14.46685 -14.46226 -14.44861
 Alpha  occ. eigenvalues --  -14.44479 -14.43208 -14.43029 -10.43321 -10.42141
 Alpha  occ. eigenvalues --  -10.40277 -10.38857 -10.38465 -10.37098 -10.36509
 Alpha  occ. eigenvalues --  -10.36005 -10.35770 -10.35367 -10.35265 -10.35149
 Alpha  occ. eigenvalues --  -10.35090 -10.34747 -10.34746 -10.34532 -10.34510
 Alpha  occ. eigenvalues --  -10.34462 -10.34216 -10.34057 -10.33294 -10.33199
 Alpha  occ. eigenvalues --  -10.33060 -10.32973 -10.32868 -10.32622 -10.32537
 Alpha  occ. eigenvalues --  -10.32510 -10.32491 -10.32467 -10.32452 -10.32401
 Alpha  occ. eigenvalues --  -10.32198 -10.32169 -10.32123 -10.31843 -10.31826
 Alpha  occ. eigenvalues --  -10.31636 -10.31607 -10.31561 -10.31473 -10.31429
 Alpha  occ. eigenvalues --  -10.31402 -10.31298 -10.31217 -10.31126 -10.31108
 Alpha  occ. eigenvalues --  -10.31097 -10.30959 -10.30812 -10.30689 -10.30598
 Alpha  occ. eigenvalues --  -10.30555 -10.30456 -10.30381 -10.30250 -10.30163
 Alpha  occ. eigenvalues --  -10.30136 -10.29954 -10.29918 -10.29616 -10.29588
 Alpha  occ. eigenvalues --  -10.29565 -10.29449 -10.29235 -10.28841 -10.28585
 Alpha  occ. eigenvalues --  -10.27544  -3.21405  -3.20235  -1.94966  -1.94543
 Alpha  occ. eigenvalues --   -1.94355  -1.93842  -1.93345  -1.93240  -1.19603
 Alpha  occ. eigenvalues --   -1.19267  -1.12631  -1.11536  -1.11262  -1.10674
 Alpha  occ. eigenvalues --   -1.10228  -1.09248  -1.07084  -1.07013  -1.06574
 Alpha  occ. eigenvalues --   -1.05901  -1.04918  -1.04774  -1.04358  -1.03632
 Alpha  occ. eigenvalues --   -0.96079  -0.94596  -0.91616  -0.91271  -0.90941
 Alpha  occ. eigenvalues --   -0.90664  -0.90416  -0.90294  -0.89895  -0.89742
 Alpha  occ. eigenvalues --   -0.88941  -0.88586  -0.88377  -0.87814  -0.87051
 Alpha  occ. eigenvalues --   -0.86038  -0.85879  -0.85423  -0.85325  -0.84733
 Alpha  occ. eigenvalues --   -0.84260  -0.83774  -0.83423  -0.83214  -0.82886
 Alpha  occ. eigenvalues --   -0.82318  -0.80916  -0.80600  -0.80007  -0.79336
 Alpha  occ. eigenvalues --   -0.79002  -0.78676  -0.78090  -0.77507  -0.76965
 Alpha  occ. eigenvalues --   -0.76914  -0.75087  -0.74510  -0.74149  -0.73390
 Alpha  occ. eigenvalues --   -0.72112  -0.71174  -0.71105  -0.70818  -0.70790
 Alpha  occ. eigenvalues --   -0.69612  -0.69334  -0.69201  -0.68511  -0.67379
 Alpha  occ. eigenvalues --   -0.67374  -0.67237  -0.67165  -0.66997  -0.66488
 Alpha  occ. eigenvalues --   -0.66392  -0.65835  -0.64430  -0.62830  -0.62255
 Alpha  occ. eigenvalues --   -0.61741  -0.61540  -0.61366  -0.61151  -0.60761
 Alpha  occ. eigenvalues --   -0.60605  -0.60408  -0.60061  -0.59708  -0.59280
 Alpha  occ. eigenvalues --   -0.58776  -0.58667  -0.58611  -0.57807  -0.57576
 Alpha  occ. eigenvalues --   -0.57304  -0.57123  -0.56496  -0.56360  -0.56244
 Alpha  occ. eigenvalues --   -0.55751  -0.55730  -0.55499  -0.55482  -0.55154
 Alpha  occ. eigenvalues --   -0.55056  -0.54555  -0.54493  -0.54480  -0.54056
 Alpha  occ. eigenvalues --   -0.53841  -0.53744  -0.53679  -0.53371  -0.53218
 Alpha  occ. eigenvalues --   -0.53048  -0.53025  -0.52843  -0.52693  -0.52360
 Alpha  occ. eigenvalues --   -0.52340  -0.52219  -0.51951  -0.51614  -0.51547
 Alpha  occ. eigenvalues --   -0.51463  -0.51204  -0.51079  -0.50733  -0.50616
 Alpha  occ. eigenvalues --   -0.50614  -0.50492  -0.50446  -0.50444  -0.50099
 Alpha  occ. eigenvalues --   -0.49810  -0.49581  -0.49561  -0.49459  -0.49100
 Alpha  occ. eigenvalues --   -0.49064  -0.48689  -0.48648  -0.48460  -0.48451
 Alpha  occ. eigenvalues --   -0.48412  -0.48314  -0.48040  -0.48006  -0.47703
 Alpha  occ. eigenvalues --   -0.47587  -0.47213  -0.47172  -0.46934  -0.46855
 Alpha  occ. eigenvalues --   -0.46624  -0.46616  -0.46549  -0.46507  -0.46481
 Alpha  occ. eigenvalues --   -0.46387  -0.46234  -0.45732  -0.45664  -0.45597
 Alpha  occ. eigenvalues --   -0.45539  -0.44987  -0.44900  -0.44778  -0.44542
 Alpha  occ. eigenvalues --   -0.44356  -0.44275  -0.44263  -0.44217  -0.43866
 Alpha  occ. eigenvalues --   -0.43861  -0.43772  -0.43547  -0.43341  -0.43107
 Alpha  occ. eigenvalues --   -0.43018  -0.42966  -0.42701  -0.42380  -0.42301
 Alpha  occ. eigenvalues --   -0.41978  -0.41624  -0.41457  -0.41126  -0.40727
 Alpha  occ. eigenvalues --   -0.40690  -0.40190  -0.39827  -0.39732  -0.39616
 Alpha  occ. eigenvalues --   -0.39502  -0.39369  -0.39021  -0.38890  -0.38452
 Alpha  occ. eigenvalues --   -0.38324  -0.37921  -0.36746  -0.36225  -0.36009
 Alpha  occ. eigenvalues --   -0.35876  -0.35326  -0.34965  -0.34312  -0.34025
 Alpha  occ. eigenvalues --   -0.33577  -0.33120  -0.32858  -0.32422  -0.32344
 Alpha  occ. eigenvalues --   -0.31677  -0.31305  -0.31165  -0.26254  -0.26052
 Alpha  occ. eigenvalues --   -0.23507  -0.22877
 Alpha virt. eigenvalues --   -0.07528  -0.06927   0.00019   0.00231   0.02185
 Alpha virt. eigenvalues --    0.02535   0.04090   0.04433   0.04964   0.06454
 Alpha virt. eigenvalues --    0.07333   0.07993   0.08114   0.08432   0.08550

 Mulliken charges:
               1
     1  Mg   0.931660
     2  C   -0.001091
     3  C   -0.065656
     4  C   -0.091443
     5  C   -0.077439
     6  N   -0.307238
     7  C    0.003979
     8  C   -0.074526
     9  C   -0.126311
    10  C    0.080451
    11  C    0.020510
    12  C    0.007987
    13  C   -0.131060
    14  H    0.036915
    15  N   -0.514521
    16  C    0.148775
    17  C   -0.151813
    18  C   -0.055521
    19  C    0.177902
    20  C    0.087285
    21  C    0.034442
    22  O   -0.271193
    23  C    0.017104
    24  N   -0.324780
    25  C    0.043683
    26  C   -0.057455
    27  C   -0.088562
    28  C    0.105919
    29  C    0.017423
    30  C   -0.009898
    31  C   -0.055801
    32  N   -0.439899
    33  C    0.094672
    34  C   -0.179641
    35  C    0.011885
    36  C    0.117736
    37  C    0.048017
    38  C    0.071020
    39  O   -0.201782
    40  C   -0.081004
    41  C    0.256936
    42  O   -0.227755
    43  O   -0.352637
    44  C    0.138906
    45  H   -0.003987
    46  H   -0.037314
    47  H   -0.005154
    48  H    0.022179
    49  H    0.037526
    50  H    0.038010
    51  H    0.026533
    52  H    0.039029
    53  H    0.025123
    54  H    0.032764
    55  H    0.077950
    56  H    0.066437
    57  H    0.053555
    58  H    0.029861
    59  H    0.063815
    60  H    0.061041
    61  H    0.077291
    62  H    0.047651
    63  H    0.049736
    64  H    0.040780
    65  H    0.036100
    66  H    0.051948
    67  H    0.027109
    68  H    0.036503
    69  H    0.027993
    70  H    0.034973
    71  H    0.031371
    72  H    0.047322
    73  H    0.038380
    74  H    0.058247
    75  H    0.037853
    76  H    0.089688
    77  H    0.063480
    78  H    0.059093
    79  H    0.050930
    80  Mg   0.983844
    81  C    0.006673
    82  C   -0.113541
    83  C   -0.075968
    84  C   -0.074173
    85  N   -0.350815
    86  C   -0.049231
    87  C   -0.050193
    88  C   -0.097940
    89  C    0.098187
    90  C    0.023324
    91  C    0.001742
    92  C   -0.115047
    93  H    0.031876
    94  N   -0.466486
    95  C    0.154013
    96  C   -0.174310
    97  C   -0.070215
    98  C    0.137946
    99  C    0.077844
   100  C    0.062837
   101  O   -0.243515
   102  C   -0.045616
   103  N   -0.390061
   104  C    0.116405
   105  C   -0.106943
   106  C   -0.048725
   107  C    0.073184
   108  C    0.009933
   109  C    0.001428
   110  C   -0.071390
   111  N   -0.414149
   112  C    0.082085
   113  C   -0.193305
   114  C   -0.037931
   115  C    0.139223
   116  C    0.088168
   117  C    0.083164
   118  O   -0.205344
   119  C   -0.074251
   120  C    0.226167
   121  O   -0.256844
   122  O   -0.333908
   123  C    0.142515
   124  H   -0.000109
   125  H    0.028405
   126  H   -0.008014
   127  H    0.049711
   128  H    0.040025
   129  H    0.051963
   130  H    0.043573
   131  H    0.040106
   132  H    0.030983
   133  H    0.043364
   134  H    0.042798
   135  H    0.062720
   136  H    0.053193
   137  H    0.041005
   138  H    0.058457
   139  H    0.058623
   140  H    0.065482
   141  H    0.052911
   142  H    0.043234
   143  H    0.032393
   144  H    0.027668
   145  H    0.060858
   146  H    0.025951
   147  H    0.049336
   148  H    0.028171
   149  H    0.020879
   150  H    0.037416
   151  H    0.045771
   152  H    0.054243
   153  H    0.052893
   154  H    0.061501
   155  H    0.067063
   156  H    0.054687
   157  H    0.045094
   158  H    0.056986
 Sum of Mulliken charges =  -0.00000

 Dipole moment (field-independent basis, Debye):
    X=             -2.7165    Y=              8.3806    Z=              5.5030  Tot=             10.3873
 Quadrupole moment (field-independent basis, Debye-Ang):
   XX=           -486.1259   YY=           -578.2978   ZZ=           -492.9437
   XY=            -31.1028   XZ=            -19.5560   YZ=            -36.4362

 Normal termination of Gaussian 16 at Sun Sep 19 20:13:35 2021.
