 Gaussian 16, Revision A.03,
 Gaussian 16:  ES64L-G16RevA.03 25-Dec-2016

 --------------------------------
 #p wB97XD/Def2SVP td=(nstates=5)
 --------------------------------

 --------------------------------
 TDDFT excited states in gaussian
 --------------------------------
 Symbolic Z-matrix:
 Charge =  0 Multiplicity = 1

                         Standard orientation:
 ---------------------------------------------------------------------
 Center     Atomic      Atomic             Coordinates (Angstroms)
 Number     Number       Type             X           Y           Z
 ---------------------------------------------------------------------
      1         12           0       24.239032   -0.780448    0.307875
      2          6           0       24.152586    2.286030   -1.330007
      3          6           0       23.981150    0.864883    3.302746
      4          6           0       24.651078   -3.784175    1.864175
      5          6           0       24.752770   -2.243124   -2.890559
      6          7           0       24.120431    1.322751    0.916840
      7          6           0       23.979510    2.372679    0.048179
      8          6           0       23.754173    3.618912    0.907899
      9          6           0       24.006022    3.183027    2.340327
     10          6           0       24.000064    1.667361    2.176939
     11          6           0       25.208189    3.702771    3.082045
     12          6           0       22.358934    4.373075    0.678138
     13          6           0       22.022412    5.509758    1.696152
     14          1           0       22.456468    6.960204    1.358708
     15          7           0       24.155819   -1.365335    2.297300
     16          6           0       24.076338   -0.550153    3.378367
     17          6           0       24.148668   -1.397841    4.539944
     18          6           0       24.349100   -2.743094    4.111771
     19          6           0       24.419825   -2.689123    2.720931
     20          6           0       24.034414   -0.812524    5.913672
     21          6           0       24.611188   -3.973269    5.028635
     22          8           0       25.107914   -4.999251    4.599457
     23          6           0       24.404674   -3.962442    6.467769
     24          7           0       24.616090   -2.611137   -0.390508
     25          6           0       24.706324   -3.742197    0.420227
     26          6           0       24.919708   -5.032608   -0.390032
     27          6           0       24.661346   -4.532848   -1.852119
     28          6           0       24.629861   -3.022306   -1.687394
     29          6           0       26.124131   -5.819456   -0.075167
     30          6           0       23.395692   -5.125824   -2.686760
     31          6           0       23.611536   -5.859384   -4.013844
     32          7           0       24.481696   -0.120794   -1.772511
     33          6           0       24.694716   -0.845001   -2.911801
     34          6           0       24.765744    0.001288   -4.055008
     35          6           0       24.474237    1.299119   -3.484815
     36          6           0       24.399798    1.160126   -2.070494
     37          6           0       24.968894   -0.481421   -5.440571
     38          6           0       24.200026    2.676156   -3.825685
     39          8           0       24.083726    3.280926   -4.873462
     40          6           0       23.983025    3.388757   -2.364551
     41          6           0       24.823694    4.604742   -2.221521
     42          8           0       26.033675    4.583205   -2.164842
     43          8           0       24.092646    5.730771   -2.147586
     44          6           0       24.813776    6.998985   -1.745390
     45          1           0       23.845390    1.379114    4.256759
     46          1           0       24.786924   -4.732417    2.388095
     47          1           0       24.890061   -2.878103   -3.768495
     48          1           0       24.559655    4.250197    0.532949
     49          1           0       23.178336    3.513452    2.967409
     50          1           0       25.818251    2.800046    3.073803
     51          1           0       24.957895    4.088805    4.070296
     52          1           0       25.773464    4.430838    2.499854
     53          1           0       21.649329    3.552159    0.783528
     54          1           0       22.325769    4.789897   -0.327781
     55          1           0       22.483942    5.330519    2.666406
     56          1           0       20.944148    5.504779    1.855539
     57          1           0       23.811173    0.250872    6.005465
     58          1           0       25.023594   -0.918230    6.357918
     59          1           0       23.362285   -1.373711    6.563135
     60          1           0       24.801250   -3.145760    7.070099
     61          1           0       24.678961   -4.880212    6.987763
     62          1           0       23.317097   -3.972181    6.536648
     63          1           0       24.033832   -5.564461   -0.041894
     64          1           0       25.636535   -4.762042   -2.281444
     65          1           0       25.969951   -6.816684    0.337866
     66          1           0       26.709630   -5.245611    0.643636
     67          1           0       26.758822   -6.025651   -0.936906
     68          1           0       22.732548   -4.289432   -2.906818
     69          1           0       22.734852   -5.822362   -2.169394
     70          1           0       23.367578   -5.279328   -4.904237
     71          1           0       23.195671   -6.865739   -4.053874
     72          1           0       24.686629   -5.988228   -4.139791
     73          1           0       25.774941   -1.214772   -5.435425
     74          1           0       25.148252    0.329102   -6.146450
     75          1           0       24.126369   -1.130093   -5.682468
     76          1           0       22.947235    3.726663   -2.361512
     77          1           0       24.134679    7.768987   -2.110789
     78          1           0       25.785020    7.018727   -2.239342
     79          1           0       24.844685    7.007017   -0.655758
     80         12           0      -25.028592   -0.393804   -0.275274
     81          6           0      -22.461363    2.040054   -0.283815
     82          6           0      -26.527602    1.398327    2.030029
     83          6           0      -26.740549   -3.141892    0.394983
     84          6           0      -22.814680   -2.376999   -2.223069
     85          7           0      -24.538363    1.639725    0.594157
     86          6           0      -23.564862    2.456611    0.417277
     87          6           0      -23.871081    3.824943    1.060231
     88          6           0      -24.949853    3.455017    2.200816
     89          6           0      -25.341060    2.025429    1.638311
     90          6           0      -24.419194    3.411146    3.688318
     91          6           0      -24.545956    4.825766   -0.015772
     92          6           0      -24.284701    6.364940    0.060514
     93          1           0      -23.992172    6.949903    1.491283
     94          7           0      -26.585049   -0.761297    0.888909
     95          6           0      -27.103930    0.185085    1.759698
     96          6           0      -28.286075   -0.422777    2.466301
     97          6           0      -28.358397   -1.777863    1.934907
     98          6           0      -27.232315   -2.024575    1.030188
     99          6           0      -29.062490    0.354605    3.512376
    100          6           0      -29.414111   -2.818360    2.237533
    101          8           0      -29.410372   -3.974933    1.793543
    102          6           0      -30.556967   -2.440109    3.089760
    103          7           0      -24.860467   -2.519727   -0.941859
    104          6           0      -25.690959   -3.421168   -0.449849
    105          6           0      -25.591478   -4.771302   -1.289906
    106          6           0      -24.239799   -4.474867   -2.139716
    107          6           0      -23.971113   -3.017153   -1.775646
    108          6           0      -25.571557   -6.065041   -0.410457
    109          6           0      -24.285698   -4.682744   -3.689144
    110          6           0      -23.480605   -5.826572   -4.250318
    111          7           0      -23.112906   -0.181347   -1.303161
    112          6           0      -22.390455   -1.100435   -2.037825
    113          6           0      -21.135299   -0.569456   -2.372215
    114          6           0      -21.108725    0.647992   -1.665884
    115          6           0      -22.291669    0.858526   -0.997733
    116          6           0      -20.090148   -1.171938   -3.168378
    117          6           0      -20.287554    1.782767   -1.492280
    118          8           0      -19.188889    2.185252   -1.962516
    119          6           0      -21.029634    2.619772   -0.355722
    120          6           0      -20.977269    4.070537   -0.666982
    121          8           0      -21.475100    4.655458   -1.626751
    122          8           0      -20.325109    4.712573    0.432592
    123          6           0      -20.145486    6.167514    0.347357
    124          1           0      -27.056127    2.091679    2.688231
    125          1           0      -27.354466   -4.024898    0.580913
    126          1           0      -22.175518   -2.963986   -2.886924
    127          1           0      -22.992489    4.107235    1.639725
    128          1           0      -25.696092    4.248160    2.232070
    129          1           0      -23.330364    3.421238    3.732873
    130          1           0      -24.706014    2.487141    4.190059
    131          1           0      -24.826498    4.298485    4.172787
    132          1           0      -25.624487    4.674597   -0.063369
    133          1           0      -24.249953    4.494890   -1.011461
    134          1           0      -25.105246    6.969124   -0.327816
    135          1           0      -23.316664    6.538280   -0.411189
    136          1           0      -30.140679    0.250383    3.385728
    137          1           0      -28.820318    1.417313    3.524819
    138          1           0      -28.701263    0.082230    4.503748
    139          1           0      -30.221034   -2.094416    4.067790
    140          1           0      -31.224475   -3.293123    3.212196
    141          1           0      -31.208531   -1.664198    2.687850
    142          1           0      -26.389278   -4.867736   -2.026239
    143          1           0      -23.365358   -4.958594   -1.701956
    144          1           0      -25.527836   -5.804328    0.647154
    145          1           0      -24.727207   -6.594594   -0.852222
    146          1           0      -26.443127   -6.651708   -0.697882
    147          1           0      -23.898868   -3.772728   -4.148299
    148          1           0      -25.322728   -4.781983   -4.010428
    149          1           0      -23.161805   -6.366395   -3.359643
    150          1           0      -22.593917   -5.405493   -4.725631
    151          1           0      -24.065040   -6.505194   -4.870380
    152          1           0      -20.552649   -1.489741   -4.102447
    153          1           0      -19.729716   -2.142857   -2.828393
    154          1           0      -19.314711   -0.433806   -3.374058
    155          1           0      -20.527190    2.422299    0.591736
    156          1           0      -19.562168    6.534507    1.192249
    157          1           0      -21.112379    6.644128    0.509843
    158          1           0      -19.594641    6.407035   -0.561591
 ---------------------------------------------------------------------

 SCF Done:  E(RwB97XD) =  -4070.57838876     A.U. after   20 cycles

 Excitation energies and oscillator strengths:

 Excited State   1:      Singlet-A      1.6387 eV  756.62 nm  f=0.3959  <S**2>=0.000
     310 -> 316       -0.18464
     312 -> 313        0.68355
     310 <- 316       -0.11771
 This state for optimization and/or second-order correction.
 Total Energy, E(TD-HF/TD-DFT) =  -4070.51816945
 Copying the excited state density for this state as the 1-particle RhoCI density.

 Excited State   2:      Singlet-A      1.7434 eV  711.15 nm  f=0.3641  <S**2>=0.000
     309 -> 315       -0.21768
     311 -> 314        0.67307
     309 <- 315       -0.11923

 Excited State   3:      Singlet-A      2.1629 eV  573.23 nm  f=0.0903  <S**2>=0.000
     310 -> 313        0.63062
     312 -> 316        0.30290

 Excited State   4:      Singlet-A      2.1695 eV  571.49 nm  f=0.0799  <S**2>=0.000
     309 -> 314        0.62757
     311 -> 315        0.30960

 Excited State   5:      Singlet-A      3.2554 eV  380.86 nm  f=0.0003  <S**2>=0.000
     306 -> 313       -0.22691
     308 -> 313        0.64155

 The electronic state is 1-A.
 Alpha  occ. eigenvalues --  -46.95750 -46.94205 -19.29617 -19.29204 -19.25171
 Alpha  occ. eigenvalues --  -19.24090 -19.24052 -19.23702 -19.23553 -19.23181
 Alpha  occ. eigenvalues --  -14.47321 -14.46736 -14.46598 -14.46316 -14.44632
 Alpha  occ. eigenvalues --  -14.43674 -14.43203 -14.43007 -10.43182 -10.41779
 Alpha  occ. eigenvalues --  -10.39536 -10.39109 -10.38658 -10.38547 -10.35841
 Alpha  occ. eigenvalues --  -10.35647 -10.35602 -10.35121 -10.35106 -10.35047
 Alpha  occ. eigenvalues --  -10.34855 -10.34824 -10.34721 -10.34655 -10.34460
 Alpha  occ. eigenvalues --  -10.34431 -10.34305 -10.33846 -10.33729 -10.33580
 Alpha  occ. eigenvalues --  -10.33335 -10.32970 -10.32777 -10.32743 -10.32581
 Alpha  occ. eigenvalues --  -10.32533 -10.32439 -10.32405 -10.32383 -10.32189
 Alpha  occ. eigenvalues --  -10.32161 -10.32091 -10.31986 -10.31905 -10.31678
 Alpha  occ. eigenvalues --  -10.31677 -10.31614 -10.31599 -10.31561 -10.31486
 Alpha  occ. eigenvalues --  -10.31470 -10.31299 -10.31218 -10.31179 -10.31118
 Alpha  occ. eigenvalues --  -10.31029 -10.30988 -10.30951 -10.30936 -10.30897
 Alpha  occ. eigenvalues --  -10.30879 -10.30427 -10.30260 -10.30188 -10.30110
 Alpha  occ. eigenvalues --  -10.30087 -10.30001 -10.29818 -10.29709 -10.29690
 Alpha  occ. eigenvalues --  -10.29577 -10.29383 -10.29312 -10.29291 -10.29239
 Alpha  occ. eigenvalues --  -10.28693  -3.21662  -3.20283  -1.95253  -1.94793
 Alpha  occ. eigenvalues --   -1.94610  -1.93894  -1.93408  -1.93260  -1.17996
 Alpha  occ. eigenvalues --   -1.16133  -1.13182  -1.11720  -1.11654  -1.09531
 Alpha  occ. eigenvalues --   -1.08956  -1.08905  -1.07815  -1.07238  -1.07219
 Alpha  occ. eigenvalues --   -1.06114  -1.05575  -1.05323  -1.04399  -1.03533
 Alpha  occ. eigenvalues --   -0.94976  -0.94383  -0.91447  -0.91054  -0.90562
 Alpha  occ. eigenvalues --   -0.90541  -0.90262  -0.89823  -0.89506  -0.89481
 Alpha  occ. eigenvalues --   -0.89290  -0.88902  -0.88878  -0.88634  -0.86520
 Alpha  occ. eigenvalues --   -0.86239  -0.85892  -0.85587  -0.84669  -0.84547
 Alpha  occ. eigenvalues --   -0.84358  -0.83975  -0.83471  -0.83328  -0.82694
 Alpha  occ. eigenvalues --   -0.82654  -0.80962  -0.80748  -0.79701  -0.79673
 Alpha  occ. eigenvalues --   -0.79182  -0.78913  -0.77851  -0.77819  -0.77193
 Alpha  occ. eigenvalues --   -0.77082  -0.75246  -0.74756  -0.74270  -0.73782
 Alpha  occ. eigenvalues --   -0.71287  -0.70964  -0.70823  -0.70528  -0.70214
 Alpha  occ. eigenvalues --   -0.69914  -0.69228  -0.68919  -0.67912  -0.67603
 Alpha  occ. eigenvalues --   -0.67577  -0.67525  -0.67355  -0.66619  -0.66599
 Alpha  occ. eigenvalues --   -0.66191  -0.63407  -0.63282  -0.62568  -0.62517
 Alpha  occ. eigenvalues --   -0.62146  -0.61688  -0.61321  -0.60948  -0.60801
 Alpha  occ. eigenvalues --   -0.60375  -0.59952  -0.59746  -0.59319  -0.59215
 Alpha  occ. eigenvalues --   -0.58988  -0.58318  -0.57779  -0.57737  -0.57432
 Alpha  occ. eigenvalues --   -0.57274  -0.56702  -0.56472  -0.56332  -0.55763
 Alpha  occ. eigenvalues --   -0.55749  -0.55494  -0.55138  -0.55089  -0.54907
 Alpha  occ. eigenvalues --   -0.54892  -0.54578  -0.54526  -0.54424  -0.54215
 Alpha  occ. eigenvalues --   -0.54208  -0.54014  -0.53480  -0.53234  -0.53106
 Alpha  occ. eigenvalues --   -0.52900  -0.52867  -0.52753  -0.52529  -0.52439
 Alpha  occ. eigenvalues --   -0.52288  -0.52249  -0.51857  -0.51826  -0.51519
 Alpha  occ. eigenvalues --   -0.51367  -0.51241  -0.51132  -0.51032  -0.50892
 Alpha  occ. eigenvalues --   -0.50762  -0.50640  -0.50535  -0.50333  -0.50162
 Alpha  occ. eigenvalues --   -0.49979  -0.49751  -0.49632  -0.49586  -0.49360
 Alpha  occ. eigenvalues --   -0.49268  -0.49032  -0.49027  -0.48763  -0.48749
 Alpha  occ. eigenvalues --   -0.48493  -0.48487  -0.48268  -0.48159  -0.48077
 Alpha  occ. eigenvalues --   -0.48004  -0.47546  -0.47315  -0.47059  -0.47010
 Alpha  occ. eigenvalues --   -0.46893  -0.46722  -0.46311  -0.46212  -0.46172
 Alpha  occ. eigenvalues --   -0.45922  -0.45909  -0.45874  -0.45634  -0.45519
 Alpha  occ. eigenvalues --   -0.45268  -0.45263  -0.44941  -0.44777  -0.44634
 Alpha  occ. eigenvalues --   -0.44576  -0.43966  -0.43911  -0.43713  -0.43639
 Alpha  occ. eigenvalues --   -0.43597  -0.43449  -0.43202  -0.43137  -0.42971
 Alpha  occ. eigenvalues --   -0.42810  -0.42680  -0.42556  -0.42273  -0.42259
 Alpha  occ. eigenvalues --   -0.42088  -0.41999  -0.41426  -0.41172  -0.40975
 Alpha  occ. eigenvalues --   -0.40685  -0.40443  -0.39931  -0.39739  -0.39430
 Alpha  occ. eigenvalues --   -0.39197  -0.38878  -0.38418  -0.38269  -0.38119
 Alpha  occ. eigenvalues --   -0.38051  -0.37634  -0.36605  -0.36204  -0.36026
 Alpha  occ. eigenvalues --   -0.35918  -0.35660  -0.34956  -0.34037  -0.33248
 Alpha  occ. eigenvalues --   -0.33245  -0.33164  -0.32640  -0.32332  -0.32209
 Alpha  occ. eigenvalues --   -0.31889  -0.31489  -0.31202  -0.26113  -0.26109
 Alpha  occ. eigenvalues --   -0.23515  -0.22914
 Alpha virt. eigenvalues --   -0.07144  -0.06988  -0.00757   0.00051   0.01795
 Alpha virt. eigenvalues --    0.02693   0.04335   0.04844   0.05411   0.06495
 Alpha virt. eigenvalues --    0.06719   0.07356   0.07839   0.07945   0.08105

 Mulliken charges:
               1
     1  Mg   0.969984
     2  C    0.027085
     3  C   -0.088530
     4  C   -0.071864
     5  C   -0.105462
     6  N   -0.331554
     7  C   -0.006731
     8  C   -0.044349
     9  C   -0.151674
    10  C    0.059745
    11  C    0.050751
    12  C    0.000332
    13  C   -0.115559
    14  H    0.029164
    15  N   -0.488245
    16  C    0.172451
    17  C   -0.166795
    18  C   -0.057415
    19  C    0.125925
    20  C    0.053457
    21  C    0.071573
    22  O   -0.233748
    23  C   -0.004456
    24  N   -0.422966
    25  C    0.060699
    26  C   -0.086720
    27  C   -0.053569
    28  C    0.048592
    29  C    0.042978
    30  C   -0.002783
    31  C   -0.069034
    32  N   -0.373872
    33  C    0.159855
    34  C   -0.166682
    35  C   -0.076310
    36  C    0.113163
    37  C    0.102471
    38  C    0.145495
    39  O   -0.193114
    40  C   -0.138541
    41  C    0.241242
    42  O   -0.254369
    43  O   -0.372477
    44  C    0.133524
    45  H   -0.016253
    46  H    0.028670
    47  H    0.001724
    48  H    0.035361
    49  H    0.021857
    50  H    0.039161
    51  H    0.043583
    52  H    0.038576
    53  H    0.034508
    54  H    0.060938
    55  H    0.043671
    56  H    0.059137
    57  H    0.039644
    58  H    0.049835
    59  H    0.047137
    60  H    0.056563
    61  H    0.050120
    62  H    0.049739
    63  H    0.038411
    64  H    0.031797
    65  H    0.040563
    66  H    0.046730
    67  H    0.027932
    68  H    0.036125
    69  H    0.035542
    70  H    0.039403
    71  H    0.045774
    72  H    0.018516
    73  H    0.034842
    74  H    0.072759
    75  H    0.044392
    76  H    0.067407
    77  H    0.062677
    78  H    0.082005
    79  H    0.059484
    80  Mg   0.950862
    81  C   -0.001429
    82  C   -0.092607
    83  C   -0.057230
    84  C   -0.097655
    85  N   -0.289382
    86  C   -0.079989
    87  C   -0.022015
    88  C   -0.152160
    89  C    0.044844
    90  C    0.020212
    91  C    0.019213
    92  C   -0.121911
    93  H   -0.003189
    94  N   -0.573526
    95  C    0.230633
    96  C   -0.157386
    97  C   -0.064093
    98  C    0.176445
    99  C    0.067726
   100  C    0.057156
   101  O   -0.243264
   102  C   -0.029589
   103  N   -0.281902
   104  C    0.040634
   105  C   -0.118714
   106  C   -0.082468
   107  C    0.022839
   108  C    0.039332
   109  C   -0.018075
   110  C   -0.035001
   111  N   -0.421049
   112  C    0.154656
   113  C   -0.152110
   114  C   -0.029640
   115  C    0.146326
   116  C    0.092557
   117  C    0.133352
   118  O   -0.250660
   119  C   -0.095401
   120  C    0.288788
   121  O   -0.246480
   122  O   -0.409262
   123  C    0.146604
   124  H   -0.006507
   125  H    0.019240
   126  H   -0.015423
   127  H    0.025000
   128  H    0.044113
   129  H    0.036933
   130  H    0.039604
   131  H    0.044105
   132  H    0.028290
   133  H    0.057662
   134  H    0.065778
   135  H    0.078856
   136  H    0.055747
   137  H    0.031535
   138  H    0.060643
   139  H    0.053898
   140  H    0.050881
   141  H    0.060088
   142  H    0.047727
   143  H    0.033916
   144  H    0.061744
   145  H    0.028991
   146  H    0.039266
   147  H    0.034206
   148  H    0.025078
   149  H    0.022679
   150  H    0.040438
   151  H    0.046575
   152  H    0.029892
   153  H    0.045538
   154  H    0.071942
   155  H    0.082458
   156  H    0.044115
   157  H    0.042292
   158  H    0.066710
 Sum of Mulliken charges =  -0.00000

 Dipole moment (field-independent basis, Debye):
    X=             -6.3271    Y=             -1.5463    Z=              7.2939  Tot=              9.7788
 Quadrupole moment (field-independent basis, Debye-Ang):
   XX=           -462.9040   YY=           -487.2686   ZZ=           -493.2301
   XY=            -55.2861   XZ=             46.8711   YZ=             65.2658

 Normal termination of Gaussian 16 at Mon Sep 20 02:07:13 2021.
