 Gaussian 16, Revision A.03,
 Gaussian 16:  ES64L-G16RevA.03 25-Dec-2016

 --------------------------------
 #p wB97XD/Def2SVP td=(nstates=5)
 --------------------------------

 --------------------------------
 TDDFT excited states in gaussian
 --------------------------------
 Symbolic Z-matrix:
 Charge =  0 Multiplicity = 1

                         Standard orientation:
 ---------------------------------------------------------------------
 Center     Atomic      Atomic             Coordinates (Angstroms)
 Number     Number       Type             X           Y           Z
 ---------------------------------------------------------------------
      1         12           0       -0.710141    0.000491   -0.470852
      2          6           0        2.829706    0.275597    0.019250
      3          6           0       -0.334269   -3.484879    0.008726
      4          6           0       -4.043169   -0.225420   -0.154335
      5          6           0       -0.918164    3.438078   -0.240426
      6          7           0        1.051590   -1.473350   -0.042090
      7          6           0        2.339744   -1.051252    0.133041
      8          6           0        3.176869   -2.188584    0.696553
      9          6           0        2.183799   -3.386665    0.390288
     10          6           0        0.852554   -2.806972    0.097444
     11          6           0        2.585682   -4.376555   -0.754200
     12          6           0        3.577359   -1.879599    2.174821
     13          6           0        5.064237   -2.132454    2.658595
     14          1           0        5.339259   -3.154087    3.776629
     15          7           0       -1.998416   -1.561384   -0.318463
     16          6           0       -1.678255   -2.933770   -0.145170
     17          6           0       -2.886704   -3.736521   -0.107793
     18          6           0       -3.966008   -2.762868   -0.148615
     19          6           0       -3.333271   -1.459149   -0.220010
     20          6           0       -2.844498   -5.192515    0.103074
     21          6           0       -5.451173   -3.164842   -0.141164
     22          8           0       -5.696655   -4.397425    0.008311
     23          6           0       -6.642613   -2.196700   -0.300730
     24          7           0       -2.333834    1.381810    0.041909
     25          6           0       -3.612683    1.076052   -0.064785
     26          6           0       -4.417736    2.312999    0.171196
     27          6           0       -3.380803    3.464050    0.076466
     28          6           0       -2.081783    2.719421    0.038307
     29          6           0       -5.706061    2.601863   -0.712015
     30          6           0       -3.438745    4.545523    1.274793
     31          6           0       -3.825022    6.005735    0.934173
     32          7           0        0.615165    1.547372   -0.375715
     33          6           0        0.402297    2.871350   -0.289960
     34          6           0        1.620781    3.591704   -0.224605
     35          6           0        2.599683    2.598277   -0.147708
     36          6           0        1.938875    1.344925   -0.199703
     37          6           0        1.890606    5.042711   -0.229403
     38          6           0        4.014794    2.452369    0.001415
     39          8           0        4.849647    3.316012    0.152042
     40          6           0        4.228300    0.817449    0.169804
     41          6           0        5.111794    0.318111   -0.890551
     42          8           0        5.054793    0.638292   -2.084600
     43          8           0        5.972641   -0.580069   -0.296637
     44          6           0        6.959491   -1.210029   -1.172182
     45          1           0       -0.283859   -4.566191    0.145325
     46          1           0       -5.115449   -0.233012    0.050373
     47          1           0       -0.914355    4.519277   -0.394755
     48          1           0        4.013660   -2.319592    0.009982
     49          1           0        2.133625   -3.797044    1.399522
     50          1           0        1.769272   -4.384004   -1.477781
     51          1           0        2.715775   -5.408051   -0.427543
     52          1           0        3.460178   -4.090521   -1.339414
     53          1           0        2.901733   -2.565613    2.685232
     54          1           0        3.320889   -0.885495    2.540300
     55          1           0        5.428999   -1.147783    2.950378
     56          1           0        5.677135   -2.321744    1.777855
     57          1           0       -2.241204   -5.353985    0.996728
     58          1           0       -2.301967   -5.670589   -0.712263
     59          1           0       -3.790321   -5.734850    0.111893
     60          1           0       -6.726900   -1.614619    0.617122
     61          1           0       -7.434994   -2.819173   -0.715074
     62          1           0       -6.314666   -1.548401   -1.113992
     63          1           0       -4.820551    2.232008    1.180032
     64          1           0       -3.534050    3.815309   -0.944021
     65          1           0       -6.352272    3.189606   -0.059559
     66          1           0       -6.140513    1.648024   -1.010848
     67          1           0       -5.371539    3.205208   -1.556097
     68          1           0       -2.440491    4.496731    1.709461
     69          1           0       -4.070250    4.128154    2.058970
     70          1           0       -3.134746    6.734584    1.356808
     71          1           0       -4.833390    6.192559    1.304436
     72          1           0       -3.921391    6.195355   -0.135035
     73          1           0        2.924599    5.260377   -0.495068
     74          1           0        1.672461    5.231751    0.821841
     75          1           0        1.046839    5.539325   -0.708332
     76          1           0        4.521427    0.559223    1.186768
     77          1           0        7.512498   -0.472232   -1.753952
     78          1           0        6.464420   -1.924788   -1.831195
     79          1           0        7.683199   -1.741849   -0.554467
 ---------------------------------------------------------------------

 SCF Done:  E(RwB97XD) =  -2035.28641204     A.U. after   18 cycles

 Excitation energies and oscillator strengths:

 Excited State   1:      Singlet-A      1.6376 eV  757.11 nm  f=0.3889  <S**2>=0.000
     155 ->158        -0.19108
     156 ->157         0.68324
     155 <-158        -0.12124
 This state for optimization and/or second-order correction.
 Total Energy, E(TD-HF/TD-DFT) =  -2035.22623140
 Copying the excited state density for this state as the 1-particle RhoCI density.

 Excited State   2:      Singlet-A      2.1989 eV  563.84 nm  f=0.1293  <S**2>=0.000
     155 ->157         0.63868
     156 ->158         0.29219

 Excited State   3:      Singlet-A      3.3069 eV  374.93 nm  f=0.0054  <S**2>=0.000
     154 ->157         0.66950
     154 ->159         0.10687

 Excited State   4:      Singlet-A      3.4444 eV  359.96 nm  f=0.0019  <S**2>=0.000
     152 ->157         0.14358
     152 ->159         0.17983
     152 ->160         0.13050
     153 ->157         0.49961
     153 ->159         0.27677
     153 ->160         0.22296

 Excited State   5:      Singlet-A      3.4977 eV  354.47 nm  f=0.0313  <S**2>=0.000
     151 ->157        -0.15600
     151 ->159         0.10611
     152 ->157         0.56719
     153 ->157        -0.20729
     153 ->159         0.10662
     156 ->158        -0.23156

 The electronic state is 1-A.
 Alpha  occ. eigenvalues --  -46.95251 -19.31512 -19.25531 -19.24818 -19.23186
 Alpha  occ. eigenvalues --  -14.46551 -14.45975 -14.44558 -14.44430 -10.43958
 Alpha  occ. eigenvalues --  -10.39502 -10.39252 -10.36202 -10.35218 -10.34791
 Alpha  occ. eigenvalues --  -10.34678 -10.34402 -10.34396 -10.34329 -10.33779
 Alpha  occ. eigenvalues --  -10.33103 -10.32965 -10.32794 -10.32724 -10.32259
 Alpha  occ. eigenvalues --  -10.31853 -10.31674 -10.31636 -10.31626 -10.31562
 Alpha  occ. eigenvalues --  -10.31550 -10.31442 -10.31239 -10.31197 -10.31111
 Alpha  occ. eigenvalues --  -10.30672 -10.30562 -10.30483 -10.30282 -10.30131
 Alpha  occ. eigenvalues --  -10.29901 -10.28985 -10.28622  -3.21249  -1.94827
 Alpha  occ. eigenvalues --   -1.94360  -1.94231  -1.18735  -1.13092  -1.10378
 Alpha  occ. eigenvalues --   -1.09459  -1.07474  -1.06761  -1.05758  -1.04399
 Alpha  occ. eigenvalues --   -0.95167  -0.91248  -0.90210  -0.90008  -0.89894
 Alpha  occ. eigenvalues --   -0.89421  -0.87976  -0.86593  -0.85766  -0.84613
 Alpha  occ. eigenvalues --   -0.83924  -0.83337  -0.82450  -0.80193  -0.79596
 Alpha  occ. eigenvalues --   -0.78828  -0.78228  -0.77291  -0.75205  -0.74200
 Alpha  occ. eigenvalues --   -0.71734  -0.71386  -0.70438  -0.68750  -0.68074
 Alpha  occ. eigenvalues --   -0.67627  -0.67120  -0.66783  -0.64962  -0.62149
 Alpha  occ. eigenvalues --   -0.61933  -0.61511  -0.60906  -0.60405  -0.59600
 Alpha  occ. eigenvalues --   -0.58185  -0.57907  -0.57605  -0.56857  -0.56476
 Alpha  occ. eigenvalues --   -0.55669  -0.55296  -0.54897  -0.54580  -0.54063
 Alpha  occ. eigenvalues --   -0.53648  -0.53356  -0.53185  -0.52532  -0.52253
 Alpha  occ. eigenvalues --   -0.51996  -0.51904  -0.51531  -0.51355  -0.50732
 Alpha  occ. eigenvalues --   -0.50409  -0.49860  -0.49660  -0.49607  -0.49548
 Alpha  occ. eigenvalues --   -0.49402  -0.48988  -0.48580  -0.48392  -0.48093
 Alpha  occ. eigenvalues --   -0.47896  -0.47548  -0.47384  -0.46969  -0.46480
 Alpha  occ. eigenvalues --   -0.45689  -0.45577  -0.45538  -0.45214  -0.45024
 Alpha  occ. eigenvalues --   -0.44914  -0.44776  -0.44249  -0.43496  -0.43148
 Alpha  occ. eigenvalues --   -0.43085  -0.42788  -0.42247  -0.42145  -0.40870
 Alpha  occ. eigenvalues --   -0.40665  -0.40221  -0.39775  -0.39596  -0.38554
 Alpha  occ. eigenvalues --   -0.37759  -0.37153  -0.36107  -0.35297  -0.33560
 Alpha  occ. eigenvalues --   -0.33155  -0.32330  -0.32244  -0.31557  -0.26090
 Alpha  occ. eigenvalues --   -0.23120
 Alpha virt. eigenvalues --   -0.07298   0.00173   0.02380   0.04494   0.05473
 Alpha virt. eigenvalues --    0.06396   0.07569   0.08509   0.09207   0.10402
 Alpha virt. eigenvalues --    0.11426   0.11753   0.12183   0.12991   0.13443

 Mulliken charges:
               1
     1  Mg   0.980571
     2  C   -0.123970
     3  C   -0.080758
     4  C   -0.101747
     5  C   -0.096410
     6  N   -0.314484
     7  C   -0.024917
     8  C   -0.047744
     9  C   -0.085444
    10  C    0.061077
    11  C    0.030233
    12  C   -0.009457
    13  C   -0.101172
    14  H    0.050323
    15  N   -0.481402
    16  C    0.127747
    17  C   -0.142708
    18  C   -0.097910
    19  C    0.230239
    20  C    0.077015
    21  C    0.025834
    22  O   -0.277718
    23  C    0.020171
    24  N   -0.347124
    25  C    0.019140
    26  C   -0.090669
    27  C   -0.108956
    28  C    0.094310
    29  C    0.033654
    30  C    0.010055
    31  C   -0.047583
    32  N   -0.436743
    33  C    0.106377
    34  C   -0.206169
    35  C   -0.066849
    36  C    0.192862
    37  C    0.118062
    38  C    0.144225
    39  O   -0.188416
    40  C   -0.050801
    41  C    0.292313
    42  O   -0.254425
    43  O   -0.371171
    44  C    0.136622
    45  H   -0.000106
    46  H   -0.036499
    47  H    0.002963
    48  H    0.018607
    49  H    0.029558
    50  H    0.037173
    51  H    0.045334
    52  H    0.037050
    53  H    0.031084
    54  H    0.053684
    55  H    0.048093
    56  H    0.042421
    57  H    0.047760
    58  H    0.033320
    59  H    0.069378
    60  H    0.083946
    61  H    0.065091
    62  H    0.043333
    63  H    0.038411
    64  H    0.032679
    65  H    0.040664
    66  H    0.041124
    67  H    0.031833
    68  H    0.033607
    69  H    0.025554
    70  H    0.046669
    71  H    0.035591
    72  H    0.033278
    73  H    0.080996
    74  H    0.046775
    75  H    0.029919
    76  H    0.059547
    77  H    0.065660
    78  H    0.052755
    79  H    0.056663
 Sum of Mulliken charges =  -0.00000

 Dipole moment (field-independent basis, Debye):
    X=             -1.1009    Y=              0.6733    Z=              0.5871  Tot=              1.4178
 Quadrupole moment (field-independent basis, Debye-Ang):
   XX=           -257.3849   YY=           -255.1771   ZZ=           -259.2389
   XY=            -52.3503   XZ=              3.4324   YZ=              5.1177

 Normal termination of Gaussian 16 at Sun Sep 19 04:16:42 2021.
