 Gaussian 16, Revision A.03,
 Gaussian 16:  ES64L-G16RevA.03 25-Dec-2016

 --------------------------------
 #p wB97XD/Def2SVP td=(nstates=5)
 --------------------------------

 --------------------------------
 TDDFT excited states in gaussian
 --------------------------------
 Symbolic Z-matrix:
 Charge =  0 Multiplicity = 1

                         Standard orientation:
 ---------------------------------------------------------------------
 Center     Atomic      Atomic             Coordinates (Angstroms)
 Number     Number       Type             X           Y           Z
 ---------------------------------------------------------------------
      1         12           0        9.524546   -0.547342    0.461363
      2          6           0        8.818859    2.586919   -0.954510
      3          6           0        7.728323    0.382740    3.190989
      4          6           0        9.890290   -3.642165    1.453680
      5          6           0       10.589409   -1.481416   -2.849223
      6          7           0        8.485338    1.284777    1.040815
      7          6           0        8.302410    2.427536    0.314542
      8          6           0        7.228837    3.274229    1.014470
      9          6           0        7.374024    2.826638    2.464736
     10          6           0        7.803446    1.370739    2.200361
     11          6           0        8.461173    3.614248    3.231817
     12          6           0        5.795753    2.977409    0.436507
     13          6           0        5.040623    4.144187   -0.370712
     14          1           0        4.665616    3.911399   -1.844228
     15          7           0        8.849468   -1.518090    2.067822
     16          6           0        8.138902   -0.958303    3.104667
     17          6           0        8.021579   -1.934650    4.142172
     18          6           0        8.738986   -3.116280    3.760259
     19          6           0        9.202858   -2.818831    2.374104
     20          6           0        7.253612   -1.676782    5.483678
     21          6           0        8.952228   -4.374797    4.677456
     22          8           0        8.584805   -4.356711    5.811816
     23          6           0        9.841573   -5.429538    4.206400
     24          7           0        9.856786   -2.391814   -0.648879
     25          6           0       10.308808   -3.402363    0.131156
     26          6           0       11.282645   -4.322697   -0.585471
     27          6           0       11.204870   -3.852296   -2.029871
     28          6           0       10.490842   -2.467104   -1.854226
     29          6           0       12.744702   -4.237072   -0.010209
     30          6           0       10.485600   -4.774088   -3.123536
     31          6           0       11.262905   -5.511138   -4.180952
     32          7           0        9.877284    0.363231   -1.431344
     33          6           0       10.305358   -0.126608   -2.671938
     34          6           0       10.275412    0.900379   -3.690771
     35          6           0        9.725911    1.980586   -3.045032
     36          6           0        9.462439    1.640181   -1.677366
     37          6           0       10.673485    0.722767   -5.096795
     38          6           0        9.308745    3.362492   -3.226711
     39          8           0        9.431165    4.099741   -4.212720
     40          6           0        8.815391    3.837281   -1.876159
     41          6           0        9.723288    4.982042   -1.439938
     42          8           0       10.934974    4.815453   -1.320571
     43          8           0        9.019219    6.192377   -1.343381
     44          6           0        9.823742    7.324334   -0.968240
     45          1           0        7.282382    0.767574    4.110155
     46          1           0       10.270975   -4.541334    1.940561
     47          1           0       11.017898   -1.742949   -3.819204
     48          1           0        7.431961    4.313426    0.754587
     49          1           0        6.403802    2.931844    2.948627
     50          1           0        7.876854    3.880184    4.112005
     51          1           0        8.696240    4.459889    2.584881
     52          1           0        9.373946    3.074944    3.485275
     53          1           0        5.147065    2.755195    1.283723
     54          1           0        5.858077    2.055962   -0.141873
     55          1           0        5.748272    4.972981   -0.402439
     56          1           0        4.150153    4.534177    0.120865
     57          1           0        6.523179   -2.418336    5.805720
     58          1           0        6.735312   -0.727395    5.345148
     59          1           0        7.923870   -1.546398    6.333487
     60          1           0        9.544627   -5.878828    3.258489
     61          1           0        9.883192   -6.208233    4.967933
     62          1           0       10.875831   -5.089630    4.237924
     63          1           0       11.026122   -5.376267   -0.469709
     64          1           0       12.201255   -3.618366   -2.404868
     65          1           0       12.981671   -5.040420    0.687133
     66          1           0       12.927624   -3.232485    0.371135
     67          1           0       13.425519   -4.357859   -0.854047
     68          1           0        9.583178   -4.393686   -3.600894
     69          1           0       10.131707   -5.517827   -2.409099
     70          1           0       11.228259   -6.594478   -4.070160
     71          1           0       12.311780   -5.217369   -4.133568
     72          1           0       10.809292   -5.192083   -5.119042
     73          1           0       10.556852   -0.332918   -5.343303
     74          1           0       11.737906    0.957015   -5.129078
     75          1           0       10.136821    1.406728   -5.752689
     76          1           0        7.823243    4.220147   -2.111374
     77          1           0       10.079000    7.368974    0.090847
     78          1           0        9.328731    8.264783   -1.208719
     79          1           0       10.772713    7.396971   -1.498846
     80         12           0       -9.633260   -0.713642   -0.001125
     81          6           0       -8.850610    2.540168    0.776050
     82          6           0       -6.153744   -1.454096    0.064630
     83          6           0      -10.183312   -3.794961   -1.278852
     84          6           0      -12.872974    0.064398   -0.387837
     85          7           0       -7.718956    0.430498    0.376412
     86          6           0       -7.689686    1.768889    0.663139
     87          6           0       -6.265926    2.232731    0.978892
     88          6           0       -5.429043    0.945349    0.535455
     89          6           0       -6.485217   -0.095940    0.306591
     90          6           0       -4.456533    1.194561   -0.675254
     91          6           0       -6.039106    2.606713    2.514623
     92          6           0       -5.268409    3.829930    2.949543
     93          1           0       -3.959647    4.109694    2.300363
     94          7           0       -8.361917   -2.448719   -0.500296
     95          6           0       -7.045489   -2.601828   -0.237105
     96          6           0       -6.622022   -3.943615   -0.460114
     97          6           0       -7.796283   -4.673280   -0.828004
     98          6           0       -8.829424   -3.601380   -0.946279
     99          6           0       -5.170213   -4.269265   -0.317912
    100          6           0       -7.919986   -6.128337   -1.246858
    101          8           0       -8.926762   -6.571867   -1.807896
    102          6           0       -6.775402   -7.095425   -1.000084
    103          7           0      -11.294753   -1.704903   -0.891533
    104          6           0      -11.291593   -3.023413   -1.220991
    105          6           0      -12.707156   -3.505067   -1.534390
    106          6           0      -13.584601   -2.282693   -1.065700
    107          6           0      -12.530855   -1.238870   -0.752316
    108          6           0      -13.076438   -4.068919   -2.938275
    109          6           0      -14.623728   -2.555519    0.100572
    110          6           0      -14.237612   -2.312416    1.544235
    111          7           0      -10.662420    0.941804    0.052492
    112          6           0      -12.017005    1.156651    0.023882
    113          6           0      -12.375005    2.518920    0.182894
    114          6           0      -11.163900    3.107338    0.533410
    115          6           0      -10.162771    2.104742    0.461797
    116          6           0      -13.705891    3.258774    0.146838
    117          6           0      -10.520061    4.296938    0.883349
    118          8           0      -10.999044    5.411875    0.979482
    119          6           0       -8.920390    4.030985    1.053799
    120          6           0       -8.222920    4.868398    0.085747
    121          8           0       -8.292544    4.765623   -1.155049
    122          8           0       -7.486988    5.858031    0.657483
    123          6           0       -6.996924    6.954138   -0.185808
    124          1           0       -5.077641   -1.579824    0.198449
    125          1           0      -10.433363   -4.848713   -1.417133
    126          1           0      -13.917014    0.268520   -0.144313
    127          1           0       -6.073946    3.152454    0.424829
    128          1           0       -4.753404    0.618807    1.326194
    129          1           0       -3.445159    0.971332   -0.337294
    130          1           0       -4.655480    2.222743   -0.978013
    131          1           0       -4.567479    0.504418   -1.512162
    132          1           0       -5.519767    1.717163    2.871548
    133          1           0       -6.966799    2.517843    3.078958
    134          1           0       -5.184750    3.850394    4.036112
    135          1           0       -5.870177    4.678785    2.626871
    136          1           0       -5.149017   -5.196723    0.253176
    137          1           0       -4.663610   -3.521380    0.292612
    138          1           0       -4.608151   -4.386043   -1.245119
    139          1           0       -6.304821   -6.986297   -0.022527
    140          1           0       -6.116392   -7.112201   -1.869226
    141          1           0       -7.257470   -8.073081   -0.971495
    142          1           0      -12.804015   -4.395794   -0.913274
    143          1           0      -14.290551   -1.953791   -1.827376
    144          1           0      -13.722373   -3.369002   -3.468159
    145          1           0      -13.628541   -4.991334   -2.758953
    146          1           0      -12.127547   -4.235444   -3.446969
    147          1           0      -14.916758   -3.600759    0.011913
    148          1           0      -15.516097   -1.948205   -0.052590
    149          1           0      -14.436120   -3.183233    2.169478
    150          1           0      -14.739032   -1.453225    1.991713
    151          1           0      -13.167245   -2.108654    1.513747
    152          1           0      -14.509376    2.538187   -0.010442
    153          1           0      -13.679759    4.002693   -0.649804
    154          1           0      -13.843194    3.768083    1.100285
    155          1           0       -8.766520    4.435795    2.054496
    156          1           0       -6.788957    7.875095    0.359056
    157          1           0       -7.575357    7.147662   -1.088673
    158          1           0       -5.986040    6.657797   -0.466231
 ---------------------------------------------------------------------

 SCF Done:  E(RwB97XD) =  -4070.63548458     A.U. after   19 cycles

 Excitation energies and oscillator strengths:

 Excited State   1:      Singlet-A      1.6599 eV  746.94 nm  f=0.3764  <S**2>=0.000
     310 -> 316        0.17526
     311 -> 313        0.65216
     312 -> 314       -0.20660
     310 <- 316        0.11083
 This state for optimization and/or second-order correction.
 Total Energy, E(TD-HF/TD-DFT) =  -4070.57448446
 Copying the excited state density for this state as the 1-particle RhoCI density.

 Excited State   2:      Singlet-A      1.6677 eV  743.46 nm  f=0.3910  <S**2>=0.000
     309 -> 315        0.18842
     311 -> 313        0.20730
     312 -> 314        0.64885
     309 <- 315        0.11501

 Excited State   3:      Singlet-A      2.1344 eV  580.89 nm  f=0.1691  <S**2>=0.000
     310 -> 313        0.66021
     311 -> 316       -0.24162

 Excited State   4:      Singlet-A      2.2263 eV  556.90 nm  f=0.0513  <S**2>=0.000
     309 -> 314        0.60356
     312 -> 315       -0.35684

 Excited State   5:      Singlet-A      3.4520 eV  359.17 nm  f=0.0000  <S**2>=0.000
     312 -> 313        0.70697

 The electronic state is 1-A.
 Alpha  occ. eigenvalues --  -46.95418 -46.95156 -19.31388 -19.30266 -19.25658
 Alpha  occ. eigenvalues --  -19.24200 -19.23969 -19.23903 -19.23628 -19.23460
 Alpha  occ. eigenvalues --  -14.46855 -14.46806 -14.46690 -14.46091 -14.44138
 Alpha  occ. eigenvalues --  -14.44121 -14.44102 -14.44066 -10.44257 -10.42760
 Alpha  occ. eigenvalues --  -10.39332 -10.39110 -10.38727 -10.38514 -10.35349
 Alpha  occ. eigenvalues --  -10.35345 -10.35300 -10.35262 -10.35059 -10.35006
 Alpha  occ. eigenvalues --  -10.34876 -10.34818 -10.34697 -10.34378 -10.34126
 Alpha  occ. eigenvalues --  -10.34104 -10.34096 -10.33966 -10.33862 -10.33671
 Alpha  occ. eigenvalues --  -10.33438 -10.32968 -10.32755 -10.32608 -10.32543
 Alpha  occ. eigenvalues --  -10.32509 -10.32500 -10.32312 -10.32299 -10.32261
 Alpha  occ. eigenvalues --  -10.32089 -10.32085 -10.32073 -10.32068 -10.32068
 Alpha  occ. eigenvalues --  -10.32055 -10.32023 -10.31783 -10.31756 -10.31574
 Alpha  occ. eigenvalues --  -10.31524 -10.31375 -10.31334 -10.31154 -10.31065
 Alpha  occ. eigenvalues --  -10.31060 -10.31037 -10.30837 -10.30820 -10.30805
 Alpha  occ. eigenvalues --  -10.30624 -10.30477 -10.30267 -10.30230 -10.30211
 Alpha  occ. eigenvalues --  -10.30132 -10.30031 -10.29986 -10.29895 -10.29599
 Alpha  occ. eigenvalues --  -10.29572 -10.29545 -10.29326 -10.29217 -10.28819
 Alpha  occ. eigenvalues --  -10.28615  -3.21470  -3.21202  -1.95043  -1.94768
 Alpha  occ. eigenvalues --   -1.94555  -1.94485  -1.94341  -1.94169  -1.18270
 Alpha  occ. eigenvalues --   -1.18012  -1.14235  -1.12103  -1.11667  -1.11467
 Alpha  occ. eigenvalues --   -1.10569  -1.08005  -1.07375  -1.06912  -1.06671
 Alpha  occ. eigenvalues --   -1.06404  -1.06138  -1.05484  -1.05039  -1.04239
 Alpha  occ. eigenvalues --   -0.95180  -0.94565  -0.91128  -0.90982  -0.90925
 Alpha  occ. eigenvalues --   -0.90581  -0.90087  -0.90041  -0.89702  -0.89696
 Alpha  occ. eigenvalues --   -0.89341  -0.89178  -0.88346  -0.87066  -0.86629
 Alpha  occ. eigenvalues --   -0.86258  -0.86197  -0.85636  -0.84598  -0.84570
 Alpha  occ. eigenvalues --   -0.84548  -0.83749  -0.83122  -0.83091  -0.82954
 Alpha  occ. eigenvalues --   -0.82255  -0.80328  -0.80066  -0.79382  -0.79295
 Alpha  occ. eigenvalues --   -0.79013  -0.78455  -0.78357  -0.78142  -0.77406
 Alpha  occ. eigenvalues --   -0.77174  -0.75510  -0.75002  -0.74237  -0.73500
 Alpha  occ. eigenvalues --   -0.71525  -0.71188  -0.71067  -0.70724  -0.70246
 Alpha  occ. eigenvalues --   -0.70079  -0.69105  -0.68885  -0.67912  -0.67689
 Alpha  occ. eigenvalues --   -0.67539  -0.67083  -0.66994  -0.66704  -0.66592
 Alpha  occ. eigenvalues --   -0.66183  -0.64841  -0.64217  -0.62336  -0.62178
 Alpha  occ. eigenvalues --   -0.62175  -0.61782  -0.61228  -0.61040  -0.61004
 Alpha  occ. eigenvalues --   -0.60603  -0.60251  -0.59857  -0.59832  -0.59253
 Alpha  occ. eigenvalues --   -0.58347  -0.58211  -0.58190  -0.57362  -0.57312
 Alpha  occ. eigenvalues --   -0.56996  -0.56973  -0.56755  -0.56033  -0.55970
 Alpha  occ. eigenvalues --   -0.55595  -0.55227  -0.55204  -0.55073  -0.55069
 Alpha  occ. eigenvalues --   -0.54839  -0.54738  -0.54718  -0.54461  -0.54253
 Alpha  occ. eigenvalues --   -0.54144  -0.53996  -0.53846  -0.53376  -0.53083
 Alpha  occ. eigenvalues --   -0.52939  -0.52663  -0.52503  -0.52496  -0.52224
 Alpha  occ. eigenvalues --   -0.52177  -0.51867  -0.51776  -0.51690  -0.51440
 Alpha  occ. eigenvalues --   -0.51382  -0.51165  -0.51143  -0.50983  -0.50739
 Alpha  occ. eigenvalues --   -0.50708  -0.50646  -0.50481  -0.50377  -0.50141
 Alpha  occ. eigenvalues --   -0.50140  -0.49755  -0.49568  -0.49471  -0.49146
 Alpha  occ. eigenvalues --   -0.49071  -0.48772  -0.48639  -0.48426  -0.48404
 Alpha  occ. eigenvalues --   -0.48335  -0.48171  -0.48070  -0.48036  -0.47860
 Alpha  occ. eigenvalues --   -0.47776  -0.47509  -0.47400  -0.47208  -0.46938
 Alpha  occ. eigenvalues --   -0.46504  -0.46433  -0.46363  -0.46214  -0.45914
 Alpha  occ. eigenvalues --   -0.45833  -0.45805  -0.45659  -0.45529  -0.45396
 Alpha  occ. eigenvalues --   -0.45266  -0.45162  -0.45142  -0.44903  -0.44654
 Alpha  occ. eigenvalues --   -0.44504  -0.44205  -0.44165  -0.44015  -0.43879
 Alpha  occ. eigenvalues --   -0.43771  -0.43768  -0.43650  -0.43436  -0.43209
 Alpha  occ. eigenvalues --   -0.43135  -0.43013  -0.42894  -0.42738  -0.42469
 Alpha  occ. eigenvalues --   -0.42413  -0.42088  -0.41900  -0.41733  -0.41440
 Alpha  occ. eigenvalues --   -0.41014  -0.40387  -0.40124  -0.40071  -0.39608
 Alpha  occ. eigenvalues --   -0.39274  -0.39265  -0.38745  -0.38723  -0.38639
 Alpha  occ. eigenvalues --   -0.38022  -0.37660  -0.36939  -0.36845  -0.36522
 Alpha  occ. eigenvalues --   -0.35865  -0.35397  -0.35057  -0.33679  -0.33510
 Alpha  occ. eigenvalues --   -0.33329  -0.33219  -0.33063  -0.33005  -0.32448
 Alpha  occ. eigenvalues --   -0.32425  -0.32229  -0.31951  -0.26450  -0.25720
 Alpha  occ. eigenvalues --   -0.23247  -0.22931
 Alpha virt. eigenvalues --   -0.07433  -0.06783  -0.00460   0.00754   0.02339
 Alpha virt. eigenvalues --    0.02466   0.04480   0.04584   0.04965   0.05070
 Alpha virt. eigenvalues --    0.06256   0.06893   0.07342   0.08352   0.08582

 Mulliken charges:
               1
     1  Mg   0.956678
     2  C   -0.054740
     3  C   -0.098343
     4  C   -0.053080
     5  C   -0.094170
     6  N   -0.331749
     7  C   -0.023716
     8  C   -0.114989
     9  C   -0.115557
    10  C    0.038867
    11  C    0.060884
    12  C    0.025636
    13  C   -0.134770
    14  H    0.045006
    15  N   -0.518525
    16  C    0.210282
    17  C   -0.173178
    18  C   -0.106221
    19  C    0.151410
    20  C    0.083557
    21  C    0.061876
    22  O   -0.196971
    23  C   -0.021480
    24  N   -0.326811
    25  C    0.062198
    26  C   -0.102207
    27  C   -0.069909
    28  C    0.069774
    29  C    0.021055
    30  C   -0.022427
    31  C   -0.034805
    32  N   -0.429039
    33  C    0.127723
    34  C   -0.206555
    35  C   -0.016772
    36  C    0.192854
    37  C    0.097445
    38  C    0.099253
    39  O   -0.220430
    40  C   -0.022201
    41  C    0.288833
    42  O   -0.244227
    43  O   -0.362560
    44  C    0.139678
    45  H    0.001479
    46  H   -0.029127
    47  H   -0.001304
    48  H    0.017504
    49  H    0.023302
    50  H    0.042857
    51  H    0.038946
    52  H    0.055298
    53  H    0.032048
    54  H    0.055396
    55  H    0.048342
    56  H    0.058404
    57  H    0.055519
    58  H    0.011476
    59  H    0.051741
    60  H    0.070784
    61  H    0.042088
    62  H    0.069791
    63  H    0.033444
    64  H    0.024526
    65  H    0.046214
    66  H    0.041632
    67  H    0.029849
    68  H    0.043845
    69  H    0.016221
    70  H    0.044130
    71  H    0.026528
    72  H    0.041678
    73  H    0.036731
    74  H    0.058579
    75  H    0.066263
    76  H    0.061051
    77  H    0.042352
    78  H    0.050612
    79  H    0.054227
    80  Mg   0.974494
    81  C   -0.004366
    82  C   -0.064842
    83  C   -0.065466
    84  C   -0.074915
    85  N   -0.330600
    86  C    0.000564
    87  C   -0.084413
    88  C   -0.117859
    89  C    0.051474
    90  C    0.025201
    91  C    0.010958
    92  C   -0.102202
    93  H    0.032193
    94  N   -0.356568
    95  C    0.129074
    96  C   -0.163719
    97  C   -0.075485
    98  C    0.100135
    99  C    0.082130
   100  C    0.043285
   101  O   -0.246951
   102  C   -0.017020
   103  N   -0.351405
   104  C    0.050208
   105  C   -0.080628
   106  C   -0.041482
   107  C    0.061517
   108  C    0.035318
   109  C   -0.057985
   110  C   -0.043040
   111  N   -0.478519
   112  C    0.099465
   113  C   -0.189170
   114  C    0.040922
   115  C    0.138031
   116  C    0.096941
   117  C    0.037736
   118  O   -0.208018
   119  C   -0.055995
   120  C    0.260111
   121  O   -0.281151
   122  O   -0.359806
   123  C    0.146671
   124  H   -0.010642
   125  H    0.017261
   126  H   -0.000473
   127  H    0.049007
   128  H    0.042607
   129  H    0.031778
   130  H    0.050422
   131  H    0.040830
   132  H    0.012408
   133  H    0.032324
   134  H    0.055826
   135  H    0.054374
   136  H    0.030749
   137  H    0.037034
   138  H    0.063757
   139  H    0.053902
   140  H    0.071536
   141  H    0.050356
   142  H    0.036330
   143  H    0.036863
   144  H    0.036514
   145  H    0.040309
   146  H    0.051450
   147  H    0.029657
   148  H    0.029319
   149  H    0.038422
   150  H    0.037251
   151  H    0.035935
   152  H    0.026378
   153  H    0.066813
   154  H    0.060887
   155  H    0.060524
   156  H    0.053242
   157  H    0.075609
   158  H    0.036616
 Sum of Mulliken charges =  -0.00000

 Dipole moment (field-independent basis, Debye):
    X=              3.6902    Y=             -4.1069    Z=              3.6976  Tot=              6.6450
 Quadrupole moment (field-independent basis, Debye-Ang):
   XX=           -486.3879   YY=           -503.9281   ZZ=           -537.0022
   XY=             -8.6155   XZ=            -20.6819   YZ=             31.8430

 Normal termination of Gaussian 16 at Mon Sep 20 18:24:00 2021.
