 Gaussian 16, Revision A.03,
 Gaussian 16:  ES64L-G16RevA.03 25-Dec-2016

 --------------------------------
 #p wB97XD/Def2SVP td=(nstates=5)
 --------------------------------

 --------------------------------
 TDDFT excited states in gaussian
 --------------------------------
 Symbolic Z-matrix:
 Charge =  0 Multiplicity = 1

                         Standard orientation:
 ---------------------------------------------------------------------
 Center     Atomic      Atomic             Coordinates (Angstroms)
 Number     Number       Type             X           Y           Z
 ---------------------------------------------------------------------
      1         12           0      -17.466615   -0.762116    0.310977
      2          6           0      -17.666562    2.302342   -1.305653
      3          6           0      -16.727413    0.796959    3.208733
      4          6           0      -17.127252   -3.781398    1.715844
      5          6           0      -18.080753   -2.293913   -2.777454
      6          7           0      -17.268186    1.355460    0.822814
      7          6           0      -17.472989    2.413539    0.075300
      8          6           0      -17.286577    3.701346    1.002809
      9          6           0      -16.314073    3.106959    1.999503
     10          6           0      -16.815449    1.629374    2.067994
     11          6           0      -14.861512    3.313041    1.518560
     12          6           0      -18.697533    4.274462    1.456682
     13          6           0      -18.672259    5.731730    1.927957
     14          1           0      -17.329453    6.406416    2.148993
     15          7           0      -17.174305   -1.393516    2.210829
     16          6           0      -16.960253   -0.560904    3.306765
     17          6           0      -17.015627   -1.410432    4.534117
     18          6           0      -17.069673   -2.803269    4.100981
     19          6           0      -17.045853   -2.658973    2.621103
     20          6           0      -16.947023   -0.837210    5.929803
     21          6           0      -17.181729   -4.164090    4.931570
     22          8           0      -17.294874   -5.278542    4.409959
     23          6           0      -17.163295   -4.036662    6.440554
     24          7           0      -17.472375   -2.697960   -0.420002
     25          6           0      -17.297983   -3.778139    0.336663
     26          6           0      -17.258028   -5.098096   -0.493655
     27          6           0      -17.802401   -4.587078   -1.835316
     28          6           0      -17.854771   -3.099337   -1.683096
     29          6           0      -15.858697   -5.769041   -0.579665
     30          6           0      -19.103892   -5.280027   -2.439281
     31          6           0      -20.394984   -4.538365   -2.324145
     32          7           0      -17.604354   -0.185222   -1.693350
     33          6           0      -17.913823   -0.884209   -2.811187
     34          6           0      -17.993447   -0.073373   -3.973573
     35          6           0      -17.904539    1.244614   -3.424839
     36          6           0      -17.683305    1.065841   -2.078355
     37          6           0      -18.141718   -0.361191   -5.445101
     38          6           0      -17.935086    2.654204   -3.678862
     39          8           0      -18.075611    3.291440   -4.700365
     40          6           0      -17.941141    3.422440   -2.318846
     41          6           0      -16.917093    4.471190   -2.342744
     42          8           0      -15.728529    4.223139   -2.477507
     43          8           0      -17.444469    5.787354   -2.379709
     44          6           0      -16.461685    6.872818   -2.523637
     45          1           0      -16.426189    1.334324    4.109138
     46          1           0      -16.968183   -4.748645    2.195484
     47          1           0      -18.220718   -2.808192   -3.730183
     48          1           0      -16.855594    4.514761    0.420660
     49          1           0      -16.424644    3.484619    3.015682
     50          1           0      -14.471988    4.008934    2.262361
     51          1           0      -14.800891    3.747406    0.519817
     52          1           0      -14.360575    2.356583    1.666424
     53          1           0      -19.096164    3.679816    2.279111
     54          1           0      -19.309312    4.255199    0.554462
     55          1           0      -19.245724    5.767656    2.853701
     56          1           0      -19.237794    6.307532    1.195752
     57          1           0      -17.426522    0.140883    5.982910
     58          1           0      -15.959480   -0.742438    6.380165
     59          1           0      -17.540715   -1.470130    6.589212
     60          1           0      -16.273241   -3.437845    6.632285
     61          1           0      -17.024291   -4.976426    6.974205
     62          1           0      -18.099144   -3.596647    6.785438
     63          1           0      -17.920547   -5.853354   -0.071139
     64          1           0      -16.972518   -4.678652   -2.535082
     65          1           0      -15.758666   -6.079290   -1.620064
     66          1           0      -15.671760   -6.609461    0.087006
     67          1           0      -15.117227   -5.028545   -0.279564
     68          1           0      -19.169943   -6.292179   -2.040007
     69          1           0      -18.990321   -5.359449   -3.520195
     70          1           0      -20.689811   -4.241927   -3.331052
     71          1           0      -20.344955   -3.554211   -1.856640
     72          1           0      -21.220479   -5.125513   -1.921608
     73          1           0      -18.110348   -1.428838   -5.665304
     74          1           0      -17.414737    0.235477   -5.996853
     75          1           0      -19.109887   -0.131412   -5.890538
     76          1           0      -18.906202    3.888346   -2.121391
     77          1           0      -16.858819    7.876849   -2.376332
     78          1           0      -16.106824    6.747479   -3.546968
     79          1           0      -15.647713    6.614608   -1.847253
     80         12           0       17.878491   -0.515192    0.088530
     81          6           0       15.542640    2.132384    0.022471
     82          6           0       20.386551    1.724505    0.698083
     83          6           0       20.033874   -2.930286   -0.537357
     84          6           0       15.282519   -2.662337   -1.023473
     85          7           0       17.902885    1.678124    0.443057
     86          6           0       16.865708    2.489240    0.375778
     87          6           0       17.255287    3.813024    1.008410
     88          6           0       18.820089    3.857235    0.815498
     89          6           0       19.090291    2.317733    0.628139
     90          6           0       19.226932    4.817374   -0.366180
     91          6           0       16.927148    3.867392    2.522620
     92          6           0       16.816202    5.324841    3.153049
     93          1           0       17.055515    6.587699    2.321138
     94          7           0       19.873529   -0.641887    0.279457
     95          6           0       20.795243    0.380856    0.620888
     96          6           0       22.144043   -0.224675    0.716720
     97          6           0       22.042896   -1.589836    0.266244
     98          6           0       20.613166   -1.822744   -0.032454
     99          6           0       23.347780    0.505544    1.198291
    100          6           0       23.103549   -2.747032    0.102426
    101          8           0       22.819332   -3.909382   -0.217242
    102          6           0       24.559652   -2.396008    0.203827
    103          7           0       17.701763   -2.510419   -0.792665
    104          6           0       18.723976   -3.318310   -0.890371
    105          6           0       18.405601   -4.698157   -1.394130
    106          6           0       16.847707   -4.630879   -1.569472
    107          6           0       16.550730   -3.203458   -1.009627
    108          6           0       19.268469   -5.076805   -2.601438
    109          6           0       16.073177   -5.695370   -0.802590
    110          6           0       14.842207   -6.337960   -1.536754
    111          7           0       15.758621   -0.397599   -0.359782
    112          6           0       14.835779   -1.383142   -0.761553
    113          6           0       13.528341   -0.823576   -0.729204
    114          6           0       13.737119    0.587012   -0.604905
    115          6           0       15.068754    0.781819   -0.338684
    116          6           0       12.242275   -1.597903   -0.772740
    117          6           0       13.158952    1.944406   -0.457781
    118          8           0       12.006602    2.314936   -0.542965
    119          6           0       14.373146    2.979188   -0.306972
    120          6           0       13.967384    4.152112    0.524113
    121          8           0       13.611963    4.130482    1.665549
    122          8           0       13.951773    5.336672   -0.235772
    123          6           0       12.968045    6.365442    0.163425
    124          1           0       21.252913    2.389880    0.697433
    125          1           0       20.640445   -3.832209   -0.636601
    126          1           0       14.494493   -3.368358   -1.293941
    127          1           0       16.598876    4.523143    0.505572
    128          1           0       19.325706    4.204897    1.717006
    129          1           0       18.337792    5.247314   -0.826140
    130          1           0       19.616999    4.135193   -1.121577
    131          1           0       19.864289    5.653081   -0.076996
    132          1           0       17.761618    3.347021    2.994476
    133          1           0       16.009270    3.298615    2.670827
    134          1           0       17.512718    5.309796    3.992726
    135          1           0       15.817977    5.359777    3.590107
    136          1           0       23.225757    1.483410    1.662718
    137          1           0       24.050143    0.721551    0.393714
    138          1           0       23.763584   -0.157889    1.957031
    139          1           0       24.953189   -2.420829    1.219891
    140          1           0       24.529162   -1.400404   -0.240535
    141          1           0       25.079550   -3.085230   -0.461025
    142          1           0       18.669109   -5.313336   -0.533868
    143          1           0       16.515849   -4.694173   -2.605066
    144          1           0       19.630547   -4.220817   -3.171729
    145          1           0       18.604425   -5.634633   -3.260540
    146          1           0       20.134130   -5.680348   -2.327662
    147          1           0       15.688065   -5.300137    0.137248
    148          1           0       16.846435   -6.380486   -0.455366
    149          1           0       14.621025   -5.822508   -2.471205
    150          1           0       14.010003   -6.185693   -0.849793
    151          1           0       14.864417   -7.403576   -1.767300
    152          1           0       12.358722   -2.282926   -1.612691
    153          1           0       11.352562   -0.991687   -0.944055
    154          1           0       12.145587   -2.207458    0.126264
    155          1           0       14.535316    3.462385   -1.269936
    156          1           0       13.521913    7.241970    0.499952
    157          1           0       12.286892    6.009687    0.937236
    158          1           0       12.410447    6.592899   -0.745081
 ---------------------------------------------------------------------

 SCF Done:  E(RwB97XD) =  -4070.60728384     A.U. after   19 cycles

 Excitation energies and oscillator strengths:

 Excited State   1:      Singlet-A      1.6905 eV  733.41 nm  f=0.3909  <S**2>=0.000
     309 -> 316       -0.18170
     311 -> 313        0.68421
     309 <- 316       -0.11473
 This state for optimization and/or second-order correction.
 Total Energy, E(TD-HF/TD-DFT) =  -4070.54515847
 Copying the excited state density for this state as the 1-particle RhoCI density.

 Excited State   2:      Singlet-A      1.7664 eV  701.92 nm  f=0.3736  <S**2>=0.000
     310 -> 315        0.19126
     312 -> 314        0.67833
     310 <- 315        0.11017

 Excited State   3:      Singlet-A      2.1196 eV  584.94 nm  f=0.0950  <S**2>=0.000
     310 -> 314        0.63986
     312 -> 315       -0.27487

 Excited State   4:      Singlet-A      2.1645 eV  572.81 nm  f=0.1464  <S**2>=0.000
     309 -> 313        0.65220
     311 -> 316        0.26034

 Excited State   5:      Singlet-A      3.2680 eV  379.39 nm  f=0.0031  <S**2>=0.000
     304 -> 314       -0.16881
     306 -> 314       -0.15505
     308 -> 314        0.64110
     308 -> 317       -0.10639

 The electronic state is 1-A.
 Alpha  occ. eigenvalues --  -46.94857 -46.94065 -19.29085 -19.28456 -19.25522
 Alpha  occ. eigenvalues --  -19.25413 -19.24438 -19.24342 -19.23311 -19.22858
 Alpha  occ. eigenvalues --  -14.46555 -14.46512 -14.46307 -14.45972 -14.44698
 Alpha  occ. eigenvalues --  -14.44428 -14.43141 -14.42554 -10.42660 -10.42352
 Alpha  occ. eigenvalues --  -10.41241 -10.40850 -10.38748 -10.38023 -10.36329
 Alpha  occ. eigenvalues --  -10.35717 -10.35357 -10.35200 -10.35084 -10.34945
 Alpha  occ. eigenvalues --  -10.34891 -10.34728 -10.34639 -10.34593 -10.34570
 Alpha  occ. eigenvalues --  -10.34523 -10.34395 -10.34050 -10.33743 -10.33652
 Alpha  occ. eigenvalues --  -10.33423 -10.33181 -10.32697 -10.32561 -10.32247
 Alpha  occ. eigenvalues --  -10.32215 -10.32168 -10.31990 -10.31977 -10.31975
 Alpha  occ. eigenvalues --  -10.31971 -10.31962 -10.31940 -10.31799 -10.31726
 Alpha  occ. eigenvalues --  -10.31648 -10.31642 -10.31604 -10.31590 -10.31538
 Alpha  occ. eigenvalues --  -10.31533 -10.31380 -10.31288 -10.31219 -10.31031
 Alpha  occ. eigenvalues --  -10.30928 -10.30813 -10.30736 -10.30729 -10.30185
 Alpha  occ. eigenvalues --  -10.30128 -10.30115 -10.29944 -10.29910 -10.29799
 Alpha  occ. eigenvalues --  -10.29707 -10.29681 -10.29583 -10.29545 -10.29533
 Alpha  occ. eigenvalues --  -10.29528 -10.29465 -10.29394 -10.28360 -10.28250
 Alpha  occ. eigenvalues --  -10.28116  -3.20769  -3.20230  -1.94371  -1.93891
 Alpha  occ. eigenvalues --   -1.93840  -1.93730  -1.93326  -1.93254  -1.17296
 Alpha  occ. eigenvalues --   -1.16572  -1.12770  -1.12715  -1.11720  -1.11688
 Alpha  occ. eigenvalues --   -1.09157  -1.08877  -1.07529  -1.07094  -1.06685
 Alpha  occ. eigenvalues --   -1.06501  -1.06121  -1.05181  -1.03646  -1.03067
 Alpha  occ. eigenvalues --   -0.94034  -0.93720  -0.91146  -0.91042  -0.90839
 Alpha  occ. eigenvalues --   -0.90390  -0.90161  -0.89660  -0.89529  -0.89218
 Alpha  occ. eigenvalues --   -0.89169  -0.88988  -0.88116  -0.87303  -0.86157
 Alpha  occ. eigenvalues --   -0.85898  -0.85568  -0.85465  -0.84834  -0.84645
 Alpha  occ. eigenvalues --   -0.84466  -0.83589  -0.82833  -0.82563  -0.81983
 Alpha  occ. eigenvalues --   -0.81790  -0.80609  -0.80536  -0.79094  -0.79071
 Alpha  occ. eigenvalues --   -0.78516  -0.78272  -0.77704  -0.77280  -0.77077
 Alpha  occ. eigenvalues --   -0.76945  -0.74751  -0.74444  -0.73674  -0.73102
 Alpha  occ. eigenvalues --   -0.71735  -0.71078  -0.70678  -0.70594  -0.69838
 Alpha  occ. eigenvalues --   -0.69220  -0.68627  -0.68612  -0.67936  -0.67097
 Alpha  occ. eigenvalues --   -0.66969  -0.66538  -0.66528  -0.66129  -0.65907
 Alpha  occ. eigenvalues --   -0.65429  -0.63191  -0.63004  -0.62638  -0.62256
 Alpha  occ. eigenvalues --   -0.61492  -0.61075  -0.61066  -0.60562  -0.60004
 Alpha  occ. eigenvalues --   -0.59954  -0.59898  -0.59523  -0.59517  -0.58760
 Alpha  occ. eigenvalues --   -0.58454  -0.57784  -0.57600  -0.57389  -0.57303
 Alpha  occ. eigenvalues --   -0.57003  -0.56626  -0.56138  -0.55830  -0.55666
 Alpha  occ. eigenvalues --   -0.55514  -0.55280  -0.55123  -0.55045  -0.54893
 Alpha  occ. eigenvalues --   -0.54743  -0.54532  -0.54191  -0.54125  -0.54028
 Alpha  occ. eigenvalues --   -0.53912  -0.53677  -0.53658  -0.53263  -0.53151
 Alpha  occ. eigenvalues --   -0.53078  -0.52848  -0.52665  -0.52642  -0.52436
 Alpha  occ. eigenvalues --   -0.52172  -0.52056  -0.51925  -0.51757  -0.51362
 Alpha  occ. eigenvalues --   -0.51166  -0.51052  -0.50932  -0.50822  -0.50736
 Alpha  occ. eigenvalues --   -0.50627  -0.50428  -0.50357  -0.50231  -0.49929
 Alpha  occ. eigenvalues --   -0.49740  -0.49695  -0.49462  -0.49254  -0.49214
 Alpha  occ. eigenvalues --   -0.48919  -0.48739  -0.48540  -0.48425  -0.48297
 Alpha  occ. eigenvalues --   -0.48119  -0.48070  -0.47882  -0.47649  -0.47482
 Alpha  occ. eigenvalues --   -0.47394  -0.47331  -0.46940  -0.46796  -0.46746
 Alpha  occ. eigenvalues --   -0.46526  -0.46206  -0.46148  -0.45880  -0.45874
 Alpha  occ. eigenvalues --   -0.45828  -0.45630  -0.45383  -0.45311  -0.45215
 Alpha  occ. eigenvalues --   -0.45100  -0.45001  -0.44877  -0.44699  -0.44520
 Alpha  occ. eigenvalues --   -0.44377  -0.44197  -0.43969  -0.43924  -0.43683
 Alpha  occ. eigenvalues --   -0.43600  -0.43446  -0.43251  -0.43251  -0.43048
 Alpha  occ. eigenvalues --   -0.42899  -0.42888  -0.42806  -0.42370  -0.42035
 Alpha  occ. eigenvalues --   -0.42008  -0.41877  -0.41825  -0.41047  -0.40957
 Alpha  occ. eigenvalues --   -0.40680  -0.40143  -0.39922  -0.39702  -0.39586
 Alpha  occ. eigenvalues --   -0.39398  -0.38585  -0.38365  -0.38072  -0.37660
 Alpha  occ. eigenvalues --   -0.37560  -0.37334  -0.36385  -0.36203  -0.35831
 Alpha  occ. eigenvalues --   -0.35769  -0.35383  -0.35197  -0.34150  -0.33909
 Alpha  occ. eigenvalues --   -0.33397  -0.33335  -0.32664  -0.32497  -0.32102
 Alpha  occ. eigenvalues --   -0.32015  -0.31640  -0.30376  -0.25768  -0.25652
 Alpha  occ. eigenvalues --   -0.23160  -0.23141
 Alpha virt. eigenvalues --   -0.07119  -0.06803  -0.00082   0.00717   0.01900
 Alpha virt. eigenvalues --    0.02056   0.04630   0.04897   0.06047   0.06658
 Alpha virt. eigenvalues --    0.07001   0.07035   0.08097   0.08123   0.08772

 Mulliken charges:
               1
     1  Mg   0.986031
     2  C   -0.033902
     3  C   -0.089370
     4  C   -0.081550
     5  C   -0.113086
     6  N   -0.312295
     7  C   -0.022160
     8  C   -0.084717
     9  C   -0.106245
    10  C    0.035575
    11  C    0.056904
    12  C    0.017371
    13  C   -0.109421
    14  H    0.037548
    15  N   -0.477458
    16  C    0.190065
    17  C   -0.158424
    18  C   -0.108881
    19  C    0.127459
    20  C    0.049018
    21  C    0.101632
    22  O   -0.227678
    23  C   -0.029419
    24  N   -0.378870
    25  C    0.081089
    26  C   -0.097519
    27  C   -0.032562
    28  C    0.052954
    29  C    0.021151
    30  C   -0.006319
    31  C   -0.048389
    32  N   -0.374764
    33  C    0.116065
    34  C   -0.174758
    35  C   -0.023328
    36  C    0.102152
    37  C    0.084926
    38  C    0.096552
    39  O   -0.204604
    40  C   -0.019799
    41  C    0.245609
    42  O   -0.251656
    43  O   -0.402758
    44  C    0.147301
    45  H    0.004709
    46  H    0.017864
    47  H   -0.007258
    48  H    0.021278
    49  H    0.004262
    50  H    0.035584
    51  H    0.070973
    52  H    0.037080
    53  H    0.035354
    54  H    0.041263
    55  H    0.045518
    56  H    0.053063
    57  H    0.040751
    58  H    0.065921
    59  H    0.030965
    60  H    0.059266
    61  H    0.056189
    62  H    0.081268
    63  H    0.037105
    64  H    0.030731
    65  H    0.038426
    66  H    0.045360
    67  H    0.041326
    68  H    0.033830
    69  H    0.028020
    70  H    0.018015
    71  H    0.047789
    72  H    0.040774
    73  H    0.015346
    74  H    0.066054
    75  H    0.046024
    76  H    0.068259
    77  H    0.063877
    78  H    0.057343
    79  H    0.048202
    80  Mg   0.949403
    81  C    0.045775
    82  C   -0.095085
    83  C   -0.065619
    84  C   -0.086045
    85  N   -0.314101
    86  C    0.001037
    87  C   -0.120637
    88  C   -0.103127
    89  C    0.089362
    90  C    0.035013
    91  C   -0.006347
    92  C   -0.094877
    93  H    0.041453
    94  N   -0.554559
    95  C    0.175953
    96  C   -0.151029
    97  C   -0.082929
    98  C    0.208149
    99  C    0.035236
   100  C    0.082104
   101  O   -0.237321
   102  C   -0.013259
   103  N   -0.304471
   104  C   -0.029730
   105  C   -0.047696
   106  C   -0.103711
   107  C    0.058323
   108  C    0.030157
   109  C   -0.003869
   110  C   -0.057115
   111  N   -0.438123
   112  C    0.134194
   113  C   -0.193288
   114  C   -0.035249
   115  C    0.077280
   116  C    0.080549
   117  C    0.135351
   118  O   -0.202584
   119  C   -0.093179
   120  C    0.220852
   121  O   -0.208218
   122  O   -0.410310
   123  C    0.136743
   124  H    0.001475
   125  H    0.012938
   126  H   -0.022006
   127  H    0.032055
   128  H    0.036163
   129  H    0.038441
   130  H    0.032965
   131  H    0.048352
   132  H    0.023384
   133  H    0.054495
   134  H    0.041765
   135  H    0.065383
   136  H    0.042964
   137  H    0.065225
   138  H    0.060713
   139  H    0.079981
   140  H    0.041659
   141  H    0.065172
   142  H    0.042212
   143  H    0.040221
   144  H    0.046689
   145  H    0.033138
   146  H    0.056274
   147  H    0.030776
   148  H    0.022347
   149  H    0.036011
   150  H    0.038508
   151  H    0.045678
   152  H    0.035979
   153  H    0.058463
   154  H    0.050900
   155  H    0.080290
   156  H    0.051931
   157  H    0.069233
   158  H    0.055771
 Sum of Mulliken charges =  -0.00000

 Dipole moment (field-independent basis, Debye):
    X=              5.2942    Y=             -1.6099    Z=              5.7580  Tot=              7.9859
 Quadrupole moment (field-independent basis, Debye-Ang):
   XX=           -281.1203   YY=           -482.5050   ZZ=           -498.7530
   XY=             17.9611   XZ=            -85.6357   YZ=             31.0088

 Normal termination of Gaussian 16 at Mon Sep 20 19:22:29 2021.
