 Gaussian 16, Revision A.03,
 Gaussian 16:  ES64L-G16RevA.03 25-Dec-2016

 --------------------------------
 #p wB97XD/Def2SVP td=(nstates=5)
 --------------------------------

 --------------------------------
 TDDFT excited states in gaussian
 --------------------------------
 Symbolic Z-matrix:
 Charge =  0 Multiplicity = 1

                         Standard orientation:
 ---------------------------------------------------------------------
 Center     Atomic      Atomic             Coordinates (Angstroms)
 Number     Number       Type             X           Y           Z
 ---------------------------------------------------------------------
      1         12           0       31.423229    0.491691   -0.457123
      2          6           0       29.285158   -1.956984    0.678188
      3          6           0       28.856461    2.734436   -0.242437
      4          6           0       33.708778    2.871698   -0.300452
      5          6           0       33.955725   -1.937231   -0.576638
      6          7           0       29.441948    0.418522    0.607879
      7          6           0       28.707533   -0.713526    0.759914
      8          6           0       27.266895   -0.433404    1.070577
      9          6           0       27.104519    0.949300    0.360077
     10          6           0       28.550541    1.375623    0.154259
     11          6           0       26.242374    0.873014   -0.932554
     12          6           0       26.996214   -0.318306    2.654062
     13          6           0       25.580624   -0.871925    3.150150
     14          1           0       24.835996    0.270118    3.796145
     15          7           0       31.274113    2.533678   -0.493182
     16          6           0       30.181591    3.308604   -0.315862
     17          6           0       30.545272    4.719958   -0.318106
     18          6           0       31.953443    4.772720   -0.368086
     19          6           0       32.368146    3.341765   -0.384343
     20          6           0       29.467998    5.825365   -0.200514
     21          6           0       32.729461    6.047072   -0.184479
     22          8           0       32.139119    7.089408   -0.069267
     23          6           0       34.264229    6.130603   -0.079106
     24          7           0       33.575229    0.519251   -0.570723
     25          6           0       34.236686    1.585140   -0.469874
     26          6           0       35.701342    1.365595   -0.375603
     27          6           0       35.816385   -0.206046   -0.478843
     28          6           0       34.400509   -0.583863   -0.544389
     29          6           0       36.483693    2.206443   -1.440367
     30          6           0       36.563725   -0.838223    0.785082
     31          6           0       37.146995   -2.287840    0.631048
     32          7           0       31.628031   -1.535948   -0.131370
     33          6           0       32.695285   -2.394154   -0.324659
     34          6           0       32.282853   -3.759928   -0.155778
     35          6           0       30.893912   -3.643610    0.201498
     36          6           0       30.595025   -2.298496    0.301200
     37          6           0       33.109457   -4.994746   -0.317952
     38          6           0       29.727129   -4.400114    0.499792
     39          8           0       29.466037   -5.606242    0.595385
     40          6           0       28.690368   -3.344781    1.009125
     41          6           0       27.387196   -3.682358    0.364945
     42          8           0       26.506851   -4.388312    0.876639
     43          8           0       27.339020   -3.144006   -0.891306
     44          6           0       26.052755   -3.532229   -1.535253
     45          1           0       28.085247    3.501517   -0.342560
     46          1           0       34.438839    3.675253   -0.187975
     47          1           0       34.765745   -2.664657   -0.483408
     48          1           0       26.727492   -1.212442    0.533315
     49          1           0       26.557484    1.624276    1.018510
     50          1           0       25.336623    1.463115   -0.795941
     51          1           0       25.914190   -0.161668   -1.036967
     52          1           0       26.875763    1.174803   -1.766138
     53          1           0       27.164667    0.660762    3.102305
     54          1           0       27.736439   -0.896572    3.206097
     55          1           0       25.836385   -1.584701    3.934281
     56          1           0       24.946384   -1.431134    2.462213
     57          1           0       29.583561    6.490308    0.655324
     58          1           0       28.443774    5.450930   -0.210433
     59          1           0       29.515091    6.406693   -1.120749
     60          1           0       34.775714    5.821874   -0.990206
     61          1           0       34.675717    5.585240    0.770593
     62          1           0       34.459925    7.160070    0.222441
     63          1           0       35.935479    1.687901    0.638903
     64          1           0       36.239500   -0.636955   -1.385935
     65          1           0       37.171470    2.848462   -0.890463
     66          1           0       35.813432    2.794549   -2.067509
     67          1           0       37.208734    1.632330   -2.017054
     68          1           0       35.891285   -0.861686    1.642882
     69          1           0       37.369183   -0.142608    1.015988
     70          1           0       38.211979   -2.482410    0.754743
     71          1           0       36.967920   -2.666240   -0.374425
     72          1           0       36.651505   -2.967999    1.323870
     73          1           0       34.102569   -4.865597   -0.747797
     74          1           0       32.439775   -5.567738   -0.958017
     75          1           0       33.054373   -5.388424    0.697060
     76          1           0       28.580619   -3.310657    2.093576
     77          1           0       26.066362   -4.599704   -1.752964
     78          1           0       25.945139   -3.125410   -2.540771
     79          1           0       25.245487   -3.211479   -0.876486
     80         12           0      -31.484595    0.200104    0.246802
     81          6           0      -29.254478   -1.812953   -1.348591
     82          6           0      -32.040992    1.982313   -2.643016
     83          6           0      -33.539695    2.234095    2.007543
     84          6           0      -30.530473   -1.339035    3.282005
     85          7           0      -30.555209    0.228134   -1.725415
     86          6           0      -29.931292   -0.881230   -2.204047
     87          6           0      -29.849946   -0.920960   -3.692443
     88          6           0      -30.558685    0.489843   -4.036461
     89          6           0      -31.099982    0.954397   -2.724314
     90          6           0      -29.547354    1.550145   -4.668124
     91          6           0      -30.700100   -2.167864   -4.222830
     92          6           0      -30.349558   -2.718063   -5.607031
     93          1           0      -29.465361   -1.980628   -6.643315
     94          7           0      -32.724694    1.818327   -0.220003
     95          6           0      -32.787094    2.419403   -1.487797
     96          6           0      -33.712296    3.524087   -1.385935
     97          6           0      -34.175569    3.589312   -0.056091
     98          6           0      -33.502314    2.481475    0.607719
     99          6           0      -34.090366    4.367342   -2.626014
    100          6           0      -35.147877    4.704769    0.597357
    101          8           0      -35.612816    4.599348    1.739366
    102          6           0      -35.615206    5.958960   -0.122602
    103          7           0      -32.009652    0.351252    2.391902
    104          6           0      -32.857935    1.316131    2.820866
    105          6           0      -32.851932    1.427572    4.344571
    106          6           0      -32.119166    0.028666    4.771884
    107          6           0      -31.583436   -0.449924    3.413370
    108          6           0      -32.255989    2.780394    4.949006
    109          6           0      -33.079877   -1.153184    5.300874
    110          6           0      -32.740692   -1.882485    6.587818
    111          7           0      -30.211970   -1.313041    0.920345
    112          6           0      -29.913444   -1.817951    2.130206
    113          6           0      -28.970494   -2.970262    1.979748
    114          6           0      -28.751981   -3.002904    0.582017
    115          6           0      -29.439162   -1.891557    0.035534
    116          6           0      -28.409476   -3.911515    2.986156
    117          6           0      -28.032881   -3.742188   -0.386591
    118          8           0      -27.284087   -4.731977   -0.253930
    119          6           0      -28.320470   -3.002120   -1.690472
    120          6           0      -27.072562   -2.523655   -2.239996
    121          8           0      -26.224262   -1.836522   -1.763176
    122          8           0      -27.054488   -2.930930   -3.570654
    123          6           0      -25.927041   -2.566003   -4.511434
    124          1           0      -32.434669    2.441836   -3.551599
    125          1           0      -34.127775    2.953016    2.582399
    126          1           0      -30.048171   -1.723382    4.182512
    127          1           0      -28.893434   -0.983636   -4.210965
    128          1           0      -31.379090    0.359396   -4.742141
    129          1           0      -29.962103    2.205968   -5.433267
    130          1           0      -28.641111    1.033429   -4.983712
    131          1           0      -29.250214    2.210337   -3.852639
    132          1           0      -31.767868   -1.948213   -4.233139
    133          1           0      -30.540529   -2.953015   -3.483357
    134          1           0      -31.305664   -2.945282   -6.080252
    135          1           0      -29.889871   -3.697795   -5.482669
    136          1           0      -33.645758    4.018858   -3.558113
    137          1           0      -33.792765    5.392068   -2.406069
    138          1           0      -35.178221    4.357862   -2.697532
    139          1           0      -36.290168    5.591923   -0.894899
    140          1           0      -34.840486    6.389850   -0.757144
    141          1           0      -35.921897    6.718803    0.595913
    142          1           0      -33.886078    1.356160    4.683642
    143          1           0      -31.356865    0.203995    5.531255
    144          1           0      -31.416387    2.580543    5.615180
    145          1           0      -33.035389    3.329952    5.475621
    146          1           0      -31.837906    3.403086    4.157722
    147          1           0      -33.269799   -1.897675    4.527861
    148          1           0      -34.063148   -0.702631    5.432682
    149          1           0      -32.672855   -2.939705    6.333708
    150          1           0      -33.464541   -1.703602    7.382408
    151          1           0      -31.741527   -1.596012    6.918973
    152          1           0      -28.792797   -3.783484    3.998333
    153          1           0      -27.326728   -3.804744    3.057089
    154          1           0      -28.634449   -4.928511    2.665521
    155          1           0      -28.807746   -3.640640   -2.427902
    156          1           0      -25.207189   -1.919889   -4.008524
    157          1           0      -26.322425   -1.989955   -5.349128
    158          1           0      -25.480799   -3.514995   -4.808603
 ---------------------------------------------------------------------

 SCF Done:  E(RwB97XD) =  -4070.59790412     A.U. after   19 cycles

 Excitation energies and oscillator strengths:

 Excited State   1:      Singlet-A      1.6577 eV  747.95 nm  f=0.3566  <S**2>=0.000
     309 -> 315        0.16768
     311 -> 313        0.68563
     309 <- 315        0.10882
 This state for optimization and/or second-order correction.
 Total Energy, E(TD-HF/TD-DFT) =  -4070.53698647
 Copying the excited state density for this state as the 1-particle RhoCI density.

 Excited State   2:      Singlet-A      1.6817 eV  737.26 nm  f=0.3968  <S**2>=0.000
     310 -> 316       -0.19776
     312 -> 314        0.68064
     310 <- 316       -0.11935

 Excited State   3:      Singlet-A      2.1685 eV  571.76 nm  f=0.1047  <S**2>=0.000
     309 -> 313        0.63802
     311 -> 315       -0.28234

 Excited State   4:      Singlet-A      2.1739 eV  570.32 nm  f=0.0985  <S**2>=0.000
     310 -> 314        0.63668
     312 -> 316        0.29861

 Excited State   5:      Singlet-A      3.4146 eV  363.10 nm  f=0.0012  <S**2>=0.000
     304 -> 313       -0.19713
     308 -> 313        0.62690
     308 -> 318       -0.11503

 The electronic state is 1-A.
 Alpha  occ. eigenvalues --  -46.95725 -46.95565 -19.30730 -19.28928 -19.24597
 Alpha  occ. eigenvalues --  -19.24520 -19.24203 -19.23973 -19.23895 -19.22877
 Alpha  occ. eigenvalues --  -14.47039 -14.46677 -14.46494 -14.46273 -14.44960
 Alpha  occ. eigenvalues --  -14.44125 -14.43976 -14.43130 -10.42486 -10.42480
 Alpha  occ. eigenvalues --  -10.40214 -10.39787 -10.38526 -10.38012 -10.36445
 Alpha  occ. eigenvalues --  -10.35873 -10.35791 -10.35657 -10.35435 -10.35154
 Alpha  occ. eigenvalues --  -10.34687 -10.34666 -10.34657 -10.34204 -10.34162
 Alpha  occ. eigenvalues --  -10.34034 -10.33922 -10.33885 -10.33720 -10.33644
 Alpha  occ. eigenvalues --  -10.33055 -10.32984 -10.32792 -10.32724 -10.32436
 Alpha  occ. eigenvalues --  -10.32379 -10.32337 -10.32324 -10.32283 -10.32259
 Alpha  occ. eigenvalues --  -10.32245 -10.32169 -10.32106 -10.32017 -10.32010
 Alpha  occ. eigenvalues --  -10.31858 -10.31849 -10.31844 -10.31736 -10.31682
 Alpha  occ. eigenvalues --  -10.31592 -10.31505 -10.31424 -10.31398 -10.31381
 Alpha  occ. eigenvalues --  -10.31307 -10.31295 -10.31241 -10.30886 -10.30663
 Alpha  occ. eigenvalues --  -10.30651 -10.30592 -10.30587 -10.30514 -10.30464
 Alpha  occ. eigenvalues --  -10.30111 -10.30101 -10.30084 -10.30040 -10.30019
 Alpha  occ. eigenvalues --  -10.30007 -10.29952 -10.29909 -10.29158 -10.28830
 Alpha  occ. eigenvalues --  -10.28372  -3.21581  -3.21576  -1.95190  -1.95152
 Alpha  occ. eigenvalues --   -1.94714  -1.94684  -1.94560  -1.94538  -1.18075
 Alpha  occ. eigenvalues --   -1.17782  -1.14239  -1.11712  -1.10589  -1.10256
 Alpha  occ. eigenvalues --   -1.09412  -1.09051  -1.08593  -1.07616  -1.06681
 Alpha  occ. eigenvalues --   -1.06465  -1.05969  -1.05581  -1.04805  -1.04643
 Alpha  occ. eigenvalues --   -0.95508  -0.94416  -0.91602  -0.90607  -0.90535
 Alpha  occ. eigenvalues --   -0.90128  -0.90124  -0.89427  -0.89237  -0.88985
 Alpha  occ. eigenvalues --   -0.88931  -0.88786  -0.88518  -0.88153  -0.86269
 Alpha  occ. eigenvalues --   -0.86207  -0.85670  -0.85347  -0.84244  -0.84172
 Alpha  occ. eigenvalues --   -0.83740  -0.83514  -0.83123  -0.82822  -0.82275
 Alpha  occ. eigenvalues --   -0.82262  -0.80364  -0.80343  -0.79815  -0.79398
 Alpha  occ. eigenvalues --   -0.79054  -0.78711  -0.78120  -0.77865  -0.77440
 Alpha  occ. eigenvalues --   -0.77099  -0.74638  -0.74600  -0.74212  -0.73952
 Alpha  occ. eigenvalues --   -0.72379  -0.71323  -0.71272  -0.70558  -0.70154
 Alpha  occ. eigenvalues --   -0.70131  -0.69672  -0.68743  -0.67957  -0.67299
 Alpha  occ. eigenvalues --   -0.67244  -0.67158  -0.66856  -0.66508  -0.66456
 Alpha  occ. eigenvalues --   -0.66242  -0.64377  -0.63831  -0.62571  -0.62459
 Alpha  occ. eigenvalues --   -0.61883  -0.61563  -0.61180  -0.61170  -0.60795
 Alpha  occ. eigenvalues --   -0.60765  -0.60431  -0.59987  -0.59733  -0.58964
 Alpha  occ. eigenvalues --   -0.58578  -0.58102  -0.58012  -0.57641  -0.57506
 Alpha  occ. eigenvalues --   -0.57230  -0.56924  -0.56136  -0.56065  -0.55698
 Alpha  occ. eigenvalues --   -0.55541  -0.54952  -0.54925  -0.54892  -0.54698
 Alpha  occ. eigenvalues --   -0.54656  -0.54327  -0.54105  -0.54072  -0.53934
 Alpha  occ. eigenvalues --   -0.53606  -0.53587  -0.53546  -0.53342  -0.53112
 Alpha  occ. eigenvalues --   -0.53105  -0.52754  -0.52525  -0.52475  -0.52409
 Alpha  occ. eigenvalues --   -0.52164  -0.51841  -0.51720  -0.51654  -0.51601
 Alpha  occ. eigenvalues --   -0.51361  -0.51061  -0.51054  -0.50835  -0.50811
 Alpha  occ. eigenvalues --   -0.50596  -0.50237  -0.50235  -0.50086  -0.49877
 Alpha  occ. eigenvalues --   -0.49699  -0.49563  -0.49545  -0.49351  -0.49235
 Alpha  occ. eigenvalues --   -0.48880  -0.48865  -0.48734  -0.48494  -0.48388
 Alpha  occ. eigenvalues --   -0.48200  -0.48157  -0.48139  -0.48081  -0.47805
 Alpha  occ. eigenvalues --   -0.47674  -0.47508  -0.47322  -0.47126  -0.47077
 Alpha  occ. eigenvalues --   -0.46630  -0.46557  -0.46343  -0.46263  -0.46243
 Alpha  occ. eigenvalues --   -0.46226  -0.46127  -0.45931  -0.45899  -0.45821
 Alpha  occ. eigenvalues --   -0.45644  -0.45280  -0.45103  -0.45065  -0.44871
 Alpha  occ. eigenvalues --   -0.44583  -0.44514  -0.44313  -0.44073  -0.43826
 Alpha  occ. eigenvalues --   -0.43808  -0.43671  -0.43559  -0.43337  -0.43293
 Alpha  occ. eigenvalues --   -0.43103  -0.43059  -0.42917  -0.42746  -0.42657
 Alpha  occ. eigenvalues --   -0.42100  -0.41969  -0.41646  -0.41503  -0.41334
 Alpha  occ. eigenvalues --   -0.40570  -0.40316  -0.40219  -0.39739  -0.39608
 Alpha  occ. eigenvalues --   -0.39521  -0.38881  -0.38758  -0.38757  -0.38564
 Alpha  occ. eigenvalues --   -0.38401  -0.38113  -0.36966  -0.36459  -0.36219
 Alpha  occ. eigenvalues --   -0.35798  -0.35401  -0.35323  -0.33966  -0.33581
 Alpha  occ. eigenvalues --   -0.33381  -0.33128  -0.33013  -0.32784  -0.32356
 Alpha  occ. eigenvalues --   -0.32222  -0.32001  -0.31021  -0.26137  -0.25745
 Alpha  occ. eigenvalues --   -0.22977  -0.22931
 Alpha virt. eigenvalues --   -0.07107  -0.06856   0.00144   0.00198   0.02047
 Alpha virt. eigenvalues --    0.02303   0.04158   0.04448   0.05147   0.05831
 Alpha virt. eigenvalues --    0.06976   0.07325   0.08018   0.08135   0.08374

 Mulliken charges:
               1
     1  Mg   0.966818
     2  C    0.016047
     3  C   -0.089404
     4  C   -0.073377
     5  C   -0.081668
     6  N   -0.340768
     7  C   -0.050205
     8  C   -0.024459
     9  C   -0.146524
    10  C    0.111034
    11  C    0.045257
    12  C    0.022930
    13  C   -0.129972
    14  H    0.028894
    15  N   -0.460538
    16  C    0.119168
    17  C   -0.139200
    18  C   -0.060666
    19  C    0.168491
    20  C    0.086672
    21  C    0.018640
    22  O   -0.211047
    23  C   -0.019699
    24  N   -0.295169
    25  C    0.031179
    26  C   -0.087939
    27  C   -0.051455
    28  C    0.005437
    29  C    0.018788
    30  C   -0.018510
    31  C   -0.065338
    32  N   -0.451065
    33  C    0.151307
    34  C   -0.200799
    35  C   -0.007545
    36  C    0.105981
    37  C    0.098594
    38  C    0.085825
    39  O   -0.226214
    40  C   -0.061117
    41  C    0.241301
    42  O   -0.258073
    43  O   -0.370111
    44  C    0.138514
    45  H    0.002843
    46  H   -0.045503
    47  H   -0.027219
    48  H    0.026039
    49  H    0.042468
    50  H    0.041626
    51  H    0.029829
    52  H    0.040806
    53  H    0.040679
    54  H    0.032338
    55  H    0.057560
    56  H    0.062928
    57  H    0.069828
    58  H    0.019260
    59  H    0.052852
    60  H    0.067227
    61  H    0.060712
    62  H    0.051526
    63  H    0.046688
    64  H    0.041955
    65  H    0.030581
    66  H    0.057220
    67  H    0.038723
    68  H    0.041070
    69  H    0.036554
    70  H    0.040101
    71  H    0.033024
    72  H    0.044199
    73  H    0.043241
    74  H    0.065005
    75  H    0.064734
    76  H    0.078457
    77  H    0.064876
    78  H    0.047285
    79  H    0.060473
    80  Mg   0.950919
    81  C   -0.080416
    82  C   -0.065199
    83  C   -0.054582
    84  C   -0.099702
    85  N   -0.357775
    86  C    0.029539
    87  C   -0.079516
    88  C   -0.109843
    89  C    0.090057
    90  C    0.022800
    91  C   -0.013469
    92  C   -0.098893
    93  H    0.035616
    94  N   -0.438826
    95  C    0.108883
    96  C   -0.179379
    97  C   -0.083527
    98  C    0.122223
    99  C    0.062484
   100  C    0.076083
   101  O   -0.249662
   102  C    0.010226
   103  N   -0.332140
   104  C    0.030826
   105  C   -0.062572
   106  C   -0.122870
   107  C    0.110932
   108  C    0.017304
   109  C   -0.023488
   110  C   -0.037686
   111  N   -0.390624
   112  C    0.092643
   113  C   -0.157234
   114  C   -0.058418
   115  C    0.195216
   116  C    0.082414
   117  C    0.129107
   118  O   -0.229525
   119  C   -0.055423
   120  C    0.260545
   121  O   -0.202715
   122  O   -0.416631
   123  C    0.130270
   124  H   -0.007789
   125  H    0.015272
   126  H    0.000057
   127  H    0.042243
   128  H    0.032255
   129  H    0.044437
   130  H    0.032996
   131  H    0.038531
   132  H    0.033230
   133  H    0.032435
   134  H    0.043000
   135  H    0.053459
   136  H    0.042689
   137  H    0.051391
   138  H    0.048423
   139  H    0.054918
   140  H    0.026395
   141  H    0.075604
   142  H    0.037489
   143  H    0.035309
   144  H    0.033697
   145  H    0.050446
   146  H    0.045476
   147  H    0.038392
   148  H    0.020842
   149  H    0.037105
   150  H    0.048336
   151  H    0.024431
   152  H    0.023633
   153  H    0.065365
   154  H    0.063747
   155  H    0.069652
   156  H    0.065958
   157  H    0.053362
   158  H    0.069242
 Sum of Mulliken charges =  -0.00000

 Dipole moment (field-independent basis, Debye):
    X=              1.5163    Y=              5.7487    Z=             -4.9934  Tot=              7.7641
 Quadrupole moment (field-independent basis, Debye-Ang):
   XX=            -91.3373   YY=           -571.9094   ZZ=           -467.0444
   XY=             64.3656   XZ=             14.8522   YZ=             -0.2330

 Normal termination of Gaussian 16 at Mon Sep 20 06:39:48 2021.
