 Gaussian 16, Revision A.03,
 Gaussian 16:  ES64L-G16RevA.03 25-Dec-2016

 --------------------------------
 #p wB97XD/Def2SVP td=(nstates=5)
 --------------------------------

 --------------------------------
 TDDFT excited states in gaussian
 --------------------------------
 Symbolic Z-matrix:
 Charge =  0 Multiplicity = 1

                         Standard orientation:
 ---------------------------------------------------------------------
 Center     Atomic      Atomic             Coordinates (Angstroms)
 Number     Number       Type             X           Y           Z
 ---------------------------------------------------------------------
      1         12           0       -9.723070    0.196037    0.794675
      2          6           0       -8.694692   -2.465939   -1.468348
      3          6           0       -6.948515   -0.537741    2.679613
      4          6           0       -9.755646    3.342117    1.927604
      5          6           0      -12.490427    0.689124   -1.114497
      6          7           0       -7.903837   -1.232437    0.483451
      7          6           0       -7.750746   -2.286533   -0.487823
      8          6           0       -6.568044   -3.174658   -0.091304
      9          6           0       -6.270476   -2.786540    1.387095
     10          6           0       -7.080444   -1.432616    1.598604
     11          6           0       -6.740998   -3.890519    2.448005
     12          6           0       -5.399331   -3.222889   -1.031596
     13          6           0       -5.284875   -2.097792   -2.087127
     14          1           0       -4.145947   -1.899724   -3.104018
     15          7           0       -8.583027    1.230979    2.247459
     16          6           0       -7.465273    0.747570    2.890983
     17          6           0       -7.034483    1.764859    3.900070
     18          6           0       -7.780816    2.895126    3.576567
     19          6           0       -8.732645    2.577755    2.514553
     20          6           0       -5.931805    1.474864    4.855668
     21          6           0       -7.603344    4.288548    4.247053
     22          8           0       -6.695512    4.422506    5.048289
     23          6           0       -8.368041    5.514347    3.871440
     24          7           0      -10.894765    1.804792    0.290636
     25          6           0      -10.771193    2.971267    1.044602
     26          6           0      -11.898318    3.952922    0.723932
     27          6           0      -12.949669    3.040807   -0.006117
     28          6           0      -12.111881    1.784478   -0.254478
     29          6           0      -12.536979    4.752353    1.888712
     30          6           0      -13.597498    3.635457   -1.297541
     31          6           0      -15.119667    4.100040   -1.165304
     32          7           0      -10.534491   -0.729147   -0.900146
     33          6           0      -11.743658   -0.448391   -1.519549
     34          6           0      -12.017625   -1.468797   -2.501322
     35          6           0      -10.815836   -2.189080   -2.533925
     36          6           0       -9.966939   -1.695608   -1.512584
     37          6           0      -13.290018   -1.503065   -3.365535
     38          6           0      -10.131373   -3.296378   -3.127735
     39          8           0      -10.605853   -4.048921   -4.002354
     40          6           0       -8.766246   -3.646888   -2.385625
     41          6           0       -7.768367   -3.721443   -3.471354
     42          8           0       -7.590986   -2.892113   -4.369827
     43          8           0       -7.003188   -4.810997   -3.216700
     44          6           0       -6.035461   -5.206820   -4.287454
     45          1           0       -6.056661   -0.761178    3.267985
     46          1           0       -9.761605    4.362414    2.317393
     47          1           0      -13.447659    0.798911   -1.627693
     48          1           0       -7.100151   -4.125847   -0.107509
     49          1           0       -5.239940   -2.467644    1.544304
     50          1           0       -5.800081   -4.256428    2.857047
     51          1           0       -7.341882   -4.646559    1.942021
     52          1           0       -7.291997   -3.342749    3.213325
     53          1           0       -5.404468   -4.222596   -1.465565
     54          1           0       -4.569933   -3.185020   -0.324567
     55          1           0       -5.352419   -1.174084   -1.511543
     56          1           0       -6.140808   -2.142264   -2.760850
     57          1           0       -5.101248    2.112179    4.553586
     58          1           0       -5.689162    0.415194    4.782084
     59          1           0       -6.280395    1.652224    5.873686
     60          1           0       -8.226598    5.923497    2.871818
     61          1           0       -8.081173    6.385258    4.460049
     62          1           0       -9.380077    5.199992    4.126135
     63          1           0      -11.323823    4.601950    0.061994
     64          1           0      -13.687899    2.809962    0.762206
     65          1           0      -12.164374    5.773867    1.971208
     66          1           0      -12.277843    4.282853    2.837082
     67          1           0      -13.619046    4.703940    1.761901
     68          1           0      -13.544980    2.980457   -2.167655
     69          1           0      -12.945890    4.470698   -1.554516
     70          1           0      -15.106915    5.056415   -1.687469
     71          1           0      -15.476276    4.224030   -0.142667
     72          1           0      -15.728091    3.300385   -1.586259
     73          1           0      -13.609643   -2.495239   -3.684940
     74          1           0      -12.955514   -0.943447   -4.238382
     75          1           0      -14.148121   -1.164216   -2.785482
     76          1           0       -8.883911   -4.585897   -1.842780
     77          1           0       -5.479193   -6.086278   -3.961232
     78          1           0       -5.313067   -4.413232   -4.479356
     79          1           0       -6.699804   -5.407345   -5.126836
     80         12           0        9.667863    0.788465    0.036413
     81          6           0        8.246013   -2.046150    1.500070
     82          6           0        6.417027    1.721546   -0.888709
     83          6           0       10.899667    3.242313   -1.876769
     84          6           0       12.729207   -0.781618    0.115862
     85          7           0        7.492376   -0.016219    0.366806
     86          6           0        7.267310   -1.223961    0.949158
     87          6           0        5.723097   -1.558938    0.951419
     88          6           0        5.179202   -0.431032   -0.063038
     89          6           0        6.414650    0.463292   -0.260701
     90          6           0        4.873807   -1.140907   -1.429717
     91          6           0        5.191800   -1.309618    2.410736
     92          6           0        3.662693   -1.442607    2.647293
     93          1           0        2.748540   -0.548651    3.431206
     94          7           0        8.768215    2.355173   -1.017851
     95          6           0        7.413271    2.624682   -1.273160
     96          6           0        7.347217    3.781230   -2.063701
     97          6           0        8.610697    4.340147   -2.201816
     98          6           0        9.493659    3.309715   -1.680701
     99          6           0        6.021957    4.346502   -2.457591
    100          6           0        9.077992    5.653613   -2.911483
    101          8           0       10.236672    6.053059   -2.954414
    102          6           0        8.082527    6.687639   -3.444564
    103          7           0       11.520281    1.087834   -0.847815
    104          6           0       11.806047    2.254843   -1.467225
    105          6           0       13.309629    2.459455   -1.736941
    106          6           0       13.879902    1.107533   -1.225220
    107          6           0       12.706025    0.463977   -0.509227
    108          6           0       13.652444    2.920803   -3.192364
    109          6           0       15.177143    1.160476   -0.372487
    110          6           0       15.031766    1.622203    1.015338
    111          7           0       10.416567   -0.985824    0.745157
    112          6           0       11.631109   -1.483608    0.718843
    113          6           0       11.722794   -2.746374    1.458877
    114          6           0       10.347844   -2.974742    1.785442
    115          6           0        9.598309   -1.917748    1.307320
    116          6           0       12.885352   -3.363644    2.083787
    117          6           0        9.472516   -3.907318    2.473718
    118          8           0        9.727285   -4.892529    3.128633
    119          6           0        8.066389   -3.345401    2.231483
    120          6           0        7.155412   -4.369551    1.546536
    121          8           0        7.183856   -4.624135    0.370558
    122          8           0        6.373837   -4.987530    2.493258
    123          6           0        5.455710   -5.989521    1.904498
    124          1           0        5.395599    2.066762   -1.056803
    125          1           0       11.360959    4.132960   -2.309127
    126          1           0       13.801707   -0.983215    0.130574
    127          1           0        5.508598   -2.545710    0.540296
    128          1           0        4.298631    0.108919    0.287255
    129          1           0        5.582305   -0.965735   -2.238678
    130          1           0        4.016349   -0.690496   -1.930318
    131          1           0        4.744817   -2.220016   -1.348635
    132          1           0        5.532767   -0.319603    2.712367
    133          1           0        5.739254   -1.987535    3.066141
    134          1           0        3.542990   -2.472408    2.985144
    135          1           0        3.297520   -1.326150    1.627655
    136          1           0        5.150690    3.768163   -2.148989
    137          1           0        6.069547    4.598912   -3.517780
    138          1           0        5.966784    5.280026   -1.896927
    139          1           0        7.499427    6.337861   -4.296545
    140          1           0        8.510298    7.670243   -3.644211
    141          1           0        7.409038    6.914420   -2.617863
    142          1           0       13.463232    3.280351   -1.037043
    143          1           0       14.043629    0.530700   -2.135475
    144          1           0       12.836850    3.503445   -3.619378
    145          1           0       13.808134    2.042456   -3.819307
    146          1           0       14.529311    3.567195   -3.234920
    147          1           0       15.778352    1.866527   -0.944460
    148          1           0       15.697966    0.204927   -0.436853
    149          1           0       14.720088    0.788300    1.644077
    150          1           0       14.352375    2.472096    1.077236
    151          1           0       15.986870    1.925108    1.445465
    152          1           0       13.576744   -2.538435    2.256027
    153          1           0       13.496141   -4.067339    1.518013
    154          1           0       12.527893   -3.842343    2.994859
    155          1           0        7.650835   -3.066889    3.200469
    156          1           0        5.347155   -6.811837    2.611434
    157          1           0        5.833229   -6.538203    1.041377
    158          1           0        4.463187   -5.567074    1.751263
 ---------------------------------------------------------------------

 SCF Done:  E(RwB97XD) =  -4070.59222595     A.U. after   19 cycles

 Excitation energies and oscillator strengths:

 Excited State   1:      Singlet-A      1.6095 eV  770.34 nm  f=0.3622  <S**2>=0.000
     309 -> 315       -0.16156
     312 -> 313        0.68854
     309 <- 315       -0.11007
 This state for optimization and/or second-order correction.
 Total Energy, E(TD-HF/TD-DFT) =  -4070.53307857
 Copying the excited state density for this state as the 1-particle RhoCI density.

 Excited State   2:      Singlet-A      1.6947 eV  731.59 nm  f=0.3816  <S**2>=0.000
     310 -> 316       -0.19049
     311 -> 314        0.68139
     310 <- 316       -0.11521

 Excited State   3:      Singlet-A      2.2138 eV  560.06 nm  f=0.1207  <S**2>=0.000
     310 -> 314        0.64081
     311 -> 316        0.27721

 Excited State   4:      Singlet-A      2.2278 eV  556.52 nm  f=0.0717  <S**2>=0.000
     309 -> 313        0.61624
     312 -> 315        0.32457

 Excited State   5:      Singlet-A      3.5364 eV  350.60 nm  f=0.0000  <S**2>=0.000
     311 -> 313        0.70677

 The electronic state is 1-A.
 Alpha  occ. eigenvalues --  -46.95789 -46.95032 -19.31044 -19.30698 -19.25354
 Alpha  occ. eigenvalues --  -19.24486 -19.24465 -19.24279 -19.23843 -19.22222
 Alpha  occ. eigenvalues --  -14.47198 -14.46836 -14.46331 -14.45597 -14.44499
 Alpha  occ. eigenvalues --  -14.43760 -14.43672 -14.43403 -10.43647 -10.43098
 Alpha  occ. eigenvalues --  -10.40165 -10.39661 -10.38481 -10.37653 -10.36197
 Alpha  occ. eigenvalues --  -10.35996 -10.35871 -10.35607 -10.35137 -10.35112
 Alpha  occ. eigenvalues --  -10.35097 -10.35081 -10.34669 -10.34665 -10.34549
 Alpha  occ. eigenvalues --  -10.34441 -10.33918 -10.33720 -10.33547 -10.33195
 Alpha  occ. eigenvalues --  -10.33087 -10.32955 -10.32739 -10.32703 -10.32674
 Alpha  occ. eigenvalues --  -10.32642 -10.32569 -10.32547 -10.32534 -10.32102
 Alpha  occ. eigenvalues --  -10.32013 -10.32000 -10.31988 -10.31838 -10.31802
 Alpha  occ. eigenvalues --  -10.31744 -10.31711 -10.31668 -10.31632 -10.31542
 Alpha  occ. eigenvalues --  -10.31525 -10.31504 -10.31409 -10.31361 -10.31350
 Alpha  occ. eigenvalues --  -10.31221 -10.31129 -10.30961 -10.30934 -10.30933
 Alpha  occ. eigenvalues --  -10.30917 -10.30836 -10.30379 -10.30318 -10.30211
 Alpha  occ. eigenvalues --  -10.30078 -10.30067 -10.29981 -10.29955 -10.29849
 Alpha  occ. eigenvalues --  -10.29685 -10.29304 -10.29090 -10.28913 -10.28287
 Alpha  occ. eigenvalues --  -10.28077  -3.21729  -3.21037  -1.95286  -1.94874
 Alpha  occ. eigenvalues --   -1.94677  -1.94611  -1.94174  -1.93994  -1.19014
 Alpha  occ. eigenvalues --   -1.18364  -1.13090  -1.12620  -1.12502  -1.10986
 Alpha  occ. eigenvalues --   -1.09769  -1.08986  -1.06961  -1.06942  -1.06163
 Alpha  occ. eigenvalues --   -1.05783  -1.05338  -1.05057  -1.04483  -1.02492
 Alpha  occ. eigenvalues --   -0.95786  -0.94014  -0.91385  -0.91263  -0.91016
 Alpha  occ. eigenvalues --   -0.90648  -0.90489  -0.90091  -0.89437  -0.89115
 Alpha  occ. eigenvalues --   -0.88933  -0.88781  -0.88128  -0.88093  -0.86428
 Alpha  occ. eigenvalues --   -0.85967  -0.85725  -0.85504  -0.84804  -0.84388
 Alpha  occ. eigenvalues --   -0.84297  -0.83445  -0.83047  -0.82844  -0.82356
 Alpha  occ. eigenvalues --   -0.82252  -0.80474  -0.80159  -0.79775  -0.79511
 Alpha  occ. eigenvalues --   -0.78557  -0.78508  -0.78053  -0.78042  -0.77333
 Alpha  occ. eigenvalues --   -0.76788  -0.75133  -0.74434  -0.73820  -0.73742
 Alpha  occ. eigenvalues --   -0.71937  -0.71676  -0.71122  -0.71114  -0.70309
 Alpha  occ. eigenvalues --   -0.69710  -0.69055  -0.69009  -0.68264  -0.67515
 Alpha  occ. eigenvalues --   -0.67328  -0.66816  -0.66771  -0.66399  -0.65954
 Alpha  occ. eigenvalues --   -0.65656  -0.64487  -0.64245  -0.62077  -0.61797
 Alpha  occ. eigenvalues --   -0.61432  -0.61316  -0.61249  -0.61159  -0.60567
 Alpha  occ. eigenvalues --   -0.60229  -0.60069  -0.59661  -0.59323  -0.59319
 Alpha  occ. eigenvalues --   -0.58897  -0.58461  -0.58299  -0.57605  -0.57449
 Alpha  occ. eigenvalues --   -0.57233  -0.57204  -0.56657  -0.56572  -0.56324
 Alpha  occ. eigenvalues --   -0.55931  -0.55770  -0.55575  -0.55196  -0.55070
 Alpha  occ. eigenvalues --   -0.54860  -0.54653  -0.54578  -0.54473  -0.54377
 Alpha  occ. eigenvalues --   -0.54017  -0.53878  -0.53512  -0.53280  -0.53123
 Alpha  occ. eigenvalues --   -0.53057  -0.52916  -0.52710  -0.52489  -0.52237
 Alpha  occ. eigenvalues --   -0.52014  -0.51854  -0.51680  -0.51661  -0.51578
 Alpha  occ. eigenvalues --   -0.51353  -0.51146  -0.50960  -0.50878  -0.50860
 Alpha  occ. eigenvalues --   -0.50736  -0.50422  -0.50407  -0.50200  -0.49829
 Alpha  occ. eigenvalues --   -0.49825  -0.49687  -0.49432  -0.49247  -0.49032
 Alpha  occ. eigenvalues --   -0.48994  -0.48918  -0.48606  -0.48596  -0.48280
 Alpha  occ. eigenvalues --   -0.48056  -0.47886  -0.47791  -0.47627  -0.47552
 Alpha  occ. eigenvalues --   -0.47258  -0.47251  -0.47046  -0.46972  -0.46902
 Alpha  occ. eigenvalues --   -0.46626  -0.46449  -0.46331  -0.46118  -0.46075
 Alpha  occ. eigenvalues --   -0.45979  -0.45975  -0.45745  -0.45592  -0.45530
 Alpha  occ. eigenvalues --   -0.45443  -0.45249  -0.45159  -0.45005  -0.44818
 Alpha  occ. eigenvalues --   -0.44791  -0.44620  -0.44537  -0.44401  -0.44367
 Alpha  occ. eigenvalues --   -0.44293  -0.44185  -0.44042  -0.43810  -0.43788
 Alpha  occ. eigenvalues --   -0.43600  -0.43080  -0.42915  -0.42607  -0.42144
 Alpha  occ. eigenvalues --   -0.41953  -0.41486  -0.41390  -0.41114  -0.40708
 Alpha  occ. eigenvalues --   -0.40601  -0.40394  -0.39824  -0.39660  -0.39489
 Alpha  occ. eigenvalues --   -0.39375  -0.39343  -0.38802  -0.38739  -0.38421
 Alpha  occ. eigenvalues --   -0.38254  -0.37951  -0.36910  -0.36452  -0.36236
 Alpha  occ. eigenvalues --   -0.35952  -0.35388  -0.35056  -0.33881  -0.33595
 Alpha  occ. eigenvalues --   -0.33303  -0.33071  -0.32765  -0.32458  -0.32235
 Alpha  occ. eigenvalues --   -0.31675  -0.31311  -0.31277  -0.26532  -0.25708
 Alpha  occ. eigenvalues --   -0.22870  -0.22711
 Alpha virt. eigenvalues --   -0.07056  -0.06702  -0.00004   0.00618   0.02507
 Alpha virt. eigenvalues --    0.03010   0.04349   0.04372   0.04510   0.05412
 Alpha virt. eigenvalues --    0.06942   0.07346   0.07635   0.08059   0.08633

 Mulliken charges:
               1
     1  Mg   0.954165
     2  C   -0.032982
     3  C   -0.082861
     4  C   -0.079647
     5  C   -0.082705
     6  N   -0.368353
     7  C   -0.053827
     8  C   -0.004967
     9  C   -0.142320
    10  C    0.044387
    11  C    0.037202
    12  C    0.030765
    13  C   -0.101895
    14  H    0.036318
    15  N   -0.470773
    16  C    0.144693
    17  C   -0.159960
    18  C   -0.079515
    19  C    0.169377
    20  C    0.104744
    21  C    0.036047
    22  O   -0.227679
    23  C    0.001999
    24  N   -0.386170
    25  C    0.091523
    26  C   -0.126818
    27  C   -0.015498
    28  C    0.025578
    29  C    0.031654
    30  C   -0.022379
    31  C   -0.061795
    32  N   -0.378483
    33  C    0.092451
    34  C   -0.180303
    35  C   -0.010780
    36  C    0.118972
    37  C    0.073295
    38  C    0.083917
    39  O   -0.250195
    40  C   -0.041284
    41  C    0.265201
    42  O   -0.260855
    43  O   -0.368600
    44  C    0.138601
    45  H    0.003706
    46  H   -0.041723
    47  H   -0.008730
    48  H    0.026008
    49  H    0.039370
    50  H    0.048485
    51  H    0.050708
    52  H    0.041074
    53  H    0.031745
    54  H    0.016992
    55  H    0.046857
    56  H    0.072352
    57  H    0.072929
    58  H    0.022253
    59  H    0.061249
    60  H    0.076477
    61  H    0.048945
    62  H    0.056866
    63  H    0.052090
    64  H    0.031727
    65  H    0.041516
    66  H    0.036596
    67  H    0.042580
    68  H    0.044476
    69  H    0.024498
    70  H    0.051249
    71  H    0.035082
    72  H    0.047562
    73  H    0.051870
    74  H    0.071819
    75  H    0.038930
    76  H    0.074520
    77  H    0.059801
    78  H    0.066847
    79  H    0.073029
    80  Mg   0.973338
    81  C   -0.006724
    82  C   -0.074193
    83  C   -0.111460
    84  C   -0.060562
    85  N   -0.282058
    86  C   -0.051650
    87  C   -0.080914
    88  C   -0.121494
    89  C    0.038066
    90  C    0.009109
    91  C   -0.013279
    92  C   -0.096445
    93  H    0.058343
    94  N   -0.474766
    95  C    0.176668
    96  C   -0.164425
    97  C   -0.081217
    98  C    0.151247
    99  C    0.071071
   100  C    0.085473
   101  O   -0.233791
   102  C   -0.021491
   103  N   -0.406425
   104  C    0.076014
   105  C   -0.112128
   106  C   -0.035707
   107  C   -0.010117
   108  C    0.035598
   109  C   -0.020893
   110  C   -0.015352
   111  N   -0.411256
   112  C    0.152274
   113  C   -0.157312
   114  C   -0.070635
   115  C    0.151245
   116  C    0.070547
   117  C    0.116247
   118  O   -0.187903
   119  C   -0.074753
   120  C    0.263794
   121  O   -0.227569
   122  O   -0.360680
   123  C    0.124975
   124  H   -0.012195
   125  H    0.022454
   126  H   -0.019507
   127  H    0.047134
   128  H    0.048982
   129  H    0.042714
   130  H    0.026473
   131  H    0.050229
   132  H    0.035750
   133  H    0.032009
   134  H    0.050451
   135  H    0.036409
   136  H    0.044865
   137  H    0.048955
   138  H    0.050370
   139  H    0.058564
   140  H    0.054773
   141  H    0.041354
   142  H    0.041040
   143  H    0.042848
   144  H    0.049122
   145  H    0.031811
   146  H    0.040079
   147  H    0.022775
   148  H    0.034888
   149  H    0.032010
   150  H    0.032809
   151  H    0.035381
   152  H    0.029540
   153  H    0.041773
   154  H    0.063862
   155  H    0.079030
   156  H    0.049690
   157  H    0.069169
   158  H    0.055576
 Sum of Mulliken charges =  -0.00000

 Dipole moment (field-independent basis, Debye):
    X=             -4.3824    Y=              4.4961    Z=              3.1002  Tot=              7.0022
 Quadrupole moment (field-independent basis, Debye-Ang):
   XX=           -472.0526   YY=           -507.0556   ZZ=           -545.9546
   XY=            -17.8280   XZ=            -56.4053   YZ=            -11.3561

 Normal termination of Gaussian 16 at Sat Sep 18 13:56:29 2021.
