 Gaussian 16, Revision A.03,
 Gaussian 16:  ES64L-G16RevA.03 25-Dec-2016

 --------------------------------
 #p wB97XD/Def2SVP td=(nstates=5)
 --------------------------------

 --------------------------------
 TDDFT excited states in gaussian
 --------------------------------
 Symbolic Z-matrix:
 Charge =  0 Multiplicity = 1

                         Standard orientation:
 ---------------------------------------------------------------------
 Center     Atomic      Atomic             Coordinates (Angstroms)
 Number     Number       Type             X           Y           Z
 ---------------------------------------------------------------------
      1         12           0       11.002543    0.092162   -0.069410
      2          6           0        7.960058    0.865769    1.345193
      3          6           0       10.374650   -3.206587    0.553730
      4          6           0       13.176325   -0.621639   -2.452239
      5          6           0       11.464230    3.520446   -0.670406
      6          7           0        9.108494   -1.012833    0.437173
      7          6           0        8.109324   -0.491268    1.194563
      8          6           0        7.204759   -1.542785    1.765956
      9          6           0        8.209618   -2.736171    1.861544
     10          6           0        9.343045   -2.273929    0.957792
     11          6           0        8.619151   -3.072692    3.324091
     12          6           0        5.973489   -1.885479    0.785917
     13          6           0        4.595775   -2.243014    1.514318
     14          1           0        4.206386   -3.643236    1.109604
     15          7           0       11.814273   -1.681867   -0.691635
     16          6           0       11.409244   -2.942202   -0.421332
     17          6           0       12.214002   -3.910485   -1.155485
     18          6           0       13.056208   -3.169012   -2.009378
     19          6           0       12.689727   -1.750986   -1.735934
     20          6           0       12.000717   -5.432763   -0.972581
     21          6           0       13.899687   -3.806018   -3.078328
     22          8           0       13.932391   -5.005378   -3.171648
     23          6           0       14.714664   -3.029248   -4.130010
     24          7           0       12.293585    1.271590   -1.329143
     25          6           0       13.043587    0.748890   -2.194069
     26          6           0       13.698459    1.738735   -3.084942
     27          6           0       13.167293    3.112307   -2.514753
     28          6           0       12.264865    2.643188   -1.457731
     29          6           0       15.251460    1.541136   -3.129249
     30          6           0       12.412799    3.974340   -3.629792
     31          6           0       12.230516    5.509902   -3.357505
     32          7           0       10.021281    1.867496    0.310974
     33          6           0       10.388188    3.183837    0.097584
     34          6           0        9.456817    4.077046    0.729001
     35          6           0        8.478076    3.187232    1.295243
     36          6           0        8.812990    1.899619    0.923102
     37          6           0        9.507251    5.570135    0.778900
     38          6           0        7.293650    3.148252    2.081548
     39          8           0        6.566769    3.997614    2.612849
     40          6           0        6.802175    1.666033    1.984067
     41          6           0        6.392380    1.261552    3.360891
     42          8           0        5.236739    1.326696    3.803000
     43          8           0        7.490780    0.865210    4.072749
     44          6           0        7.068679    0.512106    5.457312
     45          1           0       10.343100   -4.264969    0.822136
     46          1           0       13.844588   -0.889391   -3.272650
     47          1           0       11.539182    4.567918   -0.972327
     48          1           0        6.956101   -1.163471    2.756307
     49          1           0        7.722603   -3.640065    1.495259
     50          1           0        8.268499   -4.073519    3.574399
     51          1           0        8.070546   -2.390538    3.974377
     52          1           0        9.694887   -2.920140    3.405598
     53          1           0        6.164223   -2.631275    0.014372
     54          1           0        5.745783   -1.028546    0.152764
     55          1           0        3.875505   -1.557830    1.067039
     56          1           0        4.495346   -2.089460    2.588826
     57          1           0       11.737567   -5.972375   -1.882271
     58          1           0       11.278128   -5.690546   -0.197502
     59          1           0       12.930767   -5.832388   -0.569718
     60          1           0       15.517985   -2.433366   -3.698001
     61          1           0       14.105582   -2.400412   -4.779870
     62          1           0       15.046658   -3.792731   -4.834214
     63          1           0       13.242332    1.539423   -4.054554
     64          1           0       13.866553    3.760182   -1.986720
     65          1           0       15.515404    1.357093   -4.170441
     66          1           0       15.575887    0.719500   -2.490432
     67          1           0       15.822207    2.455258   -2.966498
     68          1           0       11.416498    3.567801   -3.804882
     69          1           0       12.992628    3.830734   -4.540360
     70          1           0       12.652482    6.255237   -4.031130
     71          1           0       12.686987    5.785765   -2.407892
     72          1           0       11.170946    5.756340   -3.288879
     73          1           0       10.421818    6.040961    0.418890
     74          1           0        9.347071    5.712503    1.846866
     75          1           0        8.585005    5.803906    0.246846
     76          1           0        5.982026    1.510417    1.282368
     77          1           0        6.777251    1.418237    5.987484
     78          1           0        7.899149    0.176485    6.078460
     79          1           0        6.285769   -0.242599    5.379792
     80         12           0      -10.722103    0.050314   -0.462993
     81          6           0       -8.071560   -1.358862    1.278620
     82          6           0      -10.137254    3.022230    1.020176
     83          6           0      -13.407738    1.247472   -2.062699
     84          6           0      -11.348842   -3.113361   -1.826933
     85          7           0       -9.205633    0.692600    0.976892
     86          6           0       -8.194900    0.020776    1.474206
     87          6           0       -7.354284    1.024368    2.390524
     88          6           0       -8.483940    1.954408    2.779577
     89          6           0       -9.349419    1.940452    1.479547
     90          6           0       -9.174778    1.449476    4.064683
     91          6           0       -6.071761    1.551591    1.614362
     92          6           0       -4.968309    2.115295    2.514919
     93          1           0       -5.269514    2.343842    3.986050
     94          7           0      -11.526977    1.896936   -0.651975
     95          6           0      -11.073985    3.038370    0.005340
     96          6           0      -11.793699    4.209242   -0.579661
     97          6           0      -12.831297    3.688513   -1.464395
     98          6           0      -12.632154    2.220956   -1.330061
     99          6           0      -11.477004    5.636771   -0.201383
    100          6           0      -13.893405    4.432026   -2.398945
    101          8           0      -14.669188    3.842610   -3.158967
    102          6           0      -13.905735    5.945073   -2.334538
    103          7           0      -12.197825   -0.803930   -1.635326
    104          6           0      -13.208077   -0.123600   -2.170382
    105          6           0      -14.218697   -1.038317   -2.928835
    106          6           0      -13.392751   -2.329219   -3.023289
    107          6           0      -12.196379   -2.079761   -2.159721
    108          6           0      -15.596167   -1.204595   -2.228392
    109          6           0      -13.105358   -2.942035   -4.465750
    110          6           0      -11.740032   -2.744996   -5.037851
    111          7           0      -10.047502   -1.908149   -0.182916
    112          6           0      -10.335312   -3.060259   -0.833854
    113          6           0       -9.568187   -4.165250   -0.380587
    114          6           0       -8.618743   -3.534969    0.483939
    115          6           0       -8.985586   -2.209204    0.525123
    116          6           0       -9.605829   -5.647864   -0.646395
    117          6           0       -7.470008   -3.696393    1.324627
    118          8           0       -6.812302   -4.670459    1.621114
    119          6           0       -6.951392   -2.289856    1.763439
    120          6           0       -6.746314   -2.273002    3.214914
    121          8           0       -7.658037   -2.454978    4.007394
    122          8           0       -5.382941   -2.210776    3.601077
    123          6           0       -5.115617   -2.310192    5.044499
    124          1           0       -9.957374    3.947206    1.569984
    125          1           0      -14.300804    1.659165   -2.535844
    126          1           0      -11.605326   -4.093312   -2.233967
    127          1           0       -6.935667    0.484831    3.239020
    128          1           0       -8.186793    2.995459    2.903640
    129          1           0       -8.913030    2.226144    4.784066
    130          1           0       -8.801475    0.479663    4.396259
    131          1           0      -10.245482    1.521842    3.875029
    132          1           0       -6.353569    2.344112    0.920537
    133          1           0       -5.653017    0.666544    1.134786
    134          1           0       -4.652558    3.056296    2.065504
    135          1           0       -4.119380    1.437110    2.431946
    136          1           0      -10.415837    5.765716    0.014729
    137          1           0      -12.034865    6.065991    0.630248
    138          1           0      -11.659071    6.269365   -1.070034
    139          1           0      -13.988720    6.151477   -1.267743
    140          1           0      -14.768503    6.412953   -2.807804
    141          1           0      -13.010744    6.342373   -2.813615
    142          1           0      -14.439414   -0.648125   -3.922262
    143          1           0      -13.924070   -3.055190   -2.408934
    144          1           0      -15.832027   -2.265167   -2.319218
    145          1           0      -16.418697   -0.598866   -2.605536
    146          1           0      -15.483963   -0.876986   -1.194828
    147          1           0      -13.891155   -2.607450   -5.143105
    148          1           0      -13.164488   -4.028452   -4.404243
    149          1           0      -11.258283   -3.722454   -5.071809
    150          1           0      -11.024988   -2.216308   -4.406328
    151          1           0      -11.727263   -2.359543   -6.057402
    152          1           0      -10.453114   -5.937413   -1.268982
    153          1           0       -9.540939   -6.178942    0.303705
    154          1           0       -8.803858   -6.051692   -1.264722
    155          1           0       -6.008204   -2.037175    1.279756
    156          1           0       -4.090556   -2.087784    5.339928
    157          1           0       -5.362055   -3.348530    5.268022
    158          1           0       -5.861551   -1.673733    5.519074
 ---------------------------------------------------------------------

 SCF Done:  E(RwB97XD) =  -4070.60852723     A.U. after   19 cycles

 Excitation energies and oscillator strengths:

 Excited State   1:      Singlet-A      1.6587 eV  747.46 nm  f=0.3182  <S**2>=0.000
     309 -> 315       -0.16719
     312 -> 313        0.68463
     309 <- 315       -0.10850
 This state for optimization and/or second-order correction.
 Total Energy, E(TD-HF/TD-DFT) =  -4070.54756944
 Copying the excited state density for this state as the 1-particle RhoCI density.

 Excited State   2:      Singlet-A      1.6905 eV  733.42 nm  f=0.4259  <S**2>=0.000
     310 -> 316        0.18141
     311 -> 314        0.68318
     310 <- 316        0.11455

 Excited State   3:      Singlet-A      2.1638 eV  572.99 nm  f=0.1647  <S**2>=0.000
     309 -> 313        0.19987
     310 -> 314        0.61991
     311 -> 316       -0.24660

 Excited State   4:      Singlet-A      2.1691 eV  571.60 nm  f=0.0895  <S**2>=0.000
     309 -> 313        0.60609
     310 -> 314       -0.20319
     312 -> 315        0.26830

 Excited State   5:      Singlet-A      3.6738 eV  337.48 nm  f=0.0000  <S**2>=0.000
     311 -> 313        0.70694

 The electronic state is 1-A.
 Alpha  occ. eigenvalues --  -46.95566 -46.93953 -19.30744 -19.28913 -19.25429
 Alpha  occ. eigenvalues --  -19.24594 -19.24191 -19.23992 -19.22895 -19.22740
 Alpha  occ. eigenvalues --  -14.46680 -14.46491 -14.46434 -14.45868 -14.44960
 Alpha  occ. eigenvalues --  -14.44588 -14.43136 -14.43027 -10.42508 -10.42504
 Alpha  occ. eigenvalues --  -10.41148 -10.39783 -10.38029 -10.37901 -10.36446
 Alpha  occ. eigenvalues --  -10.35879 -10.35449 -10.35228 -10.35159 -10.35094
 Alpha  occ. eigenvalues --  -10.34969 -10.34694 -10.34542 -10.34492 -10.34417
 Alpha  occ. eigenvalues --  -10.34261 -10.34165 -10.33918 -10.33646 -10.33642
 Alpha  occ. eigenvalues --  -10.33074 -10.32662 -10.32589 -10.32444 -10.32262
 Alpha  occ. eigenvalues --  -10.32254 -10.32246 -10.32179 -10.32110 -10.32091
 Alpha  occ. eigenvalues --  -10.31873 -10.31859 -10.31853 -10.31825 -10.31783
 Alpha  occ. eigenvalues --  -10.31718 -10.31680 -10.31519 -10.31449 -10.31427
 Alpha  occ. eigenvalues --  -10.31377 -10.31344 -10.31296 -10.31253 -10.31178
 Alpha  occ. eigenvalues --  -10.31136 -10.30944 -10.30893 -10.30695 -10.30663
 Alpha  occ. eigenvalues --  -10.30655 -10.30645 -10.30584 -10.30578 -10.30122
 Alpha  occ. eigenvalues --  -10.30110 -10.30064 -10.30031 -10.29694 -10.29474
 Alpha  occ. eigenvalues --  -10.29473 -10.29446 -10.29322 -10.28379 -10.28173
 Alpha  occ. eigenvalues --  -10.28003  -3.21578  -3.20118  -1.95154  -1.94716
 Alpha  occ. eigenvalues --   -1.94540  -1.93728  -1.93213  -1.93144  -1.18090
 Alpha  occ. eigenvalues --   -1.16412  -1.14234  -1.12623  -1.11600  -1.10275
 Alpha  occ. eigenvalues --   -1.09056  -1.08716  -1.08610  -1.07408  -1.06683
 Alpha  occ. eigenvalues --   -1.06565  -1.06016  -1.05969  -1.05073  -1.04808
 Alpha  occ. eigenvalues --   -0.94422  -0.93908  -0.91610  -0.90943  -0.90613
 Alpha  occ. eigenvalues --   -0.90236  -0.90110  -0.90032  -0.89236  -0.89107
 Alpha  occ. eigenvalues --   -0.88930  -0.88886  -0.88526  -0.88008  -0.86202
 Alpha  occ. eigenvalues --   -0.85987  -0.85680  -0.85368  -0.84510  -0.84363
 Alpha  occ. eigenvalues --   -0.84175  -0.83726  -0.82820  -0.82710  -0.82280
 Alpha  occ. eigenvalues --   -0.81848  -0.80429  -0.80350  -0.79814  -0.78996
 Alpha  occ. eigenvalues --   -0.78698  -0.78365  -0.77873  -0.77538  -0.77435
 Alpha  occ. eigenvalues --   -0.76829  -0.74642  -0.74638  -0.74213  -0.72984
 Alpha  occ. eigenvalues --   -0.72392  -0.71320  -0.70990  -0.70547  -0.70132
 Alpha  occ. eigenvalues --   -0.69681  -0.69639  -0.68750  -0.68476  -0.67288
 Alpha  occ. eigenvalues --   -0.66858  -0.66840  -0.66460  -0.66416  -0.66008
 Alpha  occ. eigenvalues --   -0.65752  -0.64389  -0.63045  -0.62572  -0.62533
 Alpha  occ. eigenvalues --   -0.61562  -0.61364  -0.61179  -0.60946  -0.60767
 Alpha  occ. eigenvalues --   -0.59991  -0.59825  -0.59782  -0.59385  -0.58967
 Alpha  occ. eigenvalues --   -0.58589  -0.58111  -0.57676  -0.57643  -0.57479
 Alpha  occ. eigenvalues --   -0.57190  -0.56931  -0.56510  -0.56072  -0.55635
 Alpha  occ. eigenvalues --   -0.55538  -0.55356  -0.55182  -0.54928  -0.54760
 Alpha  occ. eigenvalues --   -0.54658  -0.54420  -0.54327  -0.54097  -0.53935
 Alpha  occ. eigenvalues --   -0.53891  -0.53614  -0.53528  -0.53124  -0.53114
 Alpha  occ. eigenvalues --   -0.52956  -0.52567  -0.52528  -0.52518  -0.52407
 Alpha  occ. eigenvalues --   -0.52150  -0.52052  -0.51825  -0.51649  -0.51600
 Alpha  occ. eigenvalues --   -0.51270  -0.51062  -0.50918  -0.50841  -0.50826
 Alpha  occ. eigenvalues --   -0.50619  -0.50603  -0.50306  -0.50266  -0.50242
 Alpha  occ. eigenvalues --   -0.49694  -0.49583  -0.49567  -0.49349  -0.49100
 Alpha  occ. eigenvalues --   -0.48876  -0.48741  -0.48621  -0.48189  -0.48184
 Alpha  occ. eigenvalues --   -0.48160  -0.48000  -0.47809  -0.47756  -0.47672
 Alpha  occ. eigenvalues --   -0.47550  -0.47318  -0.47283  -0.47072  -0.46656
 Alpha  occ. eigenvalues --   -0.46544  -0.46414  -0.46344  -0.46249  -0.46129
 Alpha  occ. eigenvalues --   -0.46084  -0.45923  -0.45779  -0.45697  -0.45282
 Alpha  occ. eigenvalues --   -0.45265  -0.45116  -0.45103  -0.44927  -0.44872
 Alpha  occ. eigenvalues --   -0.44762  -0.44517  -0.44251  -0.44084  -0.43838
 Alpha  occ. eigenvalues --   -0.43830  -0.43807  -0.43496  -0.43336  -0.43146
 Alpha  occ. eigenvalues --   -0.43105  -0.42744  -0.42682  -0.42669  -0.42278
 Alpha  occ. eigenvalues --   -0.41957  -0.41852  -0.41703  -0.41511  -0.40911
 Alpha  occ. eigenvalues --   -0.40544  -0.40219  -0.39984  -0.39786  -0.39589
 Alpha  occ. eigenvalues --   -0.39286  -0.38879  -0.38771  -0.38414  -0.38371
 Alpha  occ. eigenvalues --   -0.37959  -0.37393  -0.36963  -0.36259  -0.35801
 Alpha  occ. eigenvalues --   -0.35689  -0.35340  -0.35263  -0.34057  -0.33963
 Alpha  occ. eigenvalues --   -0.33579  -0.33226  -0.32787  -0.32550  -0.32017
 Alpha  occ. eigenvalues --   -0.31981  -0.31530  -0.31032  -0.26140  -0.25654
 Alpha  occ. eigenvalues --   -0.23048  -0.22982
 Alpha virt. eigenvalues --   -0.07108  -0.07008   0.00143   0.00834   0.02159
 Alpha virt. eigenvalues --    0.02298   0.04156   0.04745   0.05143   0.06777
 Alpha virt. eigenvalues --    0.06977   0.07184   0.08132   0.08232   0.08906

 Mulliken charges:
               1
     1  Mg   0.966610
     2  C    0.015915
     3  C   -0.089302
     4  C   -0.073359
     5  C   -0.081722
     6  N   -0.340699
     7  C   -0.050098
     8  C   -0.024521
     9  C   -0.146572
    10  C    0.111109
    11  C    0.045184
    12  C    0.022898
    13  C   -0.130292
    14  H    0.030472
    15  N   -0.460486
    16  C    0.119299
    17  C   -0.139277
    18  C   -0.060610
    19  C    0.168549
    20  C    0.086918
    21  C    0.018718
    22  O   -0.210910
    23  C   -0.019723
    24  N   -0.295165
    25  C    0.031316
    26  C   -0.087968
    27  C   -0.051391
    28  C    0.005299
    29  C    0.018802
    30  C   -0.018420
    31  C   -0.065328
    32  N   -0.451042
    33  C    0.151269
    34  C   -0.200985
    35  C   -0.007662
    36  C    0.105990
    37  C    0.098544
    38  C    0.085684
    39  O   -0.226832
    40  C   -0.061184
    41  C    0.241562
    42  O   -0.258426
    43  O   -0.370050
    44  C    0.138427
    45  H    0.003178
    46  H   -0.045491
    47  H   -0.027433
    48  H    0.025926
    49  H    0.042907
    50  H    0.042000
    51  H    0.029772
    52  H    0.040702
    53  H    0.040892
    54  H    0.032025
    55  H    0.057289
    56  H    0.062683
    57  H    0.069952
    58  H    0.019478
    59  H    0.052848
    60  H    0.067192
    61  H    0.060698
    62  H    0.051597
    63  H    0.046694
    64  H    0.041912
    65  H    0.030587
    66  H    0.057268
    67  H    0.038681
    68  H    0.041034
    69  H    0.036532
    70  H    0.040007
    71  H    0.033022
    72  H    0.044057
    73  H    0.043203
    74  H    0.064849
    75  H    0.064407
    76  H    0.078329
    77  H    0.064608
    78  H    0.047389
    79  H    0.060666
    80  Mg   0.985836
    81  C   -0.034025
    82  C   -0.089174
    83  C   -0.081885
    84  C   -0.113425
    85  N   -0.312477
    86  C   -0.021753
    87  C   -0.084889
    88  C   -0.106266
    89  C    0.035751
    90  C    0.056850
    91  C    0.017519
    92  C   -0.109706
    93  H    0.037659
    94  N   -0.477383
    95  C    0.189986
    96  C   -0.158343
    97  C   -0.109129
    98  C    0.127393
    99  C    0.048979
   100  C    0.101554
   101  O   -0.227931
   102  C   -0.029373
   103  N   -0.379099
   104  C    0.081101
   105  C   -0.097509
   106  C   -0.032359
   107  C    0.053041
   108  C    0.021227
   109  C   -0.006262
   110  C   -0.048360
   111  N   -0.374706
   112  C    0.116201
   113  C   -0.175043
   114  C   -0.023329
   115  C    0.102207
   116  C    0.084989
   117  C    0.096420
   118  O   -0.204756
   119  C   -0.019766
   120  C    0.245890
   121  O   -0.252165
   122  O   -0.402336
   123  C    0.147410
   124  H    0.004948
   125  H    0.017577
   126  H   -0.007585
   127  H    0.021578
   128  H    0.004766
   129  H    0.035819
   130  H    0.070860
   131  H    0.036558
   132  H    0.035160
   133  H    0.041190
   134  H    0.046502
   135  H    0.054433
   136  H    0.041197
   137  H    0.065758
   138  H    0.030888
   139  H    0.059197
   140  H    0.055923
   141  H    0.081344
   142  H    0.036951
   143  H    0.030516
   144  H    0.038178
   145  H    0.045157
   146  H    0.041254
   147  H    0.033617
   148  H    0.027819
   149  H    0.017895
   150  H    0.048046
   151  H    0.040605
   152  H    0.015087
   153  H    0.065831
   154  H    0.045828
   155  H    0.068873
   156  H    0.065027
   157  H    0.056600
   158  H    0.048040
 Sum of Mulliken charges =  -0.00000

 Dipole moment (field-independent basis, Debye):
    X=              5.3488    Y=              4.7739    Z=             -3.1684  Tot=              7.8383
 Quadrupole moment (field-independent basis, Debye-Ang):
   XX=           -405.6510   YY=           -508.8780   ZZ=           -495.1116
   XY=            -12.0284   XZ=             -2.7920   YZ=             -9.8894

 Normal termination of Gaussian 16 at Mon Sep 20 08:02:25 2021.
