 Gaussian 16, Revision A.03,
 Gaussian 16:  ES64L-G16RevA.03 25-Dec-2016

 --------------------------------
 #p wB97XD/Def2SVP td=(nstates=5)
 --------------------------------

 --------------------------------
 TDDFT excited states in gaussian
 --------------------------------
 Symbolic Z-matrix:
 Charge =  0 Multiplicity = 1

                         Standard orientation:
 ---------------------------------------------------------------------
 Center     Atomic      Atomic             Coordinates (Angstroms)
 Number     Number       Type             X           Y           Z
 ---------------------------------------------------------------------
      1         12           0      -13.584388   -0.529058   -0.277973
      2          6           0      -12.065032    1.849431    1.663653
      3          6           0      -15.380604    1.845144   -1.806417
      4          6           0      -15.161783   -3.004570   -1.935326
      5          6           0      -11.996261   -3.078276    1.771080
      6          7           0      -13.882640    1.629216    0.127959
      7          6           0      -13.089621    2.410291    0.871330
      8          6           0      -13.477369    3.965180    0.677257
      9          6           0      -14.546985    3.835029   -0.470769
     10          6           0      -14.672059    2.321830   -0.739798
     11          6           0      -15.868220    4.570223   -0.172815
     12          6           0      -12.269973    4.871457    0.304200
     13          6           0      -12.561639    6.301386   -0.257180
     14          1           0      -12.366913    7.524191    0.717561
     15          7           0      -15.117086   -0.572699   -1.657790
     16          6           0      -15.650850    0.484094   -2.234204
     17          6           0      -16.604510    0.034182   -3.236849
     18          6           0      -16.665746   -1.391815   -3.244333
     19          6           0      -15.616027   -1.717943   -2.254134
     20          6           0      -17.533164    0.932404   -4.037129
     21          6           0      -17.578824   -2.345696   -4.007535
     22          8           0      -17.687021   -3.521971   -3.673320
     23          6           0      -18.347053   -1.823573   -5.170868
     24          7           0      -13.606263   -2.737925   -0.066370
     25          6           0      -14.298564   -3.505009   -0.900109
     26          6           0      -13.968231   -4.996288   -0.722720
     27          6           0      -12.831469   -4.918165    0.293044
     28          6           0      -12.843516   -3.494404    0.708365
     29          6           0      -15.109902   -5.946644   -0.332246
     30          6           0      -11.545232   -5.553278   -0.171261
     31          6           0      -11.046497   -6.793059    0.653502
     32          7           0      -12.289672   -0.634987    1.300645
     33          6           0      -11.652773   -1.720654    1.990336
     34          6           0      -10.679688   -1.234818    2.943817
     35          6           0      -10.838054    0.171127    2.794680
     36          6           0      -11.804949    0.459163    1.823225
     37          6           0       -9.648994   -1.941608    3.751543
     38          6           0      -10.175184    1.383537    3.204046
     39          8           0       -9.133873    1.631209    3.830293
     40          6           0      -10.965410    2.535627    2.635635
     41          6           0      -11.728826    3.219781    3.791063
     42          8           0      -12.336948    2.674189    4.724628
     43          8           0      -11.629685    4.567019    3.607578
     44          6           0      -12.265141    5.457745    4.629708
     45          1           0      -15.931394    2.523836   -2.461004
     46          1           0      -15.755247   -3.857512   -2.271112
     47          1           0      -11.455296   -3.896625    2.249611
     48          1           0      -13.940517    4.235286    1.625583
     49          1           0      -14.106985    4.254450   -1.375500
     50          1           0      -16.159804    5.079182   -1.090888
     51          1           0      -15.743058    5.342860    0.585859
     52          1           0      -16.641688    3.869156    0.141035
     53          1           0      -11.809815    4.386808   -0.556872
     54          1           0      -11.622935    5.004942    1.171089
     55          1           0      -13.630284    6.342946   -0.470322
     56          1           0      -11.910410    6.479204   -1.112280
     57          1           0      -17.376163    1.983459   -3.794879
     58          1           0      -18.568995    0.677707   -3.814208
     59          1           0      -17.394371    0.806715   -5.110176
     60          1           0      -17.614553   -1.291850   -5.778816
     61          1           0      -19.194356   -1.146361   -5.067719
     62          1           0      -18.800300   -2.614893   -5.766954
     63          1           0      -13.578764   -5.361103   -1.672542
     64          1           0      -13.135701   -5.503879    1.160320
     65          1           0      -14.912453   -6.846520   -0.914248
     66          1           0      -16.077755   -5.479283   -0.513148
     67          1           0      -15.183787   -6.145861    0.736798
     68          1           0      -10.799245   -4.780058    0.009637
     69          1           0      -11.567228   -5.875105   -1.212037
     70          1           0      -11.728506   -6.988356    1.481471
     71          1           0      -10.073782   -6.531371    1.071103
     72          1           0      -10.850227   -7.694043    0.072116
     73          1           0       -9.584806   -2.985865    3.446889
     74          1           0      -10.051935   -1.970207    4.763270
     75          1           0       -8.726691   -1.388022    3.569641
     76          1           0      -10.207742    3.189872    2.203937
     77          1           0      -13.279999    5.182764    4.918056
     78          1           0      -12.253462    6.516608    4.373420
     79          1           0      -11.679804    5.315368    5.537959
     80         12           0       13.785691   -0.651523   -0.040116
     81          6           0       11.973514    2.423089   -0.708513
     82          6           0       16.572089    1.241825   -0.167045
     83          6           0       15.363958   -3.377753    0.488590
     84          6           0       10.727357   -2.417687   -0.293352
     85          7           0       14.196416    1.696690   -0.387601
     86          6           0       13.315462    2.701278   -0.534494
     87          6           0       14.042992    4.058615   -0.490791
     88          6           0       15.517168    3.511035   -0.783178
     89          6           0       15.447793    2.100279   -0.372673
     90          6           0       16.175001    3.878670   -2.102674
     91          6           0       13.805368    4.702781    0.885981
     92          6           0       13.919358    6.255428    0.855480
     93          1           0       13.966373    7.102388   -0.499275
     94          7           0       15.748931   -1.049868    0.191599
     95          6           0       16.792586   -0.160447    0.021731
     96          6           0       18.041808   -0.901659    0.166227
     97          6           0       17.702226   -2.250182    0.437114
     98          6           0       16.213317   -2.256156    0.370694
     99          6           0       19.373690   -0.307901    0.037807
    100          6           0       18.652418   -3.513790    0.778419
    101          8           0       18.196840   -4.558110    1.156896
    102          6           0       20.176215   -3.356681    0.928780
    103          7           0       13.141574   -2.649072   -0.192763
    104          6           0       13.988683   -3.582404    0.233605
    105          6           0       13.381737   -4.951692    0.381728
    106          6           0       11.894683   -4.544245    0.522215
    107          6           0       11.928397   -3.145843   -0.185243
    108          6           0       13.615030   -5.914638   -0.873833
    109          6           0       11.310807   -4.525408    1.997004
    110          6           0       11.888886   -5.489885    3.073170
    111          7           0       11.796150   -0.180169   -0.522239
    112          6           0       10.667507   -0.931718   -0.531913
    113          6           0        9.524435   -0.149862   -0.677506
    114          6           0       10.007084    1.122044   -0.797394
    115          6           0       11.382987    1.103434   -0.681617
    116          6           0        8.082681   -0.648537   -0.632431
    117          6           0        9.536199    2.505664   -0.960479
    118          8           0        8.452471    2.988942   -1.252053
    119          6           0       10.847387    3.395820   -0.820748
    120          6           0       10.893789    4.285787   -1.967650
    121          8           0       11.244501    3.999517   -3.116808
    122          8           0       10.236323    5.410795   -1.617047
    123          6           0        9.875401    6.224752   -2.763909
    124          1           0       17.469941    1.822196   -0.389845
    125          1           0       15.939671   -4.294288    0.629517
    126          1           0        9.800586   -2.994311   -0.267099
    127          1           0       13.762714    4.691608   -1.332826
    128          1           0       16.160695    4.003930   -0.055740
    129          1           0       17.026600    4.544266   -1.965031
    130          1           0       15.453440    4.361561   -2.761393
    131          1           0       16.504691    3.021222   -2.689394
    132          1           0       14.621521    4.385672    1.535546
    133          1           0       12.883432    4.384730    1.372437
    134          1           0       14.717331    6.614363    1.506277
    135          1           0       13.090015    6.548622    1.499012
    136          1           0       19.360224    0.763039    0.239193
    137          1           0       19.676711   -0.513337   -0.989018
    138          1           0       20.113647   -0.722841    0.722549
    139          1           0       20.473866   -2.739835    1.776689
    140          1           0       20.515617   -3.046263   -0.059667
    141          1           0       20.640365   -4.338080    1.029815
    142          1           0       13.885218   -5.342559    1.265619
    143          1           0       11.220682   -5.183919   -0.047036
    144          1           0       13.914876   -6.840614   -0.383693
    145          1           0       14.408344   -5.591328   -1.548709
    146          1           0       12.733417   -6.129759   -1.476434
    147          1           0       10.229840   -4.646635    1.943159
    148          1           0       11.639971   -3.539761    2.326506
    149          1           0       12.755578   -5.041640    3.558384
    150          1           0       12.062354   -6.410558    2.514967
    151          1           0       11.149526   -5.755984    3.827783
    152          1           0        8.117471   -1.522065    0.019029
    153          1           0        7.721372   -1.007244   -1.595776
    154          1           0        7.459541    0.147452   -0.225154
    155          1           0       10.737783    3.958461    0.107211
    156          1           0        9.323547    7.125986   -2.498350
    157          1           0        9.442358    5.702265   -3.617053
    158          1           0       10.768081    6.655697   -3.218549
 ---------------------------------------------------------------------

 SCF Done:  E(RwB97XD) =  -4070.58614630     A.U. after   19 cycles

 Excitation energies and oscillator strengths:

 Excited State   1:      Singlet-A      1.6635 eV  745.30 nm  f=0.4129  <S**2>=0.000
     309 -> 315        0.18168
     312 -> 313        0.68154
     309 <- 315        0.11249
 This state for optimization and/or second-order correction.
 Total Energy, E(TD-HF/TD-DFT) =  -4070.52501236
 Copying the excited state density for this state as the 1-particle RhoCI density.

 Excited State   2:      Singlet-A      1.7986 eV  689.36 nm  f=0.3660  <S**2>=0.000
     310 -> 316       -0.19146
     311 -> 314        0.67937
     310 <- 316       -0.11151

 Excited State   3:      Singlet-A      2.1924 eV  565.52 nm  f=0.1466  <S**2>=0.000
     310 -> 314        0.65240
     311 -> 316        0.25641

 Excited State   4:      Singlet-A      2.2220 eV  557.98 nm  f=0.1126  <S**2>=0.000
     309 -> 313        0.63682
     312 -> 315       -0.28920

 Excited State   5:      Singlet-A      3.4314 eV  361.32 nm  f=0.0041  <S**2>=0.000
     306 -> 313        0.28148
     306 -> 318       -0.17131
     306 -> 319        0.20533
     307 -> 313        0.51558
     307 -> 318       -0.16325
     307 -> 319        0.14980

 The electronic state is 1-A.
 Alpha  occ. eigenvalues --  -46.95638 -46.95447 -19.30749 -19.30047 -19.25548
 Alpha  occ. eigenvalues --  -19.24500 -19.24307 -19.23801 -19.23644 -19.22649
 Alpha  occ. eigenvalues --  -14.46580 -14.46184 -14.46026 -14.45615 -14.44604
 Alpha  occ. eigenvalues --  -14.44513 -14.43797 -14.43150 -10.43323 -10.41976
 Alpha  occ. eigenvalues --  -10.40982 -10.40002 -10.38742 -10.37261 -10.35839
 Alpha  occ. eigenvalues --  -10.35639 -10.35371 -10.34916 -10.34806 -10.34797
 Alpha  occ. eigenvalues --  -10.34648 -10.34403 -10.34351 -10.34264 -10.34205
 Alpha  occ. eigenvalues --  -10.33945 -10.33898 -10.33606 -10.33517 -10.33512
 Alpha  occ. eigenvalues --  -10.33249 -10.33151 -10.32706 -10.32663 -10.32652
 Alpha  occ. eigenvalues --  -10.32347 -10.32305 -10.32100 -10.32067 -10.32042
 Alpha  occ. eigenvalues --  -10.31998 -10.31934 -10.31720 -10.31611 -10.31583
 Alpha  occ. eigenvalues --  -10.31582 -10.31494 -10.31487 -10.31397 -10.31387
 Alpha  occ. eigenvalues --  -10.31257 -10.31235 -10.31073 -10.31009 -10.30971
 Alpha  occ. eigenvalues --  -10.30896 -10.30639 -10.30620 -10.30526 -10.30463
 Alpha  occ. eigenvalues --  -10.30334 -10.30164 -10.30106 -10.30077 -10.30031
 Alpha  occ. eigenvalues --  -10.29959 -10.29905 -10.29830 -10.29462 -10.29435
 Alpha  occ. eigenvalues --  -10.29405 -10.29376 -10.29310 -10.28979 -10.28347
 Alpha  occ. eigenvalues --  -10.27629  -3.21592  -3.21415  -1.95182  -1.94996
 Alpha  occ. eigenvalues --   -1.94733  -1.94540  -1.94529  -1.94398  -1.18595
 Alpha  occ. eigenvalues --   -1.17637  -1.14843  -1.12539  -1.11585  -1.10096
 Alpha  occ. eigenvalues --   -1.08747  -1.08636  -1.07750  -1.07650  -1.07175
 Alpha  occ. eigenvalues --   -1.06676  -1.06325  -1.05822  -1.05367  -1.04900
 Alpha  occ. eigenvalues --   -0.94238  -0.93153  -0.91698  -0.91126  -0.90560
 Alpha  occ. eigenvalues --   -0.90500  -0.90017  -0.89905  -0.89453  -0.89418
 Alpha  occ. eigenvalues --   -0.88999  -0.88865  -0.88776  -0.87430  -0.86245
 Alpha  occ. eigenvalues --   -0.86023  -0.85140  -0.84948  -0.84210  -0.84209
 Alpha  occ. eigenvalues --   -0.83975  -0.83842  -0.82948  -0.82611  -0.82013
 Alpha  occ. eigenvalues --   -0.81919  -0.80579  -0.80412  -0.79394  -0.78680
 Alpha  occ. eigenvalues --   -0.78581  -0.78478  -0.77928  -0.77586  -0.77204
 Alpha  occ. eigenvalues --   -0.77148  -0.74658  -0.74547  -0.73581  -0.73580
 Alpha  occ. eigenvalues --   -0.71544  -0.71282  -0.70979  -0.70660  -0.69612
 Alpha  occ. eigenvalues --   -0.69519  -0.69494  -0.68766  -0.67691  -0.67343
 Alpha  occ. eigenvalues --   -0.66994  -0.66808  -0.66559  -0.66327  -0.65817
 Alpha  occ. eigenvalues --   -0.65609  -0.64534  -0.63723  -0.62826  -0.62651
 Alpha  occ. eigenvalues --   -0.61537  -0.61425  -0.61174  -0.60784  -0.60534
 Alpha  occ. eigenvalues --   -0.60321  -0.59895  -0.59800  -0.59419  -0.59280
 Alpha  occ. eigenvalues --   -0.58538  -0.58228  -0.57560  -0.57346  -0.57093
 Alpha  occ. eigenvalues --   -0.56993  -0.56470  -0.56381  -0.55976  -0.55933
 Alpha  occ. eigenvalues --   -0.55719  -0.55599  -0.55493  -0.55263  -0.54902
 Alpha  occ. eigenvalues --   -0.54803  -0.54660  -0.54400  -0.54130  -0.54029
 Alpha  occ. eigenvalues --   -0.53626  -0.53540  -0.53159  -0.53038  -0.53013
 Alpha  occ. eigenvalues --   -0.52962  -0.52588  -0.52561  -0.52370  -0.52355
 Alpha  occ. eigenvalues --   -0.51881  -0.51774  -0.51653  -0.51596  -0.51514
 Alpha  occ. eigenvalues --   -0.51193  -0.51014  -0.50914  -0.50832  -0.50801
 Alpha  occ. eigenvalues --   -0.50645  -0.50468  -0.50396  -0.50224  -0.50042
 Alpha  occ. eigenvalues --   -0.49743  -0.49671  -0.49535  -0.49369  -0.49264
 Alpha  occ. eigenvalues --   -0.49152  -0.48882  -0.48651  -0.48616  -0.48239
 Alpha  occ. eigenvalues --   -0.48110  -0.47990  -0.47792  -0.47623  -0.47298
 Alpha  occ. eigenvalues --   -0.46827  -0.46759  -0.46592  -0.46501  -0.46394
 Alpha  occ. eigenvalues --   -0.46351  -0.46243  -0.46170  -0.45982  -0.45939
 Alpha  occ. eigenvalues --   -0.45853  -0.45803  -0.45694  -0.45687  -0.45448
 Alpha  occ. eigenvalues --   -0.45205  -0.45131  -0.44845  -0.44758  -0.44630
 Alpha  occ. eigenvalues --   -0.44534  -0.44326  -0.44165  -0.44094  -0.43932
 Alpha  occ. eigenvalues --   -0.43890  -0.43811  -0.43672  -0.43367  -0.43294
 Alpha  occ. eigenvalues --   -0.43170  -0.43012  -0.42638  -0.42261  -0.42238
 Alpha  occ. eigenvalues --   -0.41578  -0.41176  -0.41106  -0.40903  -0.40547
 Alpha  occ. eigenvalues --   -0.40114  -0.40097  -0.39956  -0.39700  -0.39360
 Alpha  occ. eigenvalues --   -0.39094  -0.38606  -0.38595  -0.38117  -0.37854
 Alpha  occ. eigenvalues --   -0.37801  -0.37593  -0.36185  -0.36096  -0.35908
 Alpha  occ. eigenvalues --   -0.35612  -0.35485  -0.34640  -0.33916  -0.33846
 Alpha  occ. eigenvalues --   -0.33697  -0.33247  -0.32786  -0.32707  -0.32254
 Alpha  occ. eigenvalues --   -0.31864  -0.31728  -0.31537  -0.25753  -0.25255
 Alpha  occ. eigenvalues --   -0.23163  -0.22835
 Alpha virt. eigenvalues --   -0.06818  -0.06542   0.00236   0.00885   0.02663
 Alpha virt. eigenvalues --    0.02708   0.04698   0.04815   0.05164   0.05622
 Alpha virt. eigenvalues --    0.06810   0.07570   0.07915   0.07962   0.08688

 Mulliken charges:
               1
     1  Mg   0.970408
     2  C   -0.074739
     3  C   -0.078769
     4  C   -0.049359
     5  C   -0.066387
     6  N   -0.355612
     7  C   -0.026112
     8  C   -0.008787
     9  C   -0.153472
    10  C    0.120005
    11  C    0.024347
    12  C   -0.009702
    13  C   -0.131326
    14  H    0.014972
    15  N   -0.438386
    16  C    0.116683
    17  C   -0.187019
    18  C   -0.059016
    19  C    0.130875
    20  C    0.069564
    21  C    0.087506
    22  O   -0.227414
    23  C   -0.033034
    24  N   -0.274122
    25  C   -0.007313
    26  C   -0.114781
    27  C   -0.055352
    28  C    0.009656
    29  C    0.036118
    30  C    0.000432
    31  C   -0.068122
    32  N   -0.456954
    33  C    0.123465
    34  C   -0.170385
    35  C   -0.077032
    36  C    0.206148
    37  C    0.109140
    38  C    0.102859
    39  O   -0.239167
    40  C   -0.055722
    41  C    0.293646
    42  O   -0.266153
    43  O   -0.365140
    44  C    0.138596
    45  H   -0.019885
    46  H    0.029421
    47  H    0.004035
    48  H    0.040320
    49  H    0.037172
    50  H    0.033981
    51  H    0.041417
    52  H    0.049554
    53  H    0.032099
    54  H    0.073521
    55  H    0.048206
    56  H    0.065822
    57  H    0.031725
    58  H    0.051364
    59  H    0.041215
    60  H    0.048776
    61  H    0.063037
    62  H    0.052334
    63  H    0.038879
    64  H    0.021225
    65  H    0.046464
    66  H    0.044221
    67  H    0.029670
    68  H    0.030670
    69  H    0.036961
    70  H    0.032960
    71  H    0.033508
    72  H    0.041919
    73  H    0.019305
    74  H    0.065297
    75  H    0.081334
    76  H    0.069926
    77  H    0.058445
    78  H    0.063590
    79  H    0.056470
    80  Mg   0.963151
    81  C   -0.002641
    82  C   -0.069608
    83  C   -0.087055
    84  C   -0.078652
    85  N   -0.252351
    86  C   -0.062721
    87  C   -0.061913
    88  C   -0.088935
    89  C    0.000081
    90  C    0.039671
    91  C    0.010061
    92  C   -0.092269
    93  H    0.048408
    94  N   -0.472658
    95  C    0.161465
    96  C   -0.161839
    97  C   -0.088181
    98  C    0.121999
    99  C    0.059499
   100  C    0.076566
   101  O   -0.197414
   102  C   -0.024193
   103  N   -0.321544
   104  C    0.064981
   105  C   -0.102355
   106  C   -0.113781
   107  C    0.058368
   108  C    0.030258
   109  C   -0.010602
   110  C   -0.052893
   111  N   -0.410066
   112  C    0.090308
   113  C   -0.218986
   114  C   -0.051339
   115  C    0.154879
   116  C    0.095814
   117  C    0.138685
   118  O   -0.197619
   119  C   -0.092978
   120  C    0.252598
   121  O   -0.272241
   122  O   -0.331149
   123  C    0.153371
   124  H   -0.010616
   125  H    0.011869
   126  H    0.003412
   127  H    0.040449
   128  H    0.017714
   129  H    0.039796
   130  H    0.042785
   131  H    0.036561
   132  H    0.031804
   133  H    0.048138
   134  H    0.038504
   135  H    0.037449
   136  H    0.044131
   137  H    0.065854
   138  H    0.040864
   139  H    0.086409
   140  H    0.045179
   141  H    0.050754
   142  H    0.043777
   143  H    0.017473
   144  H    0.041898
   145  H    0.045838
   146  H    0.042450
   147  H    0.037485
   148  H    0.027863
   149  H    0.050444
   150  H    0.034706
   151  H    0.039984
   152  H    0.025537
   153  H    0.052963
   154  H    0.056096
   155  H    0.073456
   156  H    0.049894
   157  H    0.060834
   158  H    0.024067
 Sum of Mulliken charges =  -0.00000

 Dipole moment (field-independent basis, Debye):
    X=              3.6876    Y=              0.9090    Z=             -1.9165  Tot=              4.2541
 Quadrupole moment (field-independent basis, Debye-Ang):
   XX=           -307.4121   YY=           -465.9239   ZZ=           -521.2888
   XY=            -13.4702   XZ=             82.6952   YZ=             -4.6182

 Normal termination of Gaussian 16 at Sun Sep 19 06:58:33 2021.
