 Gaussian 16, Revision A.03,
 Gaussian 16:  ES64L-G16RevA.03 25-Dec-2016

 --------------------------------
 #p wB97XD/Def2SVP td=(nstates=5)
 --------------------------------

 --------------------------------
 TDDFT excited states in gaussian
 --------------------------------
 Symbolic Z-matrix:
 Charge =  0 Multiplicity = 1

                         Standard orientation:
 ---------------------------------------------------------------------
 Center     Atomic      Atomic             Coordinates (Angstroms)
 Number     Number       Type             X           Y           Z
 ---------------------------------------------------------------------
      1         12           0      -16.032825    0.394582    0.331867
      2          6           0      -15.579778   -2.397892   -1.804383
      3          6           0      -12.679317    0.902726    0.178917
      4          6           0      -16.585279    3.475068    1.660319
      5          6           0      -19.454581    0.014051   -0.067538
      6          7           0      -14.419236   -0.626479   -0.876575
      7          6           0      -14.399930   -1.791005   -1.597400
      8          6           0      -13.024651   -2.172922   -2.001995
      9          6           0      -12.103452   -1.267329   -1.056493
     10          6           0      -13.094139   -0.267787   -0.565306
     11          6           0      -11.445338   -2.083708    0.044143
     12          6           0      -12.916332   -1.949222   -3.518519
     13          6           0      -12.433226   -3.170878   -4.408508
     14          1           0      -11.214003   -3.040246   -5.370346
     15          7           0      -14.852439    1.983731    0.907927
     16          6           0      -13.453143    1.942911    0.834964
     17          6           0      -12.948256    3.088226    1.530874
     18          6           0      -14.053608    3.897813    1.960280
     19          6           0      -15.237191    3.083188    1.575499
     20          6           0      -11.450394    3.285198    1.725825
     21          6           0      -14.035206    5.231447    2.673259
     22          8           0      -12.875489    5.603429    3.015552
     23          6           0      -15.212570    6.214367    2.929176
     24          7           0      -17.790244    1.612475    0.763425
     25          6           0      -17.748791    2.833081    1.341621
     26          6           0      -19.151128    3.473000    1.519579
     27          6           0      -20.080323    2.296950    1.060040
     28          6           0      -19.019645    1.241080    0.491714
     29          6           0      -19.342137    3.890268    2.966764
     30          6           0      -21.092624    2.649184    0.013165
     31          6           0      -22.514590    2.607879    0.503299
     32          7           0      -17.298154   -0.940624   -0.521398
     33          6           0      -18.692921   -1.048034   -0.591069
     34          6           0      -19.092099   -2.262601   -1.092622
     35          6           0      -17.897466   -2.852646   -1.553404
     36          6           0      -16.855922   -1.977695   -1.253283
     37          6           0      -20.505803   -2.793307   -0.982424
     38          6           0      -17.338017   -4.092682   -2.154126
     39          8           0      -17.899050   -5.091095   -2.484117
     40          6           0      -15.823186   -3.723764   -2.380981
     41          6           0      -15.012966   -4.952763   -2.030627
     42          8           0      -14.497224   -5.709052   -2.853721
     43          8           0      -14.889939   -5.076862   -0.625382
     44          6           0      -14.009940   -6.178961   -0.237810
     45          1           0      -11.597730    0.952221    0.322720
     46          1           0      -16.809598    4.412733    2.174237
     47          1           0      -20.485641   -0.052018   -0.419288
     48          1           0      -12.865878   -3.230803   -1.792376
     49          1           0      -11.315695   -0.830251   -1.669510
     50          1           0      -12.089058   -2.867103    0.441803
     51          1           0      -11.261142   -1.425281    0.893708
     52          1           0      -10.474226   -2.493718   -0.233132
     53          1           0      -12.228293   -1.117479   -3.669175
     54          1           0      -13.823396   -1.548175   -3.970737
     55          1           0      -13.328952   -3.327069   -5.010216
     56          1           0      -12.397691   -4.086470   -3.819320
     57          1           0      -10.915457    3.184840    0.781423
     58          1           0      -11.124155    2.479898    2.383866
     59          1           0      -11.110929    4.264107    2.067130
     60          1           0      -15.818657    5.687054    3.665167
     61          1           0      -15.758465    6.351576    1.995684
     62          1           0      -14.874707    7.192396    3.272859
     63          1           0      -19.311547    4.367225    0.917840
     64          1           0      -20.506304    1.799075    1.930731
     65          1           0      -18.477250    4.488141    3.254696
     66          1           0      -19.388232    2.987197    3.576245
     67          1           0      -20.265820    4.385697    3.263460
     68          1           0      -21.091989    1.972221   -0.841134
     69          1           0      -20.980966    3.619363   -0.470570
     70          1           0      -22.971948    3.571477    0.282201
     71          1           0      -22.585522    2.512544    1.586804
     72          1           0      -23.101174    1.779119    0.105412
     73          1           0      -20.436037   -3.868282   -1.151835
     74          1           0      -21.172899   -2.350753   -1.721790
     75          1           0      -20.820227   -2.531666    0.027667
     76          1           0      -15.763899   -3.688695   -3.469417
     77          1           0      -13.557817   -5.982842    0.734510
     78          1           0      -13.135265   -6.235416   -0.884220
     79          1           0      -14.506618   -7.149452   -0.255592
     80         12           0       16.156036    0.670845   -0.359523
     81          6           0       15.695791   -2.122460    1.875525
     82          6           0       13.193477    1.991443    0.973364
     83          6           0       16.618799    3.278962   -2.299489
     84          6           0       18.906446   -0.965948   -1.765682
     85          7           0       14.610190   -0.067504    1.265930
     86          6           0       14.748972   -1.084304    2.157056
     87          6           0       13.756854   -0.975988    3.303536
     88          6           0       12.712197    0.173594    2.811318
     89          6           0       13.523694    0.722804    1.602525
     90          6           0       11.277790   -0.329952    2.512800
     91          6           0       14.446187   -0.648174    4.670994
     92          6           0       14.151899   -1.681752    5.788931
     93          1           0       13.316904   -1.064402    7.053115
     94          7           0       15.093669    2.346179   -0.612263
     95          6           0       13.855511    2.764671   -0.017298
     96          6           0       13.398521    4.095348   -0.483110
     97          6           0       14.449324    4.459116   -1.387545
     98          6           0       15.427520    3.360552   -1.455919
     99          6           0       12.103011    4.781867   -0.045710
    100          6           0       14.555733    5.668277   -2.236566
    101          8           0       15.568617    6.049263   -2.813343
    102          6           0       13.339136    6.612416   -2.301401
    103          7           0       17.640890    1.141550   -1.668602
    104          6           0       17.604239    2.284263   -2.391371
    105          6           0       18.609222    2.304405   -3.509373
    106          6           0       19.395136    0.980529   -3.342934
    107          6           0       18.658215    0.337857   -2.146273
    108          6           0       18.023854    2.552031   -4.883840
    109          6           0       20.965031    1.282295   -2.974921
    110          6           0       22.063219    0.573624   -3.939306
    111          7           0       16.976722   -1.285988   -0.223668
    112          6           0       18.169072   -1.752139   -0.828029
    113          6           0       18.460497   -3.078834   -0.272967
    114          6           0       17.600147   -3.158355    0.853601
    115          6           0       16.662216   -2.128732    0.763397
    116          6           0       19.483508   -4.121725   -0.713037
    117          6           0       17.157691   -4.122922    1.899840
    118          8           0       17.493305   -5.289013    2.247748
    119          6           0       15.984131   -3.389596    2.657389
    120          6           0       14.802048   -4.312077    2.707879
    121          8           0       14.412625   -4.962713    1.779756
    122          8           0       14.328630   -4.378517    3.988857
    123          6           0       13.391852   -5.512692    4.190469
    124          1           0       12.202925    2.290896    1.321470
    125          1           0       16.826954    4.114908   -2.970989
    126          1           0       19.784056   -1.479535   -2.163183
    127          1           0       13.221824   -1.925386    3.327013
    128          1           0       12.641411    1.002744    3.515819
    129          1           0       11.042616   -0.226793    1.453077
    130          1           0       10.549012    0.219928    3.109715
    131          1           0       11.061128   -1.355056    2.813430
    132          1           0       14.129571    0.319611    5.060766
    133          1           0       15.532048   -0.618992    4.576840
    134          1           0       15.047595   -2.003626    6.320820
    135          1           0       13.702205   -2.615228    5.452018
    136          1           0       11.629647    4.414041    0.865185
    137          1           0       11.325426    4.845406   -0.806844
    138          1           0       12.391260    5.813565    0.158321
    139          1           0       12.477306    6.092594   -2.719804
    140          1           0       13.553574    7.528162   -2.853368
    141          1           0       13.099507    6.915744   -1.282262
    142          1           0       19.245989    3.179209   -3.370891
    143          1           0       19.288219    0.343857   -4.220687
    144          1           0       18.246020    3.543710   -5.278897
    145          1           0       16.935262    2.530712   -4.933647
    146          1           0       18.396295    1.773924   -5.550447
    147          1           0       21.244873    0.997391   -1.961237
    148          1           0       21.207765    2.343524   -3.022657
    149          1           0       21.532029    0.344901   -4.863434
    150          1           0       22.478665   -0.328192   -3.487721
    151          1           0       22.828716    1.281306   -4.256513
    152          1           0       19.859251   -4.708904    0.124674
    153          1           0       20.368927   -3.582885   -1.052361
    154          1           0       18.993510   -4.616692   -1.551618
    155          1           0       16.321151   -3.288096    3.688686
    156          1           0       12.609743   -5.424649    3.436621
    157          1           0       12.927136   -5.287381    5.150227
    158          1           0       13.766610   -6.533355    4.114118
 ---------------------------------------------------------------------

 SCF Done:  E(RwB97XD) =  -4070.59838626     A.U. after   20 cycles

 Excitation energies and oscillator strengths:

 Excited State   1:      Singlet-A      1.6154 eV  767.53 nm  f=0.3618  <S**2>=0.000
     310 -> 316       -0.19078
     311 -> 313       -0.10638
     312 -> 314        0.67380
     310 <- 316       -0.11974
 This state for optimization and/or second-order correction.
 Total Energy, E(TD-HF/TD-DFT) =  -4070.53902262
 Copying the excited state density for this state as the 1-particle RhoCI density.

 Excited State   2:      Singlet-A      1.6249 eV  763.03 nm  f=0.3702  <S**2>=0.000
     309 -> 315       -0.17760
     311 -> 313        0.67649
     312 -> 314        0.10576
     309 <- 315       -0.11609

 Excited State   3:      Singlet-A      2.1192 eV  585.06 nm  f=0.1305  <S**2>=0.000
     310 -> 314        0.64522
     312 -> 316        0.27990

 Excited State   4:      Singlet-A      2.1633 eV  573.12 nm  f=0.1552  <S**2>=0.000
     309 -> 313        0.64646
     311 -> 315        0.27020

 Excited State   5:      Singlet-A      3.2305 eV  383.79 nm  f=0.0021  <S**2>=0.000
     306 -> 313       -0.24832
     307 -> 313        0.63597

 The electronic state is 1-A.
 Alpha  occ. eigenvalues --  -46.95422 -46.94861 -19.30913 -19.30871 -19.26019
 Alpha  occ. eigenvalues --  -19.24937 -19.24668 -19.24015 -19.23747 -19.23429
 Alpha  occ. eigenvalues --  -14.47247 -14.47048 -14.46882 -14.46501 -14.45376
 Alpha  occ. eigenvalues --  -14.44757 -14.43832 -14.43673 -10.44303 -10.42658
 Alpha  occ. eigenvalues --  -10.39741 -10.39547 -10.39184 -10.39122 -10.36118
 Alpha  occ. eigenvalues --  -10.35914 -10.35689 -10.35681 -10.35629 -10.35455
 Alpha  occ. eigenvalues --  -10.35299 -10.35181 -10.34944 -10.34917 -10.34906
 Alpha  occ. eigenvalues --  -10.34795 -10.34775 -10.34769 -10.34613 -10.33978
 Alpha  occ. eigenvalues --  -10.33294 -10.33127 -10.33123 -10.32960 -10.32929
 Alpha  occ. eigenvalues --  -10.32921 -10.32769 -10.32715 -10.32650 -10.32635
 Alpha  occ. eigenvalues --  -10.32531 -10.32506 -10.32499 -10.32489 -10.32422
 Alpha  occ. eigenvalues --  -10.32374 -10.32329 -10.32232 -10.32091 -10.32031
 Alpha  occ. eigenvalues --  -10.31920 -10.31870 -10.31624 -10.31454 -10.31320
 Alpha  occ. eigenvalues --  -10.31285 -10.31190 -10.31161 -10.31147 -10.30987
 Alpha  occ. eigenvalues --  -10.30871 -10.30719 -10.30524 -10.30466 -10.30429
 Alpha  occ. eigenvalues --  -10.30232 -10.30191 -10.29951 -10.29939 -10.29925
 Alpha  occ. eigenvalues --  -10.29727 -10.29387 -10.29349 -10.29210 -10.29192
 Alpha  occ. eigenvalues --  -10.29055  -3.21428  -3.20939  -1.94997  -1.94555
 Alpha  occ. eigenvalues --   -1.94529  -1.94402  -1.94063  -1.93928  -1.19124
 Alpha  occ. eigenvalues --   -1.17808  -1.14336  -1.12213  -1.10877  -1.10224
 Alpha  occ. eigenvalues --   -1.09920  -1.09292  -1.07318  -1.06356  -1.05982
 Alpha  occ. eigenvalues --   -1.05456  -1.05275  -1.04867  -1.04632  -1.04068
 Alpha  occ. eigenvalues --   -0.95348  -0.93543  -0.91836  -0.91320  -0.91012
 Alpha  occ. eigenvalues --   -0.90612  -0.90362  -0.90005  -0.89858  -0.89359
 Alpha  occ. eigenvalues --   -0.89028  -0.88947  -0.87972  -0.87550  -0.86836
 Alpha  occ. eigenvalues --   -0.86263  -0.85946  -0.85060  -0.84626  -0.83930
 Alpha  occ. eigenvalues --   -0.83700  -0.83337  -0.82724  -0.82619  -0.82511
 Alpha  occ. eigenvalues --   -0.81712  -0.81086  -0.79834  -0.79436  -0.79015
 Alpha  occ. eigenvalues --   -0.78889  -0.78707  -0.78482  -0.77966  -0.77526
 Alpha  occ. eigenvalues --   -0.77169  -0.75585  -0.74551  -0.74274  -0.73403
 Alpha  occ. eigenvalues --   -0.71438  -0.71160  -0.70978  -0.70659  -0.69725
 Alpha  occ. eigenvalues --   -0.69534  -0.69317  -0.69105  -0.68302  -0.67828
 Alpha  occ. eigenvalues --   -0.67737  -0.67605  -0.67441  -0.67007  -0.66412
 Alpha  occ. eigenvalues --   -0.66018  -0.65171  -0.64345  -0.62841  -0.62590
 Alpha  occ. eigenvalues --   -0.62130  -0.61670  -0.61221  -0.61029  -0.60738
 Alpha  occ. eigenvalues --   -0.60330  -0.60148  -0.59926  -0.59132  -0.58883
 Alpha  occ. eigenvalues --   -0.58294  -0.58151  -0.57847  -0.57693  -0.57259
 Alpha  occ. eigenvalues --   -0.56949  -0.56914  -0.56463  -0.56378  -0.55895
 Alpha  occ. eigenvalues --   -0.55721  -0.55581  -0.55349  -0.55228  -0.54693
 Alpha  occ. eigenvalues --   -0.54627  -0.54521  -0.54303  -0.54139  -0.54071
 Alpha  occ. eigenvalues --   -0.53739  -0.53614  -0.53336  -0.53286  -0.53108
 Alpha  occ. eigenvalues --   -0.52881  -0.52776  -0.52532  -0.52411  -0.52311
 Alpha  occ. eigenvalues --   -0.52058  -0.51977  -0.51892  -0.51890  -0.51709
 Alpha  occ. eigenvalues --   -0.51667  -0.51407  -0.51160  -0.50917  -0.50729
 Alpha  occ. eigenvalues --   -0.50623  -0.50331  -0.50211  -0.50050  -0.49996
 Alpha  occ. eigenvalues --   -0.49943  -0.49733  -0.49538  -0.49417  -0.49225
 Alpha  occ. eigenvalues --   -0.48977  -0.48906  -0.48773  -0.48615  -0.48489
 Alpha  occ. eigenvalues --   -0.48486  -0.48131  -0.48017  -0.47898  -0.47873
 Alpha  occ. eigenvalues --   -0.47750  -0.47500  -0.47488  -0.47315  -0.47192
 Alpha  occ. eigenvalues --   -0.46906  -0.46880  -0.46743  -0.46678  -0.46338
 Alpha  occ. eigenvalues --   -0.46048  -0.46030  -0.45955  -0.45786  -0.45720
 Alpha  occ. eigenvalues --   -0.45713  -0.45273  -0.45263  -0.44768  -0.44691
 Alpha  occ. eigenvalues --   -0.44542  -0.44480  -0.44434  -0.44385  -0.44187
 Alpha  occ. eigenvalues --   -0.44041  -0.44011  -0.43717  -0.43537  -0.43508
 Alpha  occ. eigenvalues --   -0.43476  -0.43261  -0.43099  -0.42707  -0.42602
 Alpha  occ. eigenvalues --   -0.42381  -0.42099  -0.42066  -0.41303  -0.41025
 Alpha  occ. eigenvalues --   -0.40740  -0.40516  -0.40217  -0.40171  -0.39809
 Alpha  occ. eigenvalues --   -0.39560  -0.39445  -0.39335  -0.39327  -0.38522
 Alpha  occ. eigenvalues --   -0.38435  -0.37510  -0.37437  -0.36744  -0.36640
 Alpha  occ. eigenvalues --   -0.36394  -0.35541  -0.35251  -0.34044  -0.33859
 Alpha  occ. eigenvalues --   -0.33177  -0.32964  -0.32619  -0.32597  -0.32479
 Alpha  occ. eigenvalues --   -0.32230  -0.32019  -0.31502  -0.26386  -0.25818
 Alpha  occ. eigenvalues --   -0.23524  -0.23112
 Alpha virt. eigenvalues --   -0.07756  -0.07345   0.00017   0.00071   0.02173
 Alpha virt. eigenvalues --    0.02253   0.04150   0.04374   0.04940   0.06219
 Alpha virt. eigenvalues --    0.06564   0.06789   0.07380   0.07721   0.07901

 Mulliken charges:
               1
     1  Mg   0.972038
     2  C    0.037781
     3  C   -0.077672
     4  C   -0.047260
     5  C   -0.093005
     6  N   -0.359315
     7  C   -0.051912
     8  C   -0.053898
     9  C   -0.081777
    10  C    0.068510
    11  C    0.030587
    12  C    0.005100
    13  C   -0.116308
    14  H    0.047946
    15  N   -0.473344
    16  C    0.150719
    17  C   -0.148826
    18  C   -0.063175
    19  C    0.180090
    20  C    0.070621
    21  C    0.021597
    22  O   -0.276432
    23  C    0.023572
    24  N   -0.303461
    25  C    0.005108
    26  C   -0.045713
    27  C   -0.064952
    28  C    0.055569
    29  C    0.009359
    30  C   -0.002904
    31  C   -0.061543
    32  N   -0.466616
    33  C    0.108578
    34  C   -0.190653
    35  C   -0.079754
    36  C    0.147827
    37  C    0.086690
    38  C    0.122475
    39  O   -0.159333
    40  C   -0.057647
    41  C    0.245519
    42  O   -0.241384
    43  O   -0.390701
    44  C    0.140072
    45  H    0.005599
    46  H   -0.060464
    47  H    0.007040
    48  H    0.035259
    49  H    0.038409
    50  H    0.038076
    51  H    0.024448
    52  H    0.047470
    53  H    0.031300
    54  H    0.047691
    55  H    0.050679
    56  H    0.054867
    57  H    0.034129
    58  H    0.046692
    59  H    0.064951
    60  H    0.062933
    61  H    0.064297
    62  H    0.063501
    63  H    0.043497
    64  H    0.043124
    65  H    0.033441
    66  H    0.024405
    67  H    0.040236
    68  H    0.030976
    69  H    0.026674
    70  H    0.031380
    71  H    0.020889
    72  H    0.039999
    73  H    0.062364
    74  H    0.052128
    75  H    0.046523
    76  H    0.069892
    77  H    0.047245
    78  H    0.043960
    79  H    0.064217
    80  Mg   0.990700
    81  C   -0.017521
    82  C   -0.078644
    83  C   -0.086359
    84  C   -0.079865
    85  N   -0.298190
    86  C   -0.019960
    87  C   -0.052951
    88  C   -0.107200
    89  C    0.010919
    90  C    0.015735
    91  C    0.042986
    92  C   -0.139066
    93  H   -0.009654
    94  N   -0.512531
    95  C    0.177485
    96  C   -0.130213
    97  C   -0.070973
    98  C    0.182270
    99  C    0.070161
   100  C    0.029620
   101  O   -0.236656
   102  C   -0.016413
   103  N   -0.420484
   104  C    0.093568
   105  C   -0.078858
   106  C   -0.074244
   107  C    0.102161
   108  C    0.012640
   109  C   -0.031812
   110  C   -0.079635
   111  N   -0.424534
   112  C    0.112401
   113  C   -0.186365
   114  C   -0.110909
   115  C    0.145589
   116  C    0.092658
   117  C    0.193602
   118  O   -0.247706
   119  C   -0.086714
   120  C    0.237199
   121  O   -0.214994
   122  O   -0.372163
   123  C    0.133791
   124  H   -0.004509
   125  H    0.020960
   126  H   -0.003298
   127  H    0.041492
   128  H    0.042935
   129  H    0.048254
   130  H    0.034615
   131  H    0.041277
   132  H    0.049085
   133  H    0.046176
   134  H    0.054723
   135  H    0.060335
   136  H    0.047066
   137  H    0.062974
   138  H    0.044870
   139  H    0.052787
   140  H    0.053702
   141  H    0.038468
   142  H    0.046269
   143  H    0.048445
   144  H    0.040273
   145  H    0.042094
   146  H    0.029159
   147  H    0.043043
   148  H    0.034669
   149  H    0.027525
   150  H    0.051961
   151  H    0.040938
   152  H    0.063923
   153  H    0.026456
   154  H    0.068698
   155  H    0.067085
   156  H    0.050117
   157  H    0.052083
   158  H    0.076479
 Sum of Mulliken charges =  -0.00000

 Dipole moment (field-independent basis, Debye):
    X=             -4.2776    Y=              6.3170    Z=              3.1636  Tot=              8.2590
 Quadrupole moment (field-independent basis, Debye-Ang):
   XX=           -502.0092   YY=           -564.0123   ZZ=           -514.7002
   XY=            -16.0266   XZ=            -68.6098   YZ=            -18.0626

 Normal termination of Gaussian 16 at Sun Sep 19 20:25:30 2021.
