 Gaussian 16, Revision A.03,
 Gaussian 16:  ES64L-G16RevA.03 25-Dec-2016

 --------------------------------
 #p wB97XD/Def2SVP td=(nstates=5)
 --------------------------------

 --------------------------------
 TDDFT excited states in gaussian
 --------------------------------
 Symbolic Z-matrix:
 Charge =  0 Multiplicity = 1

                         Standard orientation:
 ---------------------------------------------------------------------
 Center     Atomic      Atomic             Coordinates (Angstroms)
 Number     Number       Type             X           Y           Z
 ---------------------------------------------------------------------
      1         12           0       29.039434    0.419683   -0.052343
      2          6           0       26.135314   -1.477527   -0.593605
      3          6           0       27.397141    3.121004   -1.296557
      4          6           0       31.647010    2.142684    0.911090
      5          6           0       30.139109   -2.365612    1.947471
      6          7           0       27.048498    0.727477   -0.897218
      7          6           0       26.020521   -0.166063   -1.005307
      8          6           0       24.740444    0.613538   -1.341421
      9          6           0       25.299162    1.838294   -2.057311
     10          6           0       26.632294    1.947069   -1.292546
     11          6           0       25.523430    1.601884   -3.568751
     12          6           0       23.940457    0.992992   -0.040687
     13          6           0       22.502184    0.316045    0.196605
     14          1           0       22.285777   -0.562226    1.440742
     15          7           0       29.443957    2.371699   -0.121519
     16          6           0       28.649594    3.336569   -0.697130
     17          6           0       29.381764    4.564203   -0.713898
     18          6           0       30.696834    4.335483   -0.189435
     19          6           0       30.664224    2.908476    0.243771
     20          6           0       28.798114    5.906706   -1.273312
     21          6           0       31.847603    5.405385   -0.149092
     22          8           0       31.690635    6.471432   -0.659977
     23          6           0       33.177197    4.973806    0.264704
     24          7           0       30.514897    0.057907    1.508818
     25          6           0       31.631975    0.809404    1.362612
     26          6           0       32.897399    0.093980    1.805100
     27          6           0       32.367873   -1.168536    2.467877
     28          6           0       30.886875   -1.177276    1.952114
     29          6           0       33.871597   -0.224999    0.611342
     30          6           0       32.459898   -1.324130    4.058624
     31          6           0       33.427369   -2.273961    4.712376
     32          7           0       28.435856   -1.571609    0.401925
     33          6           0       28.970065   -2.578896    1.215716
     34          6           0       28.103290   -3.736135    1.271563
     35          6           0       26.999804   -3.348690    0.551853
     36          6           0       27.197172   -2.021549    0.046338
     37          6           0       28.373104   -4.971822    2.024684
     38          6           0       25.688437   -3.785498    0.097748
     39          8           0       25.139828   -4.888018    0.216976
     40          6           0       25.131366   -2.653766   -0.739908
     41          6           0       24.942662   -3.189095   -2.155132
     42          8           0       25.891649   -3.646151   -2.788144
     43          8           0       23.589428   -3.200800   -2.527380
     44          6           0       23.334930   -3.727069   -3.841757
     45          1           0       26.898559    3.924273   -1.842451
     46          1           0       32.607540    2.660154    0.920312
     47          1           0       30.530833   -3.244898    2.463489
     48          1           0       24.091020   -0.072111   -1.886272
     49          1           0       24.612938    2.667829   -1.891428
     50          1           0       25.015344    2.487945   -3.947732
     51          1           0       25.002139    0.668128   -3.781460
     52          1           0       26.556863    1.536770   -3.909368
     53          1           0       23.744162    2.064187   -0.084955
     54          1           0       24.605595    0.845990    0.809873
     55          1           0       22.367690   -0.368772   -0.641017
     56          1           0       21.661421    1.007249    0.151529
     57          1           0       28.879799    6.798208   -0.652267
     58          1           0       27.739925    5.712785   -1.451611
     59          1           0       29.231436    6.185594   -2.233977
     60          1           0       33.220241    4.546420    1.266732
     61          1           0       33.846144    5.833133    0.218904
     62          1           0       33.627083    4.352400   -0.508392
     63          1           0       33.508240    0.699095    2.475866
     64          1           0       32.832851   -2.050070    2.026491
     65          1           0       34.684297    0.494572    0.513645
     66          1           0       33.292578   -0.386241   -0.297952
     67          1           0       34.341486   -1.184374    0.832629
     68          1           0       31.529550   -1.381282    4.622652
     69          1           0       32.832588   -0.314874    4.235585
     70          1           0       34.208993   -1.773794    5.283340
     71          1           0       33.922398   -2.873471    3.948034
     72          1           0       32.802106   -2.895502    5.352929
     73          1           0       29.046571   -4.719877    2.844321
     74          1           0       28.914986   -5.619731    1.335130
     75          1           0       27.449992   -5.464125    2.327192
     76          1           0       24.160931   -2.477148   -0.278030
     77          1           0       23.570863   -3.043764   -4.657995
     78          1           0       22.289660   -4.009216   -3.964691
     79          1           0       23.872096   -4.647435   -4.069230
     80         12           0      -28.843655    0.434758    0.372963
     81          6           0      -27.259876   -2.496087   -0.777692
     82          6           0      -28.260933    1.772750   -2.759901
     83          6           0      -30.245195    3.378708    1.384610
     84          6           0      -29.037922   -0.862798    3.462927
     85          7           0      -27.889044   -0.305909   -1.583817
     86          6           0      -27.426979   -1.582705   -1.879602
     87          6           0      -27.192165   -1.728461   -3.369697
     88          6           0      -27.179255   -0.244334   -3.887721
     89          6           0      -27.820335    0.427093   -2.694013
     90          6           0      -25.768124    0.320020   -4.316053
     91          6           0      -28.299497   -2.518759   -4.082719
     92          6           0      -27.829257   -3.425314   -5.225262
     93          1           0      -27.302114   -2.762513   -6.528291
     94          7           0      -29.286588    2.275865   -0.567130
     95          6           0      -28.908828    2.578681   -1.830496
     96          6           0      -29.237735    3.942918   -2.088524
     97          6           0      -29.964925    4.463194   -0.962673
     98          6           0      -29.805321    3.397399    0.010819
     99          6           0      -28.890435    4.617994   -3.386308
    100          6           0      -30.609284    5.825467   -0.705316
    101          8           0      -31.347198    6.027586    0.284220
    102          6           0      -30.336646    7.041563   -1.583293
    103          7           0      -29.613626    1.109199    2.123759
    104          6           0      -30.087986    2.395423    2.362949
    105          6           0      -30.435353    2.524325    3.810548
    106          6           0      -30.138213    1.165634    4.541252
    107          6           0      -29.603760    0.379524    3.333121
    108          6           0      -29.863988    3.796096    4.506716
    109          6           0      -31.358188    0.477695    5.191294
    110          6           0      -31.502676    0.775793    6.696191
    111          7           0      -28.259206   -1.250431    1.227076
    112          6           0      -28.443664   -1.735321    2.521129
    113          6           0      -27.944555   -3.150464    2.688591
    114          6           0      -27.455951   -3.414889    1.398830
    115          6           0      -27.708703   -2.289396    0.550405
    116          6           0      -27.992442   -3.990288    3.951997
    117          6           0      -26.807063   -4.464053    0.627100
    118          8           0      -26.406565   -5.580711    0.958351
    119          6           0      -26.777995   -3.915352   -0.862358
    120          6           0      -25.315907   -4.074695   -1.323548
    121          8           0      -24.322552   -3.861047   -0.659635
    122          8           0      -25.311003   -4.669578   -2.583755
    123          6           0      -23.962706   -4.873023   -3.113993
    124          1           0      -28.133134    2.135516   -3.781734
    125          1           0      -30.713756    4.267490    1.811832
    126          1           0      -29.026780   -1.159705    4.513395
    127          1           0      -26.236605   -2.179029   -3.636890
    128          1           0      -27.780897   -0.068368   -4.779481
    129          1           0      -24.952443   -0.403578   -4.315806
    130          1           0      -25.359231    1.125225   -3.706152
    131          1           0      -25.791204    0.672270   -5.347322
    132          1           0      -29.062219   -1.854508   -4.488424
    133          1           0      -28.789280   -3.205005   -3.391575
    134          1           0      -28.585135   -4.161810   -5.497533
    135          1           0      -27.024514   -4.084580   -4.900565
    136          1           0      -27.837887    4.356482   -3.496208
    137          1           0      -28.938444    5.706284   -3.421140
    138          1           0      -29.426861    4.240369   -4.256495
    139          1           0      -29.265558    7.183934   -1.727775
    140          1           0      -30.797782    7.842716   -1.005888
    141          1           0      -30.777383    6.918682   -2.572604
    142          1           0      -31.489157    2.801436    3.852146
    143          1           0      -29.329578    1.199644    5.272495
    144          1           0      -29.247087    4.322809    3.778306
    145          1           0      -29.229622    3.486475    5.336836
    146          1           0      -30.752195    4.367604    4.778169
    147          1           0      -31.313224   -0.578129    4.925170
    148          1           0      -32.289090    0.890529    4.801976
    149          1           0      -31.001374    1.713688    6.936054
    150          1           0      -31.028151    0.072982    7.381267
    151          1           0      -32.563098    0.912929    6.909920
    152          1           0      -29.032520   -4.277610    4.107224
    153          1           0      -27.674645   -3.487064    4.864948
    154          1           0      -27.374446   -4.864202    3.746560
    155          1           0      -27.428523   -4.431231   -1.568352
    156          1           0      -23.569946   -4.039992   -3.697780
    157          1           0      -24.055402   -5.779347   -3.712233
    158          1           0      -23.137848   -5.037992   -2.420835
 ---------------------------------------------------------------------

 SCF Done:  E(RwB97XD) =  -4070.64206694     A.U. after   19 cycles

 Excitation energies and oscillator strengths:

 Excited State   1:      Singlet-A      1.6477 eV  752.47 nm  f=0.3669  <S**2>=0.000
     310 -> 316        0.19177
     311 -> 313        0.68141
     310 <- 316        0.11858
 This state for optimization and/or second-order correction.
 Total Energy, E(TD-HF/TD-DFT) =  -4070.58151490
 Copying the excited state density for this state as the 1-particle RhoCI density.

 Excited State   2:      Singlet-A      1.6668 eV  743.85 nm  f=0.3667  <S**2>=0.000
     309 -> 315        0.19753
     312 -> 314        0.68090
     309 <- 315        0.12065

 Excited State   3:      Singlet-A      2.1798 eV  568.78 nm  f=0.0973  <S**2>=0.000
     310 -> 313        0.63418
     311 -> 316       -0.30017

 Excited State   4:      Singlet-A      2.2261 eV  556.95 nm  f=0.0509  <S**2>=0.000
     309 -> 314        0.60364
     312 -> 315       -0.35680

 Excited State   5:      Singlet-A      3.4329 eV  361.16 nm  f=0.1153  <S**2>=0.000
     305 -> 313        0.16747
     307 -> 313        0.56585
     310 -> 313        0.11123
     311 -> 316        0.34314

 The electronic state is 1-A.
 Alpha  occ. eigenvalues --  -46.95030 -46.93985 -19.31290 -19.30975 -19.25557
 Alpha  occ. eigenvalues --  -19.25329 -19.24262 -19.24128 -19.24068 -19.23856
 Alpha  occ. eigenvalues --  -14.47283 -14.46730 -14.46680 -14.45871 -14.44486
 Alpha  occ. eigenvalues --  -14.44096 -14.43994 -14.43975 -10.44154 -10.43530
 Alpha  occ. eigenvalues --  -10.39854 -10.39089 -10.38980 -10.38614 -10.35448
 Alpha  occ. eigenvalues --  -10.35258 -10.35217 -10.35174 -10.35142 -10.34898
 Alpha  occ. eigenvalues --  -10.34874 -10.34827 -10.34789 -10.34696 -10.34571
 Alpha  occ. eigenvalues --  -10.34309 -10.34276 -10.33838 -10.33650 -10.33546
 Alpha  occ. eigenvalues --  -10.33284 -10.33188 -10.33076 -10.32915 -10.32881
 Alpha  occ. eigenvalues --  -10.32831 -10.32692 -10.32628 -10.32582 -10.32492
 Alpha  occ. eigenvalues --  -10.32431 -10.32199 -10.32147 -10.31947 -10.31946
 Alpha  occ. eigenvalues --  -10.31944 -10.31921 -10.31892 -10.31682 -10.31658
 Alpha  occ. eigenvalues --  -10.31298 -10.31220 -10.31217 -10.31159 -10.31026
 Alpha  occ. eigenvalues --  -10.31016 -10.30942 -10.30937 -10.30907 -10.30732
 Alpha  occ. eigenvalues --  -10.30473 -10.30364 -10.30311 -10.30252 -10.30242
 Alpha  occ. eigenvalues --  -10.30124 -10.30088 -10.30029 -10.29969 -10.29861
 Alpha  occ. eigenvalues --  -10.29713 -10.29521 -10.29499 -10.29427 -10.29366
 Alpha  occ. eigenvalues --  -10.29204  -3.21075  -3.20179  -1.94641  -1.94215
 Alpha  occ. eigenvalues --   -1.94043  -1.93773  -1.93285  -1.93196  -1.18453
 Alpha  occ. eigenvalues --   -1.18172  -1.14104  -1.11441  -1.11357  -1.11159
 Alpha  occ. eigenvalues --   -1.10467  -1.10370  -1.06783  -1.06720  -1.06280
 Alpha  occ. eigenvalues --   -1.05739  -1.05070  -1.04913  -1.04113  -1.03441
 Alpha  occ. eigenvalues --   -0.95058  -0.94535  -0.91290  -0.91014  -0.90911
 Alpha  occ. eigenvalues --   -0.90847  -0.90458  -0.90206  -0.89575  -0.89394
 Alpha  occ. eigenvalues --   -0.89053  -0.88984  -0.88079  -0.86937  -0.86505
 Alpha  occ. eigenvalues --   -0.86320  -0.86145  -0.85430  -0.84467  -0.84446
 Alpha  occ. eigenvalues --   -0.84210  -0.83663  -0.83010  -0.82912  -0.82829
 Alpha  occ. eigenvalues --   -0.82040  -0.80428  -0.79950  -0.79379  -0.79192
 Alpha  occ. eigenvalues --   -0.79178  -0.78342  -0.78222  -0.78082  -0.77046
 Alpha  occ. eigenvalues --   -0.76997  -0.74880  -0.74669  -0.74113  -0.73628
 Alpha  occ. eigenvalues --   -0.71346  -0.70954  -0.70731  -0.70600  -0.70156
 Alpha  occ. eigenvalues --   -0.70106  -0.69322  -0.68757  -0.67793  -0.67717
 Alpha  occ. eigenvalues --   -0.67564  -0.67440  -0.66867  -0.66483  -0.66476
 Alpha  occ. eigenvalues --   -0.66157  -0.64729  -0.64549  -0.62358  -0.62211
 Alpha  occ. eigenvalues --   -0.62146  -0.62053  -0.61107  -0.60935  -0.60882
 Alpha  occ. eigenvalues --   -0.60487  -0.60471  -0.59710  -0.59697  -0.59492
 Alpha  occ. eigenvalues --   -0.58220  -0.58066  -0.58031  -0.57455  -0.57252
 Alpha  occ. eigenvalues --   -0.57079  -0.56893  -0.56532  -0.55922  -0.55750
 Alpha  occ. eigenvalues --   -0.55481  -0.55423  -0.55106  -0.55082  -0.54942
 Alpha  occ. eigenvalues --   -0.54817  -0.54719  -0.54619  -0.54506  -0.54129
 Alpha  occ. eigenvalues --   -0.54113  -0.53773  -0.53730  -0.53692  -0.53161
 Alpha  occ. eigenvalues --   -0.52957  -0.52816  -0.52388  -0.52387  -0.52191
 Alpha  occ. eigenvalues --   -0.52094  -0.51994  -0.51739  -0.51720  -0.51582
 Alpha  occ. eigenvalues --   -0.51263  -0.51257  -0.51044  -0.51008  -0.50844
 Alpha  occ. eigenvalues --   -0.50613  -0.50397  -0.50264  -0.50186  -0.50020
 Alpha  occ. eigenvalues --   -0.50001  -0.49577  -0.49441  -0.49322  -0.49034
 Alpha  occ. eigenvalues --   -0.48770  -0.48589  -0.48520  -0.48449  -0.48311
 Alpha  occ. eigenvalues --   -0.48212  -0.48209  -0.48042  -0.47899  -0.47829
 Alpha  occ. eigenvalues --   -0.47448  -0.47376  -0.47286  -0.46833  -0.46583
 Alpha  occ. eigenvalues --   -0.46456  -0.46389  -0.46290  -0.46256  -0.46245
 Alpha  occ. eigenvalues --   -0.46098  -0.45797  -0.45532  -0.45515  -0.45367
 Alpha  occ. eigenvalues --   -0.45267  -0.45135  -0.45034  -0.44955  -0.44631
 Alpha  occ. eigenvalues --   -0.44540  -0.44383  -0.44296  -0.44091  -0.43890
 Alpha  occ. eigenvalues --   -0.43852  -0.43728  -0.43652  -0.43528  -0.43520
 Alpha  occ. eigenvalues --   -0.43109  -0.43003  -0.42971  -0.42763  -0.42607
 Alpha  occ. eigenvalues --   -0.42395  -0.42292  -0.42158  -0.41956  -0.41596
 Alpha  occ. eigenvalues --   -0.40898  -0.40597  -0.40236  -0.39943  -0.39857
 Alpha  occ. eigenvalues --   -0.39472  -0.39291  -0.39171  -0.38845  -0.38714
 Alpha  occ. eigenvalues --   -0.38623  -0.38589  -0.37147  -0.36951  -0.36834
 Alpha  occ. eigenvalues --   -0.36719  -0.35741  -0.35092  -0.33554  -0.33501
 Alpha  occ. eigenvalues --   -0.33199  -0.33152  -0.32949  -0.32935  -0.32678
 Alpha  occ. eigenvalues --   -0.32327  -0.32202  -0.31822  -0.26324  -0.25870
 Alpha  occ. eigenvalues --   -0.22884  -0.22804
 Alpha virt. eigenvalues --   -0.06913  -0.06658  -0.00334   0.00140   0.02047
 Alpha virt. eigenvalues --    0.02588   0.03852   0.04601   0.05189   0.06362
 Alpha virt. eigenvalues --    0.06783   0.07117   0.07425   0.07475   0.08331

 Mulliken charges:
               1
     1  Mg   0.956786
     2  C   -0.054848
     3  C   -0.097983
     4  C   -0.053016
     5  C   -0.094178
     6  N   -0.331829
     7  C   -0.023644
     8  C   -0.114953
     9  C   -0.115713
    10  C    0.039150
    11  C    0.060838
    12  C    0.025449
    13  C   -0.134582
    14  H    0.044852
    15  N   -0.518688
    16  C    0.210290
    17  C   -0.172890
    18  C   -0.106174
    19  C    0.151628
    20  C    0.083361
    21  C    0.062062
    22  O   -0.196882
    23  C   -0.021450
    24  N   -0.326690
    25  C    0.062229
    26  C   -0.102119
    27  C   -0.069992
    28  C    0.069770
    29  C    0.021095
    30  C   -0.022409
    31  C   -0.034771
    32  N   -0.428773
    33  C    0.127716
    34  C   -0.206670
    35  C   -0.016878
    36  C    0.192746
    37  C    0.097410
    38  C    0.099173
    39  O   -0.220843
    40  C   -0.022052
    41  C    0.288759
    42  O   -0.244365
    43  O   -0.362521
    44  C    0.139835
    45  H    0.001581
    46  H   -0.029264
    47  H   -0.001572
    48  H    0.017291
    49  H    0.023676
    50  H    0.042905
    51  H    0.038774
    52  H    0.055125
    53  H    0.032693
    54  H    0.055666
    55  H    0.047924
    56  H    0.058767
    57  H    0.056050
    58  H    0.011815
    59  H    0.051551
    60  H    0.070912
    61  H    0.042008
    62  H    0.069556
    63  H    0.033434
    64  H    0.024321
    65  H    0.046119
    66  H    0.041574
    67  H    0.029656
    68  H    0.043979
    69  H    0.016340
    70  H    0.044041
    71  H    0.026341
    72  H    0.041571
    73  H    0.036703
    74  H    0.058317
    75  H    0.066053
    76  H    0.061069
    77  H    0.042313
    78  H    0.050442
    79  H    0.054032
    80  Mg   1.001522
    81  C   -0.064919
    82  C   -0.110821
    83  C   -0.083527
    84  C   -0.100696
    85  N   -0.307699
    86  C    0.022526
    87  C   -0.031853
    88  C   -0.097692
    89  C    0.019002
    90  C    0.007931
    91  C    0.023206
    92  C   -0.123398
    93  H    0.016998
    94  N   -0.428054
    95  C    0.224159
    96  C   -0.180421
    97  C   -0.042844
    98  C    0.127707
    99  C    0.061791
   100  C    0.049216
   101  O   -0.257576
   102  C   -0.023792
   103  N   -0.456626
   104  C    0.108928
   105  C   -0.100387
   106  C   -0.055395
   107  C    0.059256
   108  C    0.015937
   109  C    0.000268
   110  C   -0.055613
   111  N   -0.483421
   112  C    0.140283
   113  C   -0.167132
   114  C   -0.071833
   115  C    0.182712
   116  C    0.080916
   117  C    0.161357
   118  O   -0.208553
   119  C   -0.105895
   120  C    0.266289
   121  O   -0.223757
   122  O   -0.369660
   123  C    0.126324
   124  H   -0.009044
   125  H    0.016350
   126  H   -0.010454
   127  H    0.030661
   128  H    0.039923
   129  H    0.034311
   130  H    0.041869
   131  H    0.034278
   132  H    0.040669
   133  H    0.036922
   134  H    0.048542
   135  H    0.050337
   136  H    0.046161
   137  H    0.026861
   138  H    0.058713
   139  H    0.061388
   140  H    0.063742
   141  H    0.063654
   142  H    0.042769
   143  H    0.042940
   144  H    0.043680
   145  H    0.034117
   146  H    0.043574
   147  H    0.037021
   148  H    0.028015
   149  H    0.024568
   150  H    0.041180
   151  H    0.040905
   152  H    0.050542
   153  H    0.047766
   154  H    0.066172
   155  H    0.072910
   156  H    0.043210
   157  H    0.055706
   158  H    0.065276
 Sum of Mulliken charges =  -0.00000

 Dipole moment (field-independent basis, Debye):
    X=              1.4041    Y=              3.2796    Z=             -3.3221  Tot=              4.8748
 Quadrupole moment (field-independent basis, Debye-Ang):
   XX=           -321.4685   YY=           -570.1040   ZZ=           -460.3686
   XY=            -68.8440   XZ=             91.7636   YZ=             -2.7695

 Normal termination of Gaussian 16 at Mon Sep 20 18:07:40 2021.
