 Gaussian 16, Revision A.03,
 Gaussian 16:  ES64L-G16RevA.03 25-Dec-2016

 --------------------------------
 #p wB97XD/Def2SVP td=(nstates=5)
 --------------------------------

 --------------------------------
 TDDFT excited states in gaussian
 --------------------------------
 Symbolic Z-matrix:
 Charge =  0 Multiplicity = 1

                         Standard orientation:
 ---------------------------------------------------------------------
 Center     Atomic      Atomic             Coordinates (Angstroms)
 Number     Number       Type             X           Y           Z
 ---------------------------------------------------------------------
      1         12           0       -0.749939    0.246736   -0.012557
      2          6           0        2.825619   -0.019547   -0.263605
      3          6           0       -0.800715   -3.295571   -0.155272
      4          6           0       -4.240715    0.277709    0.086625
      5          6           0       -0.606229    3.573381   -0.282893
      6          7           0        0.918468   -1.462688   -0.405852
      7          6           0        2.257260   -1.296648   -0.347783
      8          6           0        2.977363   -2.677030   -0.557978
      9          6           0        1.735562   -3.623648   -0.726770
     10          6           0        0.508792   -2.771230   -0.328831
     11          6           0        1.639554   -4.229772   -2.170364
     12          6           0        3.873372   -3.078563    0.613435
     13          6           0        5.212120   -3.637906    0.259187
     14          1           0        6.198039   -3.967433    1.389352
     15          7           0       -2.284040   -1.234977    0.175090
     16          6           0       -2.078129   -2.607472    0.082943
     17          6           0       -3.357607   -3.266660    0.254394
     18          6           0       -4.338676   -2.304160    0.426052
     19          6           0       -3.648786   -0.998707    0.151771
     20          6           0       -3.584908   -4.743950    0.109278
     21          6           0       -5.903335   -2.434871    0.631401
     22          8           0       -6.705249   -1.544345    0.772856
     23          6           0       -6.491570   -3.812941    0.843883
     24          7           0       -2.206490    1.635979   -0.232853
     25          6           0       -3.568130    1.495793   -0.164480
     26          6           0       -4.309422    2.802754   -0.530802
     27          6           0       -3.165366    3.896340   -0.402051
     28          6           0       -1.901413    2.964571   -0.264629
     29          6           0       -5.020204    2.733227   -1.920231
     30          6           0       -3.332482    4.869160    0.804730
     31          6           0       -3.162760    4.243897    2.187499
     32          7           0        0.714541    1.548018   -0.255255
     33          6           0        0.656336    2.969217   -0.288395
     34          6           0        1.996326    3.534887   -0.428627
     35          6           0        2.847738    2.417097   -0.367431
     36          6           0        2.056138    1.243892   -0.251317
     37          6           0        2.325227    4.951760   -0.530159
     38          6           0        4.263165    2.063741   -0.404898
     39          8           0        5.243212    2.788938   -0.437739
     40          6           0        4.320833    0.442435   -0.429293
     41          6           0        5.263567    0.203138    0.752520
     42          8           0        5.030590    0.339685    1.967099
     43          8           0        6.454353   -0.129633    0.285522
     44          6           0        7.493822   -0.696694    1.237294
     45          1           0       -0.798463   -4.386870   -0.125158
     46          1           0       -5.327867    0.386638    0.107623
     47          1           0       -0.628758    4.664835   -0.292011
     48          1           0        3.629602   -2.508776   -1.414275
     49          1           0        1.756799   -4.447193   -0.011770
     50          1           0        1.592552   -5.317136   -2.229763
     51          1           0        2.356331   -3.810723   -2.876826
     52          1           0        0.704731   -4.054486   -2.703267
     53          1           0        3.411780   -4.019901    0.912148
     54          1           0        3.865115   -2.354691    1.429070
     55          1           0        5.834349   -3.134083   -0.482247
     56          1           0        4.961375   -4.597794   -0.192437
     57          1           0       -2.642202   -5.285819    0.037694
     58          1           0       -4.191362   -5.038261   -0.748696
     59          1           0       -4.081083   -5.229218    0.949929
     60          1           0       -6.078796   -4.309938    1.721717
     61          1           0       -6.260833   -4.294033   -0.106650
     62          1           0       -7.565599   -3.627480    0.829744
     63          1           0       -5.124400    2.845934    0.192584
     64          1           0       -2.850726    4.403072   -1.314637
     65          1           0       -6.106965    2.730992   -1.836690
     66          1           0       -4.715474    1.952178   -2.615914
     67          1           0       -4.665302    3.657066   -2.377390
     68          1           0       -4.208187    5.487089    0.605726
     69          1           0       -2.526483    5.600173    0.743118
     70          1           0       -3.051908    3.160393    2.210034
     71          1           0       -4.079995    4.479554    2.726599
     72          1           0       -2.253399    4.515728    2.722241
     73          1           0        3.387540    5.172219   -0.636915
     74          1           0        1.937464    5.396281    0.386349
     75          1           0        1.757583    5.360235   -1.367443
     76          1           0        4.869699    0.060393   -1.290025
     77          1           0        8.236132   -1.183847    0.604646
     78          1           0        7.097468   -1.483261    1.878695
     79          1           0        7.925832    0.050061    1.904509
 ---------------------------------------------------------------------

 SCF Done:  E(RwB97XD) =  -2035.29007423     A.U. after   17 cycles

 Excitation energies and oscillator strengths:

 Excited State   1:      Singlet-A      1.5889 eV  780.33 nm  f=0.3676  <S**2>=0.000
     155 ->158         0.19000
     156 ->157         0.68306
     155 <-158         0.12272
 This state for optimization and/or second-order correction.
 Total Energy, E(TD-HF/TD-DFT) =  -2035.23168464
 Copying the excited state density for this state as the 1-particle RhoCI density.

 Excited State   2:      Singlet-A      2.1588 eV  574.31 nm  f=0.0894  <S**2>=0.000
     155 ->157         0.62434
     156 ->158        -0.32212

 Excited State   3:      Singlet-A      3.4490 eV  359.48 nm  f=0.5448  <S**2>=0.000
     153 ->157         0.27123
     155 ->157         0.26775
     156 ->158         0.57073
     155 <-157        -0.11046

 Excited State   4:      Singlet-A      3.4774 eV  356.55 nm  f=0.0147  <S**2>=0.000
     153 ->157        -0.10983
     154 ->157         0.66743

 Excited State   5:      Singlet-A      3.6479 eV  339.87 nm  f=0.0184  <S**2>=0.000
     150 ->157        -0.10099
     151 ->157        -0.19136
     151 ->159         0.13251
     152 ->157         0.50976
     152 ->159        -0.29120
     152 ->160         0.17894

 The electronic state is 1-A.
 Alpha  occ. eigenvalues --  -46.94623 -19.30137 -19.24536 -19.24397 -19.22963
 Alpha  occ. eigenvalues --  -14.47063 -14.46131 -14.44724 -14.44294 -10.42317
 Alpha  occ. eigenvalues --  -10.39571 -10.39414 -10.35978 -10.35462 -10.35378
 Alpha  occ. eigenvalues --  -10.35263 -10.35131 -10.35124 -10.34691 -10.34026
 Alpha  occ. eigenvalues --  -10.33935 -10.32928 -10.32890 -10.32723 -10.32655
 Alpha  occ. eigenvalues --  -10.32499 -10.32473 -10.32462 -10.32408 -10.32392
 Alpha  occ. eigenvalues --  -10.32227 -10.31647 -10.31335 -10.30845 -10.30763
 Alpha  occ. eigenvalues --  -10.30674 -10.30086 -10.30017 -10.29918 -10.29873
 Alpha  occ. eigenvalues --  -10.29597 -10.29456 -10.29207  -3.20751  -1.94328
 Alpha  occ. eigenvalues --   -1.93892  -1.93723  -1.18123  -1.13679  -1.12266
 Alpha  occ. eigenvalues --   -1.07468  -1.05775  -1.05116  -1.04258  -1.03739
 Alpha  occ. eigenvalues --   -0.92816  -0.91093  -0.90601  -0.89926  -0.89294
 Alpha  occ. eigenvalues --   -0.88890  -0.88393  -0.86034  -0.85460  -0.84264
 Alpha  occ. eigenvalues --   -0.83436  -0.82967  -0.82126  -0.80099  -0.79209
 Alpha  occ. eigenvalues --   -0.78876  -0.77893  -0.77061  -0.74576  -0.73619
 Alpha  occ. eigenvalues --   -0.71965  -0.70726  -0.69494  -0.68251  -0.67421
 Alpha  occ. eigenvalues --   -0.67062  -0.66593  -0.66068  -0.63771  -0.61596
 Alpha  occ. eigenvalues --   -0.61288  -0.60912  -0.59705  -0.59362  -0.58184
 Alpha  occ. eigenvalues --   -0.57637  -0.57409  -0.57037  -0.56578  -0.55890
 Alpha  occ. eigenvalues --   -0.55273  -0.55147  -0.54829  -0.54644  -0.54326
 Alpha  occ. eigenvalues --   -0.54052  -0.53456  -0.52895  -0.52834  -0.52055
 Alpha  occ. eigenvalues --   -0.51742  -0.51554  -0.51211  -0.51158  -0.50905
 Alpha  occ. eigenvalues --   -0.50560  -0.50360  -0.50069  -0.49439  -0.49358
 Alpha  occ. eigenvalues --   -0.48669  -0.48575  -0.48286  -0.48116  -0.47743
 Alpha  occ. eigenvalues --   -0.47424  -0.47205  -0.46827  -0.46331  -0.46063
 Alpha  occ. eigenvalues --   -0.45887  -0.45590  -0.45460  -0.45062  -0.44950
 Alpha  occ. eigenvalues --   -0.44898  -0.44505  -0.44056  -0.43776  -0.43295
 Alpha  occ. eigenvalues --   -0.42823  -0.42264  -0.42102  -0.41462  -0.41079
 Alpha  occ. eigenvalues --   -0.40527  -0.39972  -0.39537  -0.38708  -0.38030
 Alpha  occ. eigenvalues --   -0.37645  -0.35896  -0.35334  -0.34708  -0.33597
 Alpha  occ. eigenvalues --   -0.32984  -0.32800  -0.32505  -0.32145  -0.26019
 Alpha  occ. eigenvalues --   -0.22752
 Alpha virt. eigenvalues --   -0.07059  -0.00120   0.02711   0.04487   0.06514
 Alpha virt. eigenvalues --    0.07600   0.07979   0.08527   0.09069   0.10350
 Alpha virt. eigenvalues --    0.11406   0.11958   0.12623   0.13502   0.13744

 Mulliken charges:
               1
     1  Mg   0.987982
     2  C    0.030749
     3  C   -0.071718
     4  C   -0.057309
     5  C   -0.104962
     6  N   -0.311554
     7  C   -0.008555
     8  C   -0.088503
     9  C   -0.083023
    10  C    0.047781
    11  C    0.016143
    12  C    0.051648
    13  C   -0.150365
    14  H    0.031577
    15  N   -0.450300
    16  C    0.180615
    17  C   -0.160816
    18  C   -0.081958
    19  C    0.134214
    20  C    0.055182
    21  C    0.057013
    22  O   -0.216003
    23  C   -0.009432
    24  N   -0.398375
    25  C    0.036541
    26  C   -0.083195
    27  C   -0.076478
    28  C    0.060602
    29  C    0.027351
    30  C   -0.006098
    31  C   -0.051439
    32  N   -0.527200
    33  C    0.158592
    34  C   -0.163577
    35  C   -0.041815
    36  C    0.161994
    37  C    0.081427
    38  C    0.128581
    39  O   -0.198785
    40  C   -0.130132
    41  C    0.252172
    42  O   -0.286951
    43  O   -0.341672
    44  C    0.147846
    45  H   -0.001409
    46  H    0.022977
    47  H   -0.006073
    48  H    0.039129
    49  H    0.035215
    50  H    0.033069
    51  H    0.038311
    52  H    0.025657
    53  H    0.023397
    54  H    0.069040
    55  H    0.048355
    56  H    0.037561
    57  H    0.022361
    58  H    0.055786
    59  H    0.037846
    60  H    0.076523
    61  H    0.035050
    62  H    0.053196
    63  H    0.040840
    64  H    0.042993
    65  H    0.048277
    66  H    0.047196
    67  H    0.024257
    68  H    0.039506
    69  H    0.022306
    70  H    0.040669
    71  H    0.045464
    72  H    0.042421
    73  H    0.065309
    74  H    0.051811
    75  H    0.044443
    76  H    0.067559
    77  H    0.057683
    78  H    0.052452
    79  H    0.073027
 Sum of Mulliken charges =  -0.00000

 Dipole moment (field-independent basis, Debye):
    X=             -1.8745    Y=             -3.0679    Z=             -2.1301  Tot=              4.1789
 Quadrupole moment (field-independent basis, Debye-Ang):
   XX=           -268.5419   YY=           -221.2470   ZZ=           -259.8657
   XY=            -22.6345   XZ=              1.6176   YZ=              0.4414

 Normal termination of Gaussian 16 at Sun Sep 19 11:35:16 2021.
