 Gaussian 16, Revision A.03,
 Gaussian 16:  ES64L-G16RevA.03 25-Dec-2016

 --------------------------------
 #p wB97XD/Def2SVP td=(nstates=5)
 --------------------------------

 --------------------------------
 TDDFT excited states in gaussian
 --------------------------------
 Symbolic Z-matrix:
 Charge =  0 Multiplicity = 1

                         Standard orientation:
 ---------------------------------------------------------------------
 Center     Atomic      Atomic             Coordinates (Angstroms)
 Number     Number       Type             X           Y           Z
 ---------------------------------------------------------------------
      1         12           0        9.396427    0.469994    0.012913
      2          6           0        6.773138   -1.555975   -1.065679
      3          6           0        7.556838    3.249729   -0.866609
      4          6           0       11.939049    2.184919    1.180134
      5          6           0       10.713860   -2.401349    1.830138
      6          7           0        7.331318    0.757940   -0.961271
      7          6           0        6.419471   -0.205827   -1.288861
      8          6           0        5.214832    0.394800   -1.921973
      9          6           0        5.457351    1.953104   -1.814189
     10          6           0        6.894399    2.047838   -1.167863
     11          6           0        5.215870    2.738999   -3.127543
     12          6           0        3.893794   -0.029801   -1.235675
     13          6           0        2.898691   -0.567792   -2.262414
     14          1           0        1.472909    0.061359   -2.280326
     15          7           0        9.716732    2.459111    0.109112
     16          6           0        8.873180    3.474265   -0.339672
     17          6           0        9.614595    4.712295   -0.137138
     18          6           0       10.938659    4.425675    0.438039
     19          6           0       10.962012    2.932745    0.547070
     20          6           0        9.019380    6.018139   -0.316951
     21          6           0       11.841408    5.490352    0.906818
     22          8           0       11.611446    6.676783    0.799906
     23          6           0       13.101591    5.238818    1.658837
     24          7           0       10.988803   -0.033269    1.307142
     25          6           0       12.063376    0.815123    1.394223
     26          6           0       13.144240    0.200150    2.258030
     27          6           0       12.509524   -1.013471    2.826784
     28          6           0       11.314723   -1.154782    2.021764
     29          6           0       14.540725   -0.007917    1.540843
     30          6           0       12.032540   -0.824516    4.307726
     31          6           0       12.024548   -2.015265    5.150252
     32          7           0        8.905727   -1.597503    0.327928
     33          6           0        9.546419   -2.637862    1.013542
     34          6           0        8.953462   -3.881298    0.632568
     35          6           0        7.850342   -3.527665   -0.135415
     36          6           0        7.832481   -2.093382   -0.268328
     37          6           0        9.451610   -5.207312    1.075661
     38          6           0        6.718856   -4.033661   -0.804970
     39          8           0        6.335819   -5.174807   -0.935729
     40          6           0        6.021740   -2.823898   -1.466417
     41          6           0        5.923002   -3.059901   -2.915559
     42          8           0        6.800675   -2.793849   -3.753954
     43          8           0        4.775111   -3.767686   -3.189168
     44          6           0        4.393159   -4.042626   -4.564773
     45          1           0        6.945343    4.079633   -1.225338
     46          1           0       12.812600    2.630115    1.662909
     47          1           0       11.159453   -3.239283    2.370333
     48          1           0        5.360404    0.220817   -2.988478
     49          1           0        4.773664    2.453819   -1.129343
     50          1           0        4.608831    2.041385   -3.705820
     51          1           0        6.100213    3.115558   -3.641697
     52          1           0        4.610019    3.621651   -2.924130
     53          1           0        3.342504    0.794969   -0.784458
     54          1           0        4.166432   -0.774918   -0.488521
     55          1           0        2.760027   -1.571101   -1.859888
     56          1           0        3.405830   -0.582930   -3.226004
     57          1           0        8.001741    5.876436   -0.681490
     58          1           0        9.475176    6.650540   -1.079394
     59          1           0        8.963247    6.524505    0.647300
     60          1           0       13.527939    4.462444    1.023539
     61          1           0       12.846735    4.847963    2.644269
     62          1           0       13.731093    6.128525    1.685658
     63          1           0       13.318399    0.967001    3.011923
     64          1           0       13.021278   -1.966726    2.694045
     65          1           0       14.554340    0.500621    0.576658
     66          1           0       14.889582   -1.040507    1.503748
     67          1           0       15.352386    0.542439    2.015865
     68          1           0       11.041832   -0.369823    4.308602
     69          1           0       12.669126   -0.108750    4.827620
     70          1           0       13.013439   -2.133440    5.594561
     71          1           0       11.714711   -2.906929    4.604240
     72          1           0       11.442001   -1.822042    6.051610
     73          1           0       10.541009   -5.231135    1.099353
     74          1           0        9.067947   -6.042823    0.489929
     75          1           0        9.152553   -5.253994    2.122836
     76          1           0        4.966646   -2.746729   -1.203551
     77          1           0        4.958363   -4.780054   -5.134817
     78          1           0        4.346995   -3.107570   -5.122651
     79          1           0        3.407466   -4.497868   -4.475950
     80         12           0       -9.438069    0.285910    0.157857
     81          6           0       -7.092095   -2.105237   -0.642603
     82          6           0       -7.572225    2.623070   -1.797799
     83          6           0      -11.420277    2.700669    1.159089
     84          6           0      -11.128314   -1.990565    2.188688
     85          7           0       -7.559027    0.176574   -1.054925
     86          6           0       -6.798319   -0.902400   -1.261598
     87          6           0       -5.668674   -0.537478   -2.279148
     88          6           0       -5.808057    1.038366   -2.499464
     89          6           0       -7.071172    1.335045   -1.668235
     90          6           0       -4.713751    1.914565   -1.920748
     91          6           0       -5.668762   -1.371253   -3.569292
     92          6           0       -4.294801   -1.955166   -3.852086
     93          1           0       -3.853209   -2.284177   -5.285566
     94          7           0       -9.519872    2.352857   -0.335521
     95          6           0       -8.738084    3.107173   -1.162180
     96          6           0       -9.184016    4.425073   -1.258053
     97          6           0      -10.254968    4.545315   -0.305196
     98          6           0      -10.460121    3.151896    0.221922
     99          6           0       -8.557120    5.474693   -2.164239
    100          6           0      -11.007318    5.790120    0.136141
    101          8           0      -11.787409    5.699654    1.103933
    102          6           0      -10.752161    7.111750   -0.465138
    103          7           0      -11.020895    0.302147    1.434735
    104          6           0      -11.774380    1.432467    1.676428
    105          6           0      -12.951032    1.228427    2.701540
    106          6           0      -12.961055   -0.358557    2.765293
    107          6           0      -11.614869   -0.717302    2.109848
    108          6           0      -12.910283    1.870740    4.144177
    109          6           0      -14.258528   -1.134245    2.253218
    110          6           0      -14.397771   -1.250144    0.758265
    111          7           0       -9.151522   -1.574897    0.805364
    112          6           0       -9.883031   -2.413949    1.624219
    113          6           0       -9.304837   -3.690538    1.733722
    114          6           0       -8.239311   -3.604483    0.830255
    115          6           0       -8.167820   -2.296152    0.269142
    116          6           0       -9.920784   -4.765846    2.523198
    117          6           0       -7.141494   -4.382760    0.401848
    118          8           0       -6.812285   -5.503093    0.796693
    119          6           0       -6.308454   -3.459213   -0.631632
    120          6           0       -4.941195   -3.332273   -0.158653
    121          8           0       -4.553209   -2.655983    0.766384
    122          8           0       -4.145122   -4.165209   -0.817670
    123          6           0       -2.775853   -4.283034   -0.416386
    124          1           0       -6.967857    3.341422   -2.354855
    125          1           0      -12.151250    3.392991    1.581201
    126          1           0      -11.686197   -2.670203    2.836306
    127          1           0       -4.790758   -0.728400   -1.662791
    128          1           0       -5.742792    1.181978   -3.578570
    129          1           0       -3.872053    1.367253   -1.495314
    130          1           0       -5.104547    2.507529   -1.094279
    131          1           0       -4.427764    2.676259   -2.646728
    132          1           0       -6.015195   -0.843966   -4.458313
    133          1           0       -6.395792   -2.172887   -3.441389
    134          1           0       -4.286451   -2.936518   -3.376383
    135          1           0       -3.579030   -1.256564   -3.419220
    136          1           0       -7.866578    5.028585   -2.880022
    137          1           0       -7.912056    6.115408   -1.562606
    138          1           0       -9.317124    6.123492   -2.598015
    139          1           0      -11.076150    7.910688    0.202771
    140          1           0      -11.378361    7.179180   -1.355301
    141          1           0       -9.691052    7.230891   -0.682781
    142          1           0      -13.925261    1.444731    2.261985
    143          1           0      -12.971489   -0.660130    3.811950
    144          1           0      -11.985368    2.440276    4.226073
    145          1           0      -12.723845    1.082072    4.874194
    146          1           0      -13.759207    2.474280    4.466677
    147          1           0      -15.109730   -0.532343    2.570510
    148          1           0      -14.408835   -2.106338    2.721288
    149          1           0      -14.917924   -2.187303    0.563182
    150          1           0      -13.529109   -1.178373    0.104960
    151          1           0      -15.004933   -0.402131    0.441479
    152          1           0      -11.005696   -4.786290    2.623226
    153          1           0       -9.451246   -4.985985    3.481175
    154          1           0       -9.626126   -5.638490    1.940854
    155          1           0       -6.315898   -3.957939   -1.600624
    156          1           0       -2.130871   -3.566856   -0.926776
    157          1           0       -2.439730   -5.270654   -0.731646
    158          1           0       -2.689671   -4.121264    0.658199
 ---------------------------------------------------------------------

 SCF Done:  E(RwB97XD) =  -4070.59428618     A.U. after   20 cycles

 Excitation energies and oscillator strengths:

 Excited State   1:      Singlet-A      1.6130 eV  768.64 nm  f=0.2459  <S**2>=0.000
     309 -> 315       -0.19128
     311 -> 313        0.67171
     312 -> 314        0.11566
     309 <- 315       -0.11943
 This state for optimization and/or second-order correction.
 Total Energy, E(TD-HF/TD-DFT) =  -4070.53500817
 Copying the excited state density for this state as the 1-particle RhoCI density.

 Excited State   2:      Singlet-A      1.6485 eV  752.09 nm  f=0.5171  <S**2>=0.000
     310 -> 316        0.17589
     311 -> 313       -0.11420
     312 -> 314        0.67459
     310 <- 316        0.11287

 Excited State   3:      Singlet-A      2.1297 eV  582.17 nm  f=0.1121  <S**2>=0.000
     309 -> 313        0.63208
     311 -> 315        0.29908

 Excited State   4:      Singlet-A      2.1653 eV  572.59 nm  f=0.1532  <S**2>=0.000
     310 -> 314        0.64930
     312 -> 316       -0.25668

 Excited State   5:      Singlet-A      3.5203 eV  352.19 nm  f=0.0000  <S**2>=0.000
     312 -> 313        0.70688

 The electronic state is 1-A.
 Alpha  occ. eigenvalues --  -46.95302 -46.94072 -19.30157 -19.30004 -19.24366
 Alpha  occ. eigenvalues --  -19.23673 -19.23546 -19.23421 -19.23330 -19.22423
 Alpha  occ. eigenvalues --  -14.46954 -14.46939 -14.46825 -14.46568 -14.44929
 Alpha  occ. eigenvalues --  -14.44361 -14.43782 -14.43598 -10.42990 -10.42099
 Alpha  occ. eigenvalues --  -10.38878 -10.38547 -10.38225 -10.37668 -10.35710
 Alpha  occ. eigenvalues --  -10.35667 -10.35621 -10.35593 -10.35475 -10.35284
 Alpha  occ. eigenvalues --  -10.35205 -10.35169 -10.35098 -10.34882 -10.34837
 Alpha  occ. eigenvalues --  -10.34474 -10.34178 -10.33909 -10.33449 -10.33120
 Alpha  occ. eigenvalues --  -10.33094 -10.33088 -10.33019 -10.32730 -10.32728
 Alpha  occ. eigenvalues --  -10.32643 -10.32547 -10.32483 -10.32471 -10.32441
 Alpha  occ. eigenvalues --  -10.32435 -10.32326 -10.32278 -10.32230 -10.32087
 Alpha  occ. eigenvalues --  -10.32079 -10.31897 -10.31809 -10.31676 -10.31670
 Alpha  occ. eigenvalues --  -10.31667 -10.31427 -10.31423 -10.31362 -10.31326
 Alpha  occ. eigenvalues --  -10.31277 -10.31222 -10.31200 -10.30744 -10.30677
 Alpha  occ. eigenvalues --  -10.30579 -10.30409 -10.30351 -10.30331 -10.30295
 Alpha  occ. eigenvalues --  -10.30207 -10.30092 -10.30051 -10.29643 -10.29527
 Alpha  occ. eigenvalues --  -10.29344 -10.29076 -10.28813 -10.28790 -10.28772
 Alpha  occ. eigenvalues --  -10.28701  -3.21240  -3.20264  -1.94832  -1.94372
 Alpha  occ. eigenvalues --   -1.94196  -1.93860  -1.93411  -1.93242  -1.20091
 Alpha  occ. eigenvalues --   -1.17685  -1.12311  -1.12078  -1.11102  -1.10759
 Alpha  occ. eigenvalues --   -1.09961  -1.08951  -1.07002  -1.06643  -1.05841
 Alpha  occ. eigenvalues --   -1.05790  -1.05370  -1.05035  -1.04621  -1.03649
 Alpha  occ. eigenvalues --   -0.94665  -0.94078  -0.92655  -0.91522  -0.91326
 Alpha  occ. eigenvalues --   -0.91008  -0.90696  -0.90240  -0.89672  -0.89620
 Alpha  occ. eigenvalues --   -0.89480  -0.89205  -0.88762  -0.88294  -0.87192
 Alpha  occ. eigenvalues --   -0.86561  -0.86468  -0.85773  -0.85425  -0.84860
 Alpha  occ. eigenvalues --   -0.84534  -0.84364  -0.83405  -0.83176  -0.82818
 Alpha  occ. eigenvalues --   -0.82601  -0.80600  -0.80352  -0.79947  -0.79279
 Alpha  occ. eigenvalues --   -0.79111  -0.78859  -0.78285  -0.77917  -0.77368
 Alpha  occ. eigenvalues --   -0.77261  -0.75472  -0.75421  -0.74054  -0.73460
 Alpha  occ. eigenvalues --   -0.71589  -0.71342  -0.71033  -0.70864  -0.70001
 Alpha  occ. eigenvalues --   -0.69793  -0.69524  -0.69133  -0.68420  -0.67934
 Alpha  occ. eigenvalues --   -0.67387  -0.67319  -0.66962  -0.66725  -0.66603
 Alpha  occ. eigenvalues --   -0.66369  -0.64300  -0.64062  -0.62738  -0.62454
 Alpha  occ. eigenvalues --   -0.62023  -0.61503  -0.61489  -0.61025  -0.60996
 Alpha  occ. eigenvalues --   -0.60537  -0.60325  -0.59954  -0.59696  -0.59420
 Alpha  occ. eigenvalues --   -0.58539  -0.58422  -0.58103  -0.57858  -0.57421
 Alpha  occ. eigenvalues --   -0.57164  -0.57131  -0.56604  -0.56419  -0.56309
 Alpha  occ. eigenvalues --   -0.56225  -0.55502  -0.55172  -0.55160  -0.54756
 Alpha  occ. eigenvalues --   -0.54729  -0.54527  -0.54486  -0.54262  -0.54262
 Alpha  occ. eigenvalues --   -0.54076  -0.54070  -0.53728  -0.53718  -0.53595
 Alpha  occ. eigenvalues --   -0.53307  -0.53242  -0.53207  -0.52404  -0.52310
 Alpha  occ. eigenvalues --   -0.52238  -0.51997  -0.51965  -0.51649  -0.51645
 Alpha  occ. eigenvalues --   -0.51449  -0.51372  -0.51189  -0.51114  -0.51109
 Alpha  occ. eigenvalues --   -0.50881  -0.50804  -0.50500  -0.50441  -0.50353
 Alpha  occ. eigenvalues --   -0.50105  -0.49741  -0.49524  -0.49328  -0.49112
 Alpha  occ. eigenvalues --   -0.48965  -0.48848  -0.48765  -0.48600  -0.48485
 Alpha  occ. eigenvalues --   -0.48338  -0.48267  -0.48192  -0.47984  -0.47704
 Alpha  occ. eigenvalues --   -0.47482  -0.47379  -0.47267  -0.47096  -0.46907
 Alpha  occ. eigenvalues --   -0.46902  -0.46560  -0.46537  -0.46495  -0.46319
 Alpha  occ. eigenvalues --   -0.45993  -0.45881  -0.45616  -0.45594  -0.45464
 Alpha  occ. eigenvalues --   -0.45454  -0.45236  -0.45205  -0.45007  -0.44883
 Alpha  occ. eigenvalues --   -0.44644  -0.44523  -0.44516  -0.44008  -0.43954
 Alpha  occ. eigenvalues --   -0.43665  -0.43591  -0.43516  -0.43459  -0.43389
 Alpha  occ. eigenvalues --   -0.43365  -0.43120  -0.43063  -0.42945  -0.42622
 Alpha  occ. eigenvalues --   -0.42431  -0.42177  -0.41147  -0.41120  -0.40893
 Alpha  occ. eigenvalues --   -0.40536  -0.40155  -0.39695  -0.39694  -0.39335
 Alpha  occ. eigenvalues --   -0.39220  -0.39118  -0.38669  -0.38420  -0.38351
 Alpha  occ. eigenvalues --   -0.38336  -0.38145  -0.36377  -0.36268  -0.35810
 Alpha  occ. eigenvalues --   -0.35774  -0.35414  -0.35231  -0.33710  -0.33624
 Alpha  occ. eigenvalues --   -0.32750  -0.32688  -0.32575  -0.32250  -0.32061
 Alpha  occ. eigenvalues --   -0.31974  -0.31710  -0.31558  -0.26252  -0.26080
 Alpha  occ. eigenvalues --   -0.23398  -0.23324
 Alpha virt. eigenvalues --   -0.07540  -0.07498  -0.00619   0.00461   0.02289
 Alpha virt. eigenvalues --    0.02502   0.04440   0.04553   0.05811   0.06182
 Alpha virt. eigenvalues --    0.06389   0.07401   0.07854   0.07912   0.08208

 Mulliken charges:
               1
     1  Mg   0.953359
     2  C    0.048272
     3  C   -0.057422
     4  C   -0.121689
     5  C   -0.096134
     6  N   -0.342917
     7  C   -0.023860
     8  C   -0.029913
     9  C   -0.145851
    10  C    0.045867
    11  C    0.012282
    12  C    0.023747
    13  C   -0.136442
    14  H    0.037160
    15  N   -0.537380
    16  C    0.202095
    17  C   -0.171511
    18  C   -0.063919
    19  C    0.269608
    20  C    0.097386
    21  C   -0.011466
    22  O   -0.239051
    23  C    0.006659
    24  N   -0.368751
    25  C    0.069655
    26  C   -0.083379
    27  C   -0.081756
    28  C    0.063208
    29  C    0.032022
    30  C    0.002970
    31  C   -0.018690
    32  N   -0.407019
    33  C    0.111990
    34  C   -0.185155
    35  C   -0.015189
    36  C    0.112885
    37  C    0.089607
    38  C    0.108690
    39  O   -0.187448
    40  C   -0.127822
    41  C    0.253628
    42  O   -0.268947
    43  O   -0.361398
    44  C    0.149102
    45  H    0.001173
    46  H   -0.005669
    47  H   -0.002482
    48  H    0.049388
    49  H    0.042621
    50  H    0.037921
    51  H    0.051797
    52  H    0.031964
    53  H    0.052240
    54  H    0.052696
    55  H    0.063661
    56  H    0.053459
    57  H    0.000823
    58  H    0.057351
    59  H    0.064969
    60  H    0.039568
    61  H    0.062643
    62  H    0.058219
    63  H    0.032863
    64  H    0.027163
    65  H    0.033960
    66  H    0.045527
    67  H    0.027870
    68  H    0.039547
    69  H    0.020072
    70  H    0.027155
    71  H    0.029292
    72  H    0.034827
    73  H    0.036227
    74  H    0.068066
    75  H    0.051515
    76  H    0.050521
    77  H    0.058501
    78  H    0.047105
    79  H    0.050378
    80  Mg   0.992106
    81  C   -0.044731
    82  C   -0.105280
    83  C   -0.051472
    84  C   -0.104043
    85  N   -0.349863
    86  C   -0.028348
    87  C   -0.021327
    88  C   -0.162673
    89  C    0.116044
    90  C    0.006415
    91  C    0.037849
    92  C   -0.145650
    93  H    0.028471
    94  N   -0.425503
    95  C    0.160084
    96  C   -0.175245
    97  C   -0.074074
    98  C    0.171319
    99  C    0.066539
   100  C    0.038081
   101  O   -0.260143
   102  C    0.004676
   103  N   -0.396025
   104  C    0.027571
   105  C   -0.070266
   106  C   -0.076012
   107  C    0.087133
   108  C    0.029261
   109  C   -0.031271
   110  C   -0.058243
   111  N   -0.470177
   112  C    0.132284
   113  C   -0.134263
   114  C   -0.037872
   115  C    0.195316
   116  C    0.072346
   117  C    0.096229
   118  O   -0.218835
   119  C   -0.078092
   120  C    0.235334
   121  O   -0.251729
   122  O   -0.328018
   123  C    0.135528
   124  H   -0.002475
   125  H    0.021872
   126  H   -0.004549
   127  H    0.033075
   128  H    0.042800
   129  H    0.042883
   130  H    0.040455
   131  H    0.034703
   132  H    0.039520
   133  H    0.030341
   134  H    0.063745
   135  H    0.055507
   136  H    0.042198
   137  H    0.056821
   138  H    0.056437
   139  H    0.055907
   140  H    0.067064
   141  H    0.044852
   142  H    0.038467
   143  H    0.027480
   144  H    0.039832
   145  H    0.027365
   146  H    0.056830
   147  H    0.029251
   148  H    0.033039
   149  H    0.037886
   150  H    0.047592
   151  H    0.028776
   152  H    0.046060
   153  H    0.055784
   154  H    0.045590
   155  H    0.065637
   156  H    0.042273
   157  H    0.056695
   158  H    0.066849
 Sum of Mulliken charges =  -0.00000

 Dipole moment (field-independent basis, Debye):
    X=             -0.3766    Y=              2.9652    Z=             -1.0452  Tot=              3.1665
 Quadrupole moment (field-independent basis, Debye-Ang):
   XX=           -425.3831   YY=           -559.5905   ZZ=           -489.8622
   XY=            -29.7921   XZ=             47.1431   YZ=            -22.5193

 Normal termination of Gaussian 16 at Sun Sep 19 15:04:16 2021.
